 vasp.5.4.1 05Feb16 (build Jan 29 2020 16:04:39) complex                        
  
 executed on           IFC91_ompi date 2020.06.15  06:39:41
 running on  160 total cores
 distrk:  each k-point on   20 cores,    8 groups
 distr:  one band on NCORES_PER_BAND=   5 cores,    4 groups


--------------------------------------------------------------------------------------------------------


 INCAR:
 POTCAR:    PAW_PBE Ta 17Jan2003                  
 POTCAR:    PAW_PBE Hf 20Jan2003                  
 POTCAR:    PAW_PBE Zr_sv 04Jan2005               
 POTCAR:    PAW_PBE Nb_sv 25May2007               

 ----------------------------------------------------------------------------- 
|                                                                             |
|           W    W    AA    RRRRR   N    N  II  N    N   GGGG   !!!           |
|           W    W   A  A   R    R  NN   N  II  NN   N  G    G  !!!           |
|           W    W  A    A  R    R  N N  N  II  N N  N  G       !!!           |
|           W WW W  AAAAAA  RRRRR   N  N N  II  N  N N  G  GGG   !            |
|           WW  WW  A    A  R   R   N   NN  II  N   NN  G    G                |
|           W    W  A    A  R    R  N    N  II  N    N   GGGG   !!!           |
|                                                                             |
|      For optimal performance we recommend to set                            |
|        NCORE= 4 - approx SQRT( number of cores)                             |
|      NCORE specifies how many cores store one orbital (NPAR=cpu/NCORE).     |
|      This setting can  greatly improve the performance of VASP for DFT.     |
|      The default, NPAR=number of cores might be grossly inefficient         |
|      on modern multi-core architectures or massively parallel machines.     |
|      Do your own testing !!!!                                               |
|      Unfortunately you need to use the default for GW and RPA calculations. |
|      (for HF NCORE is supported but not extensively tested yet)             |
|                                                                             |
 ----------------------------------------------------------------------------- 


 ----------------------------------------------------------------------------- 
|                                                                             |
|           W    W    AA    RRRRR   N    N  II  N    N   GGGG   !!!           |
|           W    W   A  A   R    R  NN   N  II  NN   N  G    G  !!!           |
|           W    W  A    A  R    R  N N  N  II  N N  N  G       !!!           |
|           W WW W  AAAAAA  RRRRR   N  N N  II  N  N N  G  GGG   !            |
|           WW  WW  A    A  R   R   N   NN  II  N   NN  G    G                |
|           W    W  A    A  R    R  N    N  II  N    N   GGGG   !!!           |
|                                                                             |
|      You have enabled k-point parallelism (KPAR>1).                         |
|      This developmental code was originally  written by Paul Kent at ORNL,  |
|      and carefully double checked in Vienna.                                |
|      GW as well as linear response parallelism added by Martijn Marsman     |
|      and Georg Kresse.                                                      |
|      Carefully verify results versus KPAR=1.                                |
|      Report problems to Paul Kent and Vienna.                               |
|                                                                             |
 ----------------------------------------------------------------------------- 

 POTCAR:    PAW_PBE Ta 17Jan2003                  
   VRHFIN =Ta:  6s5d                                                            
   LEXCH  = PE                                                                  
   EATOM  =   130.6506 eV,    9.6025 Ry                                         
                                                                                
   TITEL  = PAW_PBE Ta 17Jan2003                                                
   LULTRA =        F    use ultrasoft PP ?                                      
   IUNSCR =        1    unscreen: 0-lin 1-nonlin 2-no                           
   RPACOR =    2.330    partial core radius                                     
   POMASS =  180.948; ZVAL   =    5.000    mass and valenz                      
   RCORE  =    2.900    outmost cutoff radius                                   
   RWIGS  =    2.840; RWIGS  =    1.503    wigner-seitz radius (au A)           
   ENMAX  =  223.667; ENMIN  =  167.750 eV                                      
   RCLOC  =    2.205    cutoff for local pot                                    
   LCOR   =        T    correct aug charges                                     
   LPAW   =        T    paw PP                                                  
   EAUG   =  332.075                                                            
   DEXC   =    0.000                                                            
   RMAX   =    2.970    core radius for proj-oper                               
   RAUG   =    1.300    factor for augmentation sphere                          
   RDEP   =    3.060    radius for radial grids                                 
   RDEPT  =    2.354    core radius for aug-charge                              
                                                                                
   Atomic configuration                                                         
   16 entries                                                                   
     n  l   j            E        occ.                                          
     1  0  0.50    -67341.2807   2.0000                                         
     2  0  0.50    -11566.9376   2.0000                                         
     2  1  1.50    -10134.1182   6.0000                                         
     3  0  0.50     -2648.5620   2.0000                                         
     3  1  1.50     -2222.6012   6.0000                                         
     3  2  2.50     -1726.3120  10.0000                                         
     4  0  0.50      -538.6961   2.0000                                         
     4  1  1.50      -399.0129   6.0000                                         
     4  2  2.50      -220.3959  10.0000                                         
     4  3  3.50       -23.0374  14.0000                                         
     5  0  0.50       -71.2901   2.0000                                         
     5  1  1.50       -37.8225   6.0000                                         
     5  2  2.50        -2.6455   4.0000                                         
     6  0  0.50        -4.9623   1.0000                                         
     6  1  1.50        -1.3606   0.0000                                         
     5  3  2.50        -1.3606   0.0000                                         
   Description                                                                  
     l       E           TYP  RCUT    TYP  RCUT                                 
     2     -2.6455043     23  2.500                                             
     2     -0.6258895     23  2.500                                             
     0     -4.9622780     23  2.500                                             
     0      4.7531321     23  2.500                                             
     1     -1.3605826     23  2.900                                             
     1     27.2116520     23  2.900                                             
  local pseudopotential read in
  partial core-charges read in
  partial kinetic energy density read in
  atomic valenz-charges read in
  non local Contribution for L=           2  read in
    real space projection operators read in
  non local Contribution for L=           2  read in
    real space projection operators read in
  non local Contribution for L=           0  read in
    real space projection operators read in
  non local Contribution for L=           0  read in
    real space projection operators read in
  non local Contribution for L=           1  read in
    real space projection operators read in
  non local Contribution for L=           1  read in
    real space projection operators read in
    PAW grid and wavefunctions read in
 
   number of l-projection  operators is LMAX  =           6
   number of lm-projection operators is LMMAX =          18
 
 POTCAR:    PAW_PBE Hf 20Jan2003                  
   VRHFIN =Hf: 6s5d                                                             
   LEXCH  = PE                                                                  
   EATOM  =    75.9011 eV,    5.5786 Ry                                         
                                                                                
   TITEL  = PAW_PBE Hf 20Jan2003                                                
   LULTRA =        F    use ultrasoft PP ?                                      
   IUNSCR =        1    unscreen: 0-lin 1-nonlin 2-no                           
   RPACOR =    2.500    partial core radius                                     
   POMASS =  178.490; ZVAL   =    4.000    mass and valenz                      
   RCORE  =    3.000    outmost cutoff radius                                   
   RWIGS  =    3.050; RWIGS  =    1.614    wigner-seitz radius (au A)           
   ENMAX  =  220.334; ENMIN  =  165.250 eV                                      
   RCLOC  =    2.212    cutoff for local pot                                    
   LCOR   =        T    correct aug charges                                     
   LPAW   =        T    paw PP                                                  
   EAUG   =  335.116                                                            
   DEXC   =    0.000                                                            
   RMAX   =    3.077    core radius for proj-oper                               
   RAUG   =    1.300    factor for augmentation sphere                          
   RDEP   =    3.047    radius for radial grids                                 
   RDEPT  =    2.344    core radius for aug-charge                              
                                                                                
   Atomic configuration                                                         
   16 entries                                                                   
     n  l   j            E        occ.                                          
     1  0  0.50    -65259.4397   2.0000                                         
     2  0  0.50    -11157.9882   2.0000                                         
     2  1  1.50     -9795.2113   6.0000                                         
     3  0  0.50     -2541.4058   2.0000                                         
     3  1  1.50     -2134.4770   6.0000                                         
     3  2  2.50     -1653.5418  10.0000                                         
     4  0  0.50      -510.9575   2.0000                                         
     4  1  1.50      -377.5023   6.0000                                         
     4  2  2.50      -205.2085  10.0000                                         
     4  3  3.50       -15.4905  14.0000                                         
     5  0  0.50       -65.6020   2.0000                                         
     5  1  1.50       -34.2798   6.0000                                         
     5  2  2.50        -1.9877   3.0000                                         
     6  0  0.50        -4.7357   1.0000                                         
     6  1  1.50        -1.3606   0.0000                                         
     5  3  2.50        -1.3606   0.0000                                         
   Description                                                                  
     l       E           TYP  RCUT    TYP  RCUT                                 
     2     -1.9876627     23  2.500                                             
     2      0.0744703     23  2.500                                             
     0     -4.7356889     23  2.600                                             
     0      3.2364747     23  2.600                                             
     1     -1.3605826     23  3.000                                             
     1     27.2116520     23  3.000                                             
  local pseudopotential read in
  partial core-charges read in
  partial kinetic energy density read in
  atomic valenz-charges read in
  non local Contribution for L=           2  read in
    real space projection operators read in
  non local Contribution for L=           2  read in
    real space projection operators read in
  non local Contribution for L=           0  read in
    real space projection operators read in
  non local Contribution for L=           0  read in
    real space projection operators read in
  non local Contribution for L=           1  read in
    real space projection operators read in
  non local Contribution for L=           1  read in
    real space projection operators read in
    PAW grid and wavefunctions read in
 
   number of l-projection  operators is LMAX  =           6
   number of lm-projection operators is LMMAX =          18
 
 POTCAR:    PAW_PBE Zr_sv 04Jan2005               
   VRHFIN =Zr: 4s4p5s4d                                                         
   LEXCH  = PE                                                                  
   EATOM  =  1284.2219 eV,   94.3876 Ry                                         
                                                                                
   TITEL  = PAW_PBE Zr_sv 04Jan2005                                             
   LULTRA =        F    use ultrasoft PP ?                                      
   IUNSCR =        1    unscreen: 0-lin 1-nonlin 2-no                           
   RPACOR =    2.200    partial core radius                                     
   POMASS =   91.224; ZVAL   =   12.000    mass and valenz                      
   RCORE  =    2.500    outmost cutoff radius                                   
   RWIGS  =    3.070; RWIGS  =    1.625    wigner-seitz radius (au A)           
   ENMAX  =  229.898; ENMIN  =  172.424 eV                                      
   ICORE  =        3    local potential                                         
   LCOR   =        T    correct aug charges                                     
   LPAW   =        T    paw PP                                                  
   EAUG   =  461.257                                                            
   DEXC   =    0.000                                                            
   RMAX   =    2.561    core radius for proj-oper                               
   RAUG   =    1.300    factor for augmentation sphere                          
   RDEP   =    2.597    radius for radial grids                                 
   RDEPT  =    2.007    core radius for aug-charge                              
                                                                                
   Atomic configuration                                                         
   11 entries                                                                   
     n  l   j            E        occ.                                          
     1  0  0.50    -17820.0161   2.0000                                         
     2  0  0.50     -2467.0882   2.0000                                         
     2  1  1.50     -2199.6095   6.0000                                         
     3  0  0.50      -402.4863   2.0000                                         
     3  1  1.50      -315.3675   6.0000                                         
     3  2  2.50      -172.4472  10.0000                                         
     4  0  0.50       -52.4146   2.0000                                         
     5  0  0.50        -3.8421   1.0000                                         
     4  1  1.50       -30.5054   6.0000                                         
     4  2  2.50        -2.3341   3.0000                                         
     4  3  2.50        -1.3606   0.0000                                         
   Description                                                                  
     l       E           TYP  RCUT    TYP  RCUT                                 
     0    -52.4145962     23  2.200                                             
     0     -3.8421270     23  2.500                                             
     1    -30.5053914     23  2.200                                             
     1     20.4087390     23  2.200                                             
     2     -2.3340816     23  2.500                                             
     2     -0.6120942     23  2.500                                             
     3     -4.0817478     23  2.500                                             
  local pseudopotential read in
  partial core-charges read in
  partial kinetic energy density read in
  atomic valenz-charges read in
  non local Contribution for L=           0  read in
    real space projection operators read in
  non local Contribution for L=           0  read in
    real space projection operators read in
  non local Contribution for L=           1  read in
    real space projection operators read in
  non local Contribution for L=           1  read in
    real space projection operators read in
  non local Contribution for L=           2  read in
    real space projection operators read in
  non local Contribution for L=           2  read in
    real space projection operators read in
    PAW grid and wavefunctions read in
 
   number of l-projection  operators is LMAX  =           6
   number of lm-projection operators is LMMAX =          18
 
 POTCAR:    PAW_PBE Nb_sv 25May2007               
   VRHFIN =Nb: 4p5s4d                                                           
   LEXCH  = PE                                                                  
   EATOM  =  1555.1913 eV,  114.3033 Ry                                         
                                                                                
   TITEL  = PAW_PBE Nb_sv 25May2007                                             
   LULTRA =        F    use ultrasoft PP ?                                      
   IUNSCR =        1    unscreen: 0-lin 1-nonlin 2-no                           
   RPACOR =    1.800    partial core radius                                     
   POMASS =   92.910; ZVAL   =   13.000    mass and valenz                      
   RCORE  =    2.400    outmost cutoff radius                                   
   RWIGS  =    2.400; RWIGS  =    1.270    wigner-seitz radius (au A)           
   ENMAX  =  293.235; ENMIN  =  219.927 eV                                      
   ICORE  =        3    local potential                                         
   LCOR   =        T    correct aug charges                                     
   LPAW   =        T    paw PP                                                  
   EAUG   =  455.659                                                            
   DEXC   =    0.000                                                            
   RMAX   =    2.456    core radius for proj-oper                               
   RAUG   =    1.300    factor for augmentation sphere                          
   RDEP   =    2.451    radius for radial grids                                 
   RDEPT  =    1.956    core radius for aug-charge                              
                                                                                
   Atomic configuration                                                         
   11 entries                                                                   
     n  l   j            E        occ.                                          
     1  0  0.50    -18805.2457   2.0000                                         
     2  0  0.50     -2630.2869   2.0000                                         
     2  1  1.50     -2348.4046   6.0000                                         
     3  0  0.50      -438.8757   2.0000                                         
     3  1  1.50      -346.7588   6.0000                                         
     3  2  2.50      -196.2560  10.0000                                         
     4  0  0.50       -58.3859   2.0000                                         
     5  0  0.50        -3.9816   1.0000                                         
     4  1  1.50       -34.5141   6.0000                                         
     4  2  2.50        -3.0408   4.0000                                         
     4  3  2.50        -1.3606   0.0000                                         
   Description                                                                  
     l       E           TYP  RCUT    TYP  RCUT                                 
     0    -58.3859094     23  2.200                                             
     0     -3.9816262     23  2.200                                             
     1    -34.5140738     23  2.200                                             
     1     13.6058260     23  2.200                                             
     2     -3.0408010     23  2.200                                             
     2     -0.1283038     23  2.200                                             
     3     -1.3605826     23  2.400                                             
  local pseudopotential read in
  partial core-charges read in
  partial kinetic energy density read in
  atomic valenz-charges read in
  non local Contribution for L=           0  read in
    real space projection operators read in
  non local Contribution for L=           0  read in
    real space projection operators read in
  non local Contribution for L=           1  read in
    real space projection operators read in
  non local Contribution for L=           1  read in
    real space projection operators read in
  non local Contribution for L=           2  read in
    real space projection operators read in
  non local Contribution for L=           2  read in
    real space projection operators read in
    PAW grid and wavefunctions read in
 
   number of l-projection  operators is LMAX  =           6
   number of lm-projection operators is LMMAX =          18
 
 Optimization of the real space projectors (new method)

 maximal supplied QI-value         = 12.85
 optimisation between [QCUT,QGAM] = [  8.87, 17.73] = [ 22.01, 88.06] Ry 
 Optimized for a Real-space Cutoff    1.90 Angstroem

   l    n(q)    QCUT    max X(q) W(low)/X(q) W(high)/X(q)  e(spline) 
   2      9     8.867    62.315    0.23E-03    0.62E-04    0.11E-05
   2      9     8.867    52.185    0.23E-03    0.62E-04    0.11E-05
   0     10     8.867   103.837    0.15E-04    0.23E-04    0.98E-07
   0     10     8.867    59.728    0.12E-04    0.21E-04    0.89E-07
   1     10     8.867    13.958    0.50E-04    0.22E-04    0.14E-06
   1     10     8.867     8.441    0.36E-04    0.19E-04    0.98E-07
 Optimization of the real space projectors (new method)

 maximal supplied QI-value         = 12.47
 optimisation between [QCUT,QGAM] = [  8.86, 17.71] = [ 21.96, 87.83] Ry 
 Optimized for a Real-space Cutoff    1.90 Angstroem

   l    n(q)    QCUT    max X(q) W(low)/X(q) W(high)/X(q)  e(spline) 
   2      9     8.855    48.111    0.22E-03    0.80E-04    0.10E-05
   2      9     8.855    40.545    0.21E-03    0.76E-04    0.95E-06
   0     10     8.855   121.658    0.27E-04    0.12E-04    0.11E-06
   0     10     8.855    71.177    0.22E-04    0.11E-04    0.99E-07
   1     10     8.855    14.183    0.65E-04    0.10E-03    0.98E-07
   1     10     8.855     8.257    0.43E-04    0.73E-04    0.72E-07
 Optimization of the real space projectors (new method)

 maximal supplied QI-value         = 15.12
 optimisation between [QCUT,QGAM] = [  8.77, 17.69] = [ 21.53, 87.61] Ry 
 Optimized for a Real-space Cutoff    1.74 Angstroem

   l    n(q)    QCUT    max X(q) W(low)/X(q) W(high)/X(q)  e(spline) 
   0      9     8.768    12.107    0.28E-04    0.53E-06    0.29E-07
   0      9     8.768     9.948    0.36E-04    0.50E-05    0.64E-07
   1      9     8.768     3.563    0.14E-04    0.16E-04    0.88E-07
   1      9     8.768     4.524    0.21E-03    0.33E-03    0.19E-06
   2      8     8.768    87.261    0.19E-03    0.25E-03    0.24E-06
   2      8     8.768    70.950    0.19E-03    0.24E-03    0.24E-06
 Optimization of the real space projectors (new method)

 maximal supplied QI-value         = 15.68
 optimisation between [QCUT,QGAM] = [  8.78, 17.72] = [ 21.60, 87.97] Ry 
 Optimized for a Real-space Cutoff    1.96 Angstroem

   l    n(q)    QCUT    max X(q) W(low)/X(q) W(high)/X(q)  e(spline) 
   0     10     8.783    10.201    0.29E-04    0.25E-05    0.69E-07
   0     10     8.783     8.174    0.45E-04    0.57E-05    0.14E-06
   1     10     8.783     3.488    0.76E-05    0.24E-04    0.95E-07
   1     10     8.783     4.917    0.78E-04    0.14E-03    0.46E-06
   2      9     8.783   153.744    0.22E-03    0.34E-04    0.15E-05
   2      9     8.783   126.342    0.22E-03    0.35E-04    0.15E-05
  PAW_PBE Ta 17Jan2003                  :
 energy of atom  1       EATOM= -130.6506
 kinetic energy error for atom=    0.0121 (will be added to EATOM!!)
  PAW_PBE Hf 20Jan2003                  :
 energy of atom  2       EATOM=  -75.9011
 kinetic energy error for atom=    0.0071 (will be added to EATOM!!)
  PAW_PBE Zr_sv 04Jan2005               :
 energy of atom  3       EATOM=-1284.2219
 kinetic energy error for atom=    0.0483 (will be added to EATOM!!)
  PAW_PBE Nb_sv 25May2007               :
 energy of atom  4       EATOM=-1555.1913
 kinetic energy error for atom=    0.0655 (will be added to EATOM!!)
 
 
 POSCAR: generated by pypospack                  
  positions in direct lattice
  No initial velocities read in
 exchange correlation table for  LEXCH =        8
   RHO(1)=    0.500       N(1)  =     2000
   RHO(2)=  100.500       N(2)  =     4000
 


--------------------------------------------------------------------------------------------------------


 ion  position               nearest neighbor table
   1  0.252  0.170  0.512-   2 2.78   6 2.80   3 2.82  19 2.90  28 2.91  33 2.93  20 2.99  27 3.06
                            36 3.20   8 3.36  29 3.47  18 3.48  18 3.48
   2  0.037  0.326  0.344-   1 2.78   8 2.84  31 2.92  18 2.93  16 2.96  19 2.97  21 3.02  23 3.07
                            12 3.11   3 3.30  20 3.35  17 3.65  25 3.69
   3  0.015  0.333  0.668-   1 2.82   8 2.87   4 2.91  36 2.97  15 2.99  18 2.99  34 3.01  23 3.04
                            25 3.19   6 3.26   2 3.30  28 3.39  26 3.40
   4  0.261  0.498  0.830-  11 2.77   6 2.83   7 2.90   3 2.91  25 2.94  26 2.99  22 3.11  32 3.23
                             8 3.29  16 3.33  15 3.34  13 3.38  15 3.62
   5  0.251  0.826  0.153-   9 2.86  22 2.87  32 2.88  17 2.89  10 2.92  27 2.95  24 2.98  20 3.02
                            13 3.18  16 3.24  29 3.67
   6  0.485  0.334  0.666-   1 2.80  36 2.83   4 2.83   8 2.86  34 2.91  15 2.92  23 3.00  18 3.00
                             3 3.26  11 3.30   7 3.33  19 3.41
   7  0.485  0.323  0.993-  31 2.79  36 2.82  34 2.88   4 2.90  15 2.95  21 3.00  16 3.08  12 3.17
                            25 3.27  10 3.30   6 3.33  19 3.44  22 3.56  25 3.69
   8  0.251  0.500  0.506-  19 2.84   2 2.84   6 2.86  11 2.86   3 2.87  26 2.90   9 2.96  17 2.98
                             4 3.29   1 3.36  29 3.38  23 3.46  23 3.49  16 3.57
   9  0.479  0.669  0.326-  29 2.85   5 2.86  35 2.95  14 2.95  16 2.96   8 2.96  12 3.09  23 3.12
                            17 3.19  22 3.25  27 3.37  19 3.37  11 3.52
  10  0.506  0.999  0.003-  31 2.89  30 2.91   5 2.92  35 2.94  36 2.95  13 2.96  34 2.96  21 3.06
                            27 3.24   7 3.30  33 3.32  22 3.35  24 3.38  24 3.57
  11  0.491  0.657  0.672-   4 2.77  29 2.79   8 2.86  15 2.92  14 2.92  13 2.93  30 2.99  23 3.02
                             6 3.30  26 3.38  22 3.41   9 3.52  26 3.57
  12  0.763  0.493  0.172-  32 2.95  22 2.99  19 3.06   9 3.09   2 3.11  25 3.17   7 3.17  17 3.17
                            21 3.19  16 3.24  23 3.30  15 3.47  16 3.73
  13  0.259  0.830  0.840-  11 2.93  10 2.96  33 2.96  22 2.98  32 2.98  26 3.01  24 3.02  28 3.07
                             5 3.18  29 3.33  30 3.34  36 3.37   4 3.38
  14  0.717  0.831  0.502-  11 2.92  33 2.94   9 2.95  29 2.99  27 3.00  17 3.05  26 3.10  28 3.10
                            20 3.17  30 3.35  35 3.35  23 3.43  18 3.52
  15  0.740  0.490  0.830-   6 2.92  11 2.92   7 2.95   3 2.99  22 2.99  25 3.02  26 3.06  32 3.07
                            34 3.25   4 3.34  23 3.39  12 3.47   4 3.62
  16  0.228  0.508  0.156-  32 2.94   9 2.96   2 2.96  19 2.99  17 2.99  25 3.02  22 3.03   7 3.08
                            12 3.24   5 3.24   4 3.33   8 3.57  12 3.73
  17  0.021  0.684  0.343-   5 2.89  29 2.94   8 2.98  16 2.99  35 3.00  14 3.05  23 3.11  12 3.17
                            20 3.19   9 3.19  26 3.28   2 3.65
  18  0.752  0.176  0.497-   2 2.93   3 2.99   6 3.00  28 3.03  33 3.05  20 3.07  19 3.10  27 3.14
                            23 3.25  21 3.27  34 3.35   1 3.48   1 3.48  14 3.52
  19  0.464  0.338  0.331-   8 2.84  31 2.87   1 2.90   2 2.97  16 2.99  21 3.01  23 3.05  12 3.06
                            18 3.10   9 3.37   6 3.41   7 3.44  27 3.45
  20  0.019  0.998  0.336-  31 2.98   1 2.99  35 3.01   5 3.02  18 3.07  29 3.11  21 3.11  14 3.17
                            17 3.19  27 3.23   2 3.35  28 3.37  24 3.42  27 3.72
  21  0.751  0.180  0.175-   7 3.00  27 3.00  19 3.01  25 3.02   2 3.02  24 3.06  10 3.06  20 3.11
                            12 3.19  18 3.27  31 3.44
  22  0.522  0.671  0.007-  35 2.86  30 2.86   5 2.87  13 2.98  12 2.99  15 2.99  16 3.03   4 3.11
                            32 3.14   9 3.25  10 3.35  11 3.41   7 3.56
  23  0.749  0.495  0.497-   6 3.00  11 3.02  26 3.03   3 3.04  19 3.05   2 3.07  17 3.11   9 3.12
                            18 3.25  12 3.30  15 3.39  14 3.43   8 3.46   8 3.49
  24  0.992  0.001  0.000-  35 2.96  31 2.98   5 2.98  30 2.98  13 3.02  21 3.06  36 3.06  34 3.06
                            25 3.24  32 3.27  10 3.38  28 3.39  20 3.42  10 3.57
  25  0.015  0.317  0.982-  36 2.85  31 2.91  34 2.93   4 2.94  16 3.02  21 3.02  15 3.02  12 3.17
                             3 3.19  24 3.24   7 3.27   2 3.69   7 3.69
  26  0.005  0.666  0.665-   8 2.90   4 2.99  29 3.00  13 3.01  23 3.03  30 3.04  15 3.06  14 3.10
                            17 3.28  11 3.38   3 3.40  28 3.41  32 3.43  11 3.57
  27  0.484  1.000  0.322-  31 2.86  35 2.91  29 2.92   5 2.95  14 3.00  21 3.00   1 3.06  18 3.14
                            20 3.23  10 3.24   9 3.37  19 3.45  20 3.72
  28  0.999  0.000  0.667-   1 2.91  36 2.96  30 2.97  34 3.00  18 3.03  13 3.07  29 3.08  14 3.10
                            20 3.37  24 3.39   3 3.39  26 3.41  33 3.47
  29  0.287  0.831  0.513-  11 2.79   9 2.85  33 2.87  27 2.92  17 2.94  14 2.99  26 3.00  28 3.08
                            20 3.11  13 3.33   8 3.38   1 3.47   5 3.67
  30  0.739  0.835  0.832-  22 2.86  32 2.87  33 2.89  10 2.91  28 2.97  24 2.98  11 2.99  26 3.04
                            13 3.34  14 3.35
  31  0.257  0.167  0.158-   7 2.79  27 2.86  19 2.87  10 2.89  25 2.91   2 2.92  24 2.98  20 2.98
                            21 3.44
  32  0.974  0.680  0.002-  35 2.83  30 2.87   5 2.88  16 2.94  12 2.95  13 2.98  15 3.07  22 3.14
                             4 3.23  24 3.27  26 3.43
  33  0.500  0.007  0.676-  36 2.71  34 2.78  29 2.87  30 2.89   1 2.93  14 2.94  13 2.96  18 3.05
                            10 3.32  28 3.47
  34  0.734  0.170  0.826-  33 2.78   7 2.88   6 2.91  25 2.93  10 2.96  28 3.00   3 3.01  24 3.06
                            15 3.25  18 3.35
  35  0.748  0.835  0.173-  32 2.83  22 2.86  27 2.91  10 2.94   9 2.95  24 2.96  17 3.00  20 3.01
                            14 3.35
  36  0.267  0.160  0.826-  33 2.71   7 2.82   6 2.83  25 2.85  10 2.95  28 2.96   3 2.97  24 3.06
                             1 3.20  13 3.37
 
  LATTYP: Found a triclinic cell.
 ALAT       =    14.4077832569
 B/A-ratio  =     0.7053862682
 C/A-ratio  =     1.4967200172
 COS(alpha) =     0.0001276546
 COS(beta)  =     0.6697526008
 COS(gamma) =     0.7068081172
  
  Lattice vectors:
  
 A1 = (  -0.0067192536, -10.2021764133, -10.1734836541)
 A2 = (  -0.0282637645,  -0.0100414680, -10.1630082031)
 A3 = (   6.9928972917, -20.3991051244,  -0.0020452071)


Analysis of symmetry for initial positions (statically):
=====================================================================
 Subroutine PRICEL returns:
 Original cell was already a primitive cell.
 

 Routine SETGRP: Setting up the symmetry group for a 
 triclinic supercell.


 Subroutine GETGRP returns: Found  1 space group operations
 (whereof  1 operations were pure point group operations)
 out of a pool of  2 trial point group operations.


The static configuration has the point symmetry C_1 .


Analysis of symmetry for dynamics (positions and initial velocities):
=====================================================================
 Subroutine PRICEL returns:
 Original cell was already a primitive cell.
 

 Routine SETGRP: Setting up the symmetry group for a 
 triclinic supercell.


 Subroutine GETGRP returns: Found  1 space group operations
 (whereof  1 operations were pure point group operations)
 out of a pool of  2 trial point group operations.


The dynamic configuration has the point symmetry C_1 .


 Subroutine INISYM returns: Found  1 space group operations
 (whereof  1 operations are pure point group operations),
 and found     1 'primitive' translations

 
 
 KPOINTS: k-points                                

Automatic generation of k-mesh.
Space group operators:
 irot       det(A)        alpha          n_x          n_y          n_z        tau_x        tau_y        tau_z
    1     1.000000     0.000000     1.000000     0.000000     0.000000     0.000000     0.000000     0.000000
 
 Subroutine IBZKPT returns following result:
 ===========================================
 
 Found     14 irreducible k-points:
 
 Following reciprocal coordinates:
            Coordinates               Weight
  0.000000  0.000000  0.000000      1.000000
  0.333333 -0.000000  0.000000      2.000000
 -0.000000  0.333333  0.000000      2.000000
  0.333333  0.333333  0.000000      2.000000
 -0.333333  0.333333  0.000000      2.000000
  0.000000  0.000000  0.333333      2.000000
  0.333333  0.000000  0.333333      2.000000
 -0.333333  0.000000  0.333333      2.000000
  0.000000  0.333333  0.333333      2.000000
  0.333333  0.333333  0.333333      2.000000
 -0.333333  0.333333  0.333333      2.000000
  0.000000 -0.333333  0.333333      2.000000
  0.333333 -0.333333  0.333333      2.000000
 -0.333333 -0.333333  0.333333      2.000000
 
 Following cartesian coordinates:
            Coordinates               Weight
  0.000000  0.000000  0.000000      1.000000
  0.239257  0.000506 -0.000666      2.000000
  0.000349  0.163143 -0.000162      2.000000
  0.239606  0.163650 -0.000828      2.000000
 -0.238908  0.162637  0.000504      2.000000
 -0.000445 -0.000169  0.163611      2.000000
  0.238812  0.000337  0.162946      2.000000
 -0.239702 -0.000676  0.164277      2.000000
 -0.000097  0.162974  0.163449      2.000000
  0.239160  0.163481  0.162783      2.000000
 -0.239354  0.162468  0.164115      2.000000
 -0.000794 -0.163312  0.163774      2.000000
  0.238463 -0.162806  0.163108      2.000000
 -0.240051 -0.163819  0.164439      2.000000
 


--------------------------------------------------------------------------------------------------------




 Dimension of arrays:
   k-points           NKPTS =     14   k-points in BZ     NKDIM =     14   number of bands    NBANDS=    164
   number of dos      NEDOS =    301   number of ions     NIONS =     36
   non local maximal  LDIM  =      6   non local SUM 2l+1 LMDIM =     18
   total plane-waves  NPLWV = 144000
   max r-space proj   IRMAX =   6364   max aug-charges    IRDMAX=  13815
   dimension x,y,z NGX =    40 NGY =   60 NGZ =   60
   dimension x,y,z NGXF=    80 NGYF=  120 NGZF=  120
   support grid    NGXF=    80 NGYF=  120 NGZF=  120
   ions per type =              11  11   7   7
 NGX,Y,Z   is equivalent  to a cutoff of   9.57,  9.79,  9.81 a.u.
 NGXF,Y,Z  is equivalent  to a cutoff of  19.14, 19.57, 19.63 a.u.


 I would recommend the setting:
   dimension x,y,z NGX =    39 NGY =   58 NGZ =   57
 SYSTEM =  automatically generated by mexm         
 POSCAR =  generated by pypospack                  

 Startparameter for this run:
   NWRITE =      2    write-flag & timer
   PREC   = accura    normal or accurate (medium, high low for compatibility)
   ISTART =      0    job   : 0-new  1-cont  2-samecut
   ICHARG =      2    charge: 1-file 2-atom 10-const
   ISPIN  =      1    spin polarized calculation?
   LNONCOLLINEAR =      F non collinear calculations
   LSORBIT =      F    spin-orbit coupling
   INIWAV =      1    electr: 0-lowe 1-rand  2-diag
   LASPH  =      F    aspherical Exc in radial PAW
   METAGGA=      F    non-selfconsistent MetaGGA calc.

 Electronic Relaxation 1
   ENCUT  =  300.0 eV  22.05 Ry    4.70 a.u.   9.82 14.39 14.35*2*pi/ulx,y,z
   ENINI  =  300.0     initial cutoff
   ENAUG  =  461.3 eV  augmentation charge cutoff
   NELM   =     70;   NELMIN=  2; NELMDL= -5     # of ELM steps 
   EDIFF  = 0.1E-04   stopping-criterion for ELM
   LREAL  =      T    real-space projection
   NLSPLINE    = F    spline interpolate recip. space projectors
   LCOMPAT=      F    compatible to vasp.4.4
   GGA_COMPAT  = T    GGA compatible to vasp.4.4-vasp.4.6
   LMAXPAW     = -100 max onsite density
   LMAXMIX     =    2 max onsite mixed and CHGCAR
   VOSKOWN=      0    Vosko Wilk Nusair interpolation
   ROPT   =   -0.00025  -0.00025  -0.00025  -0.00025
 Ionic relaxation
   EDIFFG = -.1E-01   stopping-criterion for IOM
   NSW    =    300    number of steps for IOM
   NBLOCK =      1;   KBLOCK =    300    inner block; outer block 
   IBRION =      2    ionic relax: 0-MD 1-quasi-New 2-CG
   NFREE  =      1    steps in history (QN), initial steepest desc. (CG)
   ISIF   =      3    stress and relaxation
   IWAVPR =     11    prediction:  0-non 1-charg 2-wave 3-comb
   ISYM   =      1    0-nonsym 1-usesym 2-fastsym
   LCORR  =      T    Harris-Foulkes like correction to forces

   POTIM  = 0.1500    time-step for ionic-motion
   TEIN   =    0.0    initial temperature
   TEBEG  =    0.0;   TEEND  =   0.0 temperature during run
   SMASS  =  -3.00    Nose mass-parameter (am)
   estimated Nose-frequenzy (Omega)   =  0.10E-29 period in steps =****** mass=  -0.110E-26a.u.
   SCALEE = 1.0000    scale energy and forces
   NPACO  =    256;   APACO  = 16.0  distance and # of slots for P.C.
   PSTRESS=    0.0 pullay stress

  Mass of Ions in am
   POMASS = 180.95178.49 91.22 92.91
  Ionic Valenz
   ZVAL   =   5.00  4.00 12.00 13.00
  Atomic Wigner-Seitz radii
   RWIGS  =  -1.00 -1.00 -1.00 -1.00
  virtual crystal weights 
   VCA    =   1.00  1.00  1.00  1.00
   NELECT =     274.0000    total number of electrons
   NUPDOWN=      -1.0000    fix difference up-down

 DOS related values:
   EMIN   =  10.00;   EMAX   =-10.00  energy-range for DOS
   EFERMI =   0.00
   ISMEAR =     1;   SIGMA  =   0.15  broadening in eV -4-tet -1-fermi 0-gaus

 Electronic relaxation 2 (details)
   IALGO  =     68    algorithm
   LDIAG  =      T    sub-space diagonalisation (order eigenvalues)
   LSUBROT=      F    optimize rotation matrix (better conditioning)
   TURBO    =      0    0=normal 1=particle mesh
   IRESTART =      0    0=no restart 2=restart with 2 vectors
   NREBOOT  =      0    no. of reboots
   NMIN     =      0    reboot dimension
   EREF     =   0.00    reference energy to select bands
   IMIX   =      4    mixing-type and parameters
     AMIX     =   0.40;   BMIX     =  1.00
     AMIX_MAG =   1.60;   BMIX_MAG =  1.00
     AMIN     =   0.10
     WC   =   100.;   INIMIX=   1;  MIXPRE=   1;  MAXMIX= -45

 Intra band minimization:
   WEIMIN = 0.0010     energy-eigenvalue tresh-hold
   EBREAK =  0.15E-07  absolut break condition
   DEPER  =   0.30     relativ break condition  

   TIME   =   0.40     timestep for ELM

  volume/ion in A,a.u.               =      20.00       134.94
  Fermi-wavevector in a.u.,A,eV,Ry     =   1.186425  2.242017 19.151608  1.407603
  Thomas-Fermi vector in A             =   2.322598
 
 Write flags
   LWAVE  =      F    write WAVECAR
   LCHARG =      F    write CHGCAR
   LVTOT  =      F    write LOCPOT, total local potential
   LVHAR  =      F    write LOCPOT, Hartree potential only
   LELF   =      F    write electronic localiz. function (ELF)
   LORBIT =      0    0 simple, 1 ext, 2 COOP (PROOUT)


 Dipole corrections
   LMONO  =      F    monopole corrections only (constant potential shift)
   LDIPOL =      F    correct potential (dipole corrections)
   IDIPOL =      0    1-x, 2-y, 3-z, 4-all directions 
   EPSILON=  1.0000000 bulk dielectric constant

 Exchange correlation treatment:
   GGA     =    --    GGA type
   LEXCH   =     8    internal setting for exchange type
   VOSKOWN=      0    Vosko Wilk Nusair interpolation
   LHFCALC =     F    Hartree Fock is set to
   LHFONE  =     F    Hartree Fock one center treatment
   AEXX    =    0.0000 exact exchange contribution

 Linear response parameters
   LEPSILON=     F    determine dielectric tensor
   LRPA    =     F    only Hartree local field effects (RPA)
   LNABLA  =     F    use nabla operator in PAW spheres
   LVEL    =     F    velocity operator in full k-point grid
   LINTERFAST=   F  fast interpolation
   KINTER  =     0    interpolate to denser k-point grid
   CSHIFT  =0.1000    complex shift for real part using Kramers Kronig
   OMEGAMAX=  -1.0    maximum frequency
   DEG_THRESHOLD= 0.2000000E-02 threshold for treating states as degnerate
   RTIME   =    0.100 relaxation time in fs

 Orbital magnetization related:
   ORBITALMAG=     F  switch on orbital magnetization
   LCHIMAG   =     F  perturbation theory with respect to B field
   DQ        =  0.001000  dq finite difference perturbation B field



--------------------------------------------------------------------------------------------------------


 conjugate gradient relaxation of ions
 charge density and potential will be updated during run
 non-spin polarized calculation
 RMM-DIIS sequential band-by-band and
  variant of blocked Davidson during initial phase
 perform sub-space diagonalisation
    before iterative eigenvector-optimisation
 modified Broyden-mixing scheme, WC =      100.0
 initial mixing is a Kerker type mixing with AMIX =  0.4000 and BMIX =      1.0000
 Hartree-type preconditioning will be used
 using additional bands           27
 real space projection scheme for non local part
 use partial core corrections
 calculate Harris-corrections to forces 
   (improved forces if not selfconsistent)
 use gradient corrections 
 use of overlap-Matrix (Vanderbilt PP)
 Methfessel and Paxton  Order N= 1 SIGMA  =   0.15


--------------------------------------------------------------------------------------------------------


  energy-cutoff  :      300.00
  volume of cell :      719.87
      direct lattice vectors                 reciprocal lattice vectors
     6.949808270 -0.014835234  0.018905695     0.143890601  0.000304573 -0.000400467
    -0.021544511 10.192134945  0.010475451     0.000209705  0.098115414 -0.000097525
     0.028263764  0.010041468 10.163008203    -0.000267888 -0.000101698  0.098396909

  length of vectors
     6.949849818 10.192163099 10.163052465     0.143891481  0.098115687  0.098397326


 
 k-points in units of 2pi/SCALE and weight: k-points                                
   0.00000000  0.00000000  0.00000000       0.037
   0.23925697  0.00050643 -0.00066588       0.074
   0.00034869  0.16314337 -0.00016216       0.074
   0.23960567  0.16364980 -0.00082805       0.074
  -0.23890828  0.16263693  0.00050372       0.074
  -0.00044544 -0.00016910  0.16361143       0.074
   0.23881154  0.00033733  0.16294554       0.074
  -0.23970241 -0.00067554  0.16427731       0.074
  -0.00009675  0.16297427  0.16344927       0.074
   0.23916023  0.16348070  0.16278338       0.074
  -0.23935372  0.16246783  0.16411515       0.074
  -0.00079413 -0.16331247  0.16377359       0.074
   0.23846285 -0.16280603  0.16310771       0.074
  -0.24005110 -0.16381890  0.16443947       0.074
 
 k-points in reciprocal lattice and weights: k-points                                
   0.00000000  0.00000000  0.00000000       0.037
   0.33333333 -0.00000000  0.00000000       0.074
  -0.00000000  0.33333333  0.00000000       0.074
   0.33333333  0.33333333  0.00000000       0.074
  -0.33333333  0.33333333  0.00000000       0.074
   0.00000000  0.00000000  0.33333333       0.074
   0.33333333  0.00000000  0.33333333       0.074
  -0.33333333  0.00000000  0.33333333       0.074
   0.00000000  0.33333333  0.33333333       0.074
   0.33333333  0.33333333  0.33333333       0.074
  -0.33333333  0.33333333  0.33333333       0.074
   0.00000000 -0.33333333  0.33333333       0.074
   0.33333333 -0.33333333  0.33333333       0.074
  -0.33333333 -0.33333333  0.33333333       0.074
 
 position of ions in fractional coordinates (direct lattice) 
   0.25224100  0.17045100  0.51213900
   0.03709000  0.32633400  0.34383500
   0.01529600  0.33298700  0.66786300
   0.26053500  0.49809700  0.82954100
   0.25138500  0.82571100  0.15266300
   0.48465900  0.33354800  0.66607900
   0.48501700  0.32308100  0.99335200
   0.25115100  0.49992800  0.50638000
   0.47895400  0.66900800  0.32570700
   0.50607800  0.99947600  0.00349600
   0.49114700  0.65697000  0.67214600
   0.76263100  0.49333600  0.17164100
   0.25885700  0.82953500  0.83994200
   0.71730400  0.83143000  0.50234700
   0.74046600  0.48968100  0.83040400
   0.22757500  0.50789500  0.15591100
   0.02072300  0.68447300  0.34321300
   0.75226100  0.17600700  0.49676100
   0.46406300  0.33803100  0.33121200
   0.01919700  0.99766700  0.33571900
   0.75053100  0.18045400  0.17508100
   0.52168900  0.67097500  0.00676800
   0.74872000  0.49524900  0.49654600
   0.99208100  0.00065700  0.00012200
   0.01533000  0.31728000  0.98157000
   0.00470900  0.66634100  0.66508900
   0.48377400  0.99967900  0.32189100
   0.99939200  0.00039100  0.66679500
   0.28743600  0.83064000  0.51259700
   0.73877800  0.83547600  0.83150900
   0.25721700  0.16652900  0.15823700
   0.97402300  0.67956200  0.00175400
   0.50016700  0.00740700  0.67646000
   0.73411600  0.17039200  0.82600100
   0.74830700  0.83514400  0.17300000
   0.26709300  0.16018700  0.82622900
 
 position of ions in cartesian coordinates  (Angst):
   1.76382928  1.73866017  5.21142720
   0.26045575  3.32894253  3.49851763
   0.11800655  3.40032784  6.79127452
   1.82338299  5.08113655  8.44077537
   1.73360284  8.41356154  1.56491762
   3.37992690  3.39906461  6.78202322
   3.39189040  3.29566452 10.10799853
   1.74899280  5.09669255  5.15632925
   3.32343073  6.81478500  3.32622603
   3.49571066 10.17932159  0.05556759
   3.41822076  6.69538995  6.84719284
   5.29436177  5.01855680  1.76397488
   1.80487452  8.45932671  8.54992106
   4.98141074  8.46844969  5.12762742
   5.15901714  4.98824832  8.45853132
   1.57506690  5.17472382  1.59414766
   0.13897473  6.97938011  3.49563848
   5.23831807  1.78771534  5.06465189
   3.22722746  3.44169894  3.37842473
   0.12140990 10.17144301  3.42272890
   5.21710721  1.82983529  1.79542929
   3.61137399  6.83099633  0.08567490
   5.20682481  5.04152325  5.06574410
   6.89476203 -0.00802030  0.02000275
   0.12744778  3.24338956  9.97931744
   0.03716858  6.79804600  6.76637421
   3.34969680 10.18491863  3.29099905
   6.96442050 -0.00414549  6.79554135
   1.99421728  8.46687802  5.22366302
   5.13986711  8.51267376  8.47335189
   1.78849342  1.69505910  1.61477126
   6.75468184  6.91175536  0.04335922
   3.49502448  0.07486570  6.88440213
   5.12164033  1.73406174  8.41031884
   5.18748704  8.50253621  1.78109619
   1.87614633  1.63698169  8.40369971
 


--------------------------------------------------------------------------------------------------------


 k-point  1 :   0.0000 0.0000 0.0000  plane waves:    8543
 k-point  2 :   0.3333-0.0000 0.0000  plane waves:    8499
 k-point  3 :  -0.0000 0.3333 0.0000  plane waves:    8499
 k-point  4 :   0.3333 0.3333 0.0000  plane waves:    8494
 k-point  5 :  -0.3333 0.3333 0.0000  plane waves:    8498
 k-point  6 :   0.0000 0.0000 0.3333  plane waves:    8499
 k-point  7 :   0.3333 0.0000 0.3333  plane waves:    8492
 k-point  8 :  -0.3333 0.0000 0.3333  plane waves:    8487
 k-point  9 :   0.0000 0.3333 0.3333  plane waves:    8474
 k-point 10 :   0.3333 0.3333 0.3333  plane waves:    8492
 k-point 11 :  -0.3333 0.3333 0.3333  plane waves:    8488
 k-point 12 :   0.0000-0.3333 0.3333  plane waves:    8476
 k-point 13 :   0.3333-0.3333 0.3333  plane waves:    8494
 k-point 14 :  -0.3333-0.3333 0.3333  plane waves:    8495

 maximum and minimum number of plane-waves per node :      1730     1674

 maximum number of plane-waves:      8543
 maximum index in each direction: 
   IXMAX=   10   IYMAX=   14   IZMAX=   14
   IXMIN=  -10   IYMIN=  -14   IZMIN=  -14

 WARNING: aliasing errors must be expected set NGX to  42 to avoid them
 NGY is ok and might be reduce to  58
 NGZ is ok and might be reduce to  58
 aliasing errors are usually negligible using standard VASP settings
 and one can safely disregard these warnings

 real space projection operators:
  total allocation   :      27606.23 KBytes
  max/ min on nodes  :       5567.34       5461.59


 parallel 3D FFT for wavefunctions:
    minimum data exchange during FFTs selected (reduces bandwidth)
 parallel 3D FFT for charge:
    minimum data exchange during FFTs selected (reduces bandwidth)


 total amount of memory used by VASP on root node    65985. kBytes
========================================================================

   base      :      30000. kBytes
   nonlr-proj:      10605. kBytes
   fftplans  :       2814. kBytes
   grid      :       5360. kBytes
   one-center:        124. kBytes
   wavefun   :      17082. kBytes
 
     INWAV:  cpu time    0.0000: real time    0.0000
 Broyden mixing: mesh for mixing (old mesh)
   NGX = 19   NGY = 29   NGZ = 29
  (NGX  = 80   NGY  =120   NGZ  =120)
  gives a total of  15979 points

 initial charge density was supplied:
 charge density of overlapping atoms calculated
 number of electron     274.0000000 magnetization 
 keeping initial charge density in first step


--------------------------------------------------------------------------------------------------------


 Maximum index for non-local projection operator         1233
 Maximum index for augmentation-charges          689 (set IRDMAX)


--------------------------------------------------------------------------------------------------------


 First call to EWALD:  gamma=   0.198
 Maximum number of real-space cells 3x 2x 2
 Maximum number of reciprocal cells 2x 3x 3

 FEWALD executed in parallel
    FEWALD:  cpu time    0.0959: real time    0.0966


----------------------------------------- Iteration    1(   1)  ---------------------------------------


    POTLOK:  cpu time    0.0484: real time    0.0757
    SETDIJ:  cpu time    0.0080: real time    0.0081
     EDDAV:  cpu time    1.0252: real time    1.0388
       DOS:  cpu time    0.0014: real time    0.0014
    --------------------------------------------
      LOOP:  cpu time    1.0908: real time    1.4881

 eigenvalue-minimisations  :  5056
 total energy-change (2. order) : 0.1581868E+04  (-0.1008808E+05)
 number of electron     274.0000000 magnetization 
 augmentation part      274.0000000 magnetization 

 Free energy of the ion-electron system (eV)
  ---------------------------------------------------
  alpha Z        PSCENC =      1410.43267857
  Ewald energy   TEWEN  =    -16537.99727107
  -Hartree energ DENC   =     -6637.24336759
  -exchange      EXHF   =         0.00000000
  -V(xc)+E(xc)   XCENC  =      -569.59537885
  PAW double counting   =     19106.14970124   -17380.10799147
  entropy T*S    EENTRO =        -0.00656891
  eigenvalues    EBANDS =        43.28302399
  atomic energy  EATOM  =     22146.95360292
  Solvation  Ediel_sol  =         0.00000000
  ---------------------------------------------------
  free energy    TOTEN  =      1581.86842882 eV

  energy without entropy =     1581.87499773  energy(sigma->0) =     1581.87061845


--------------------------------------------------------------------------------------------------------




----------------------------------------- Iteration    1(   2)  ---------------------------------------


     EDDAV:  cpu time    0.9616: real time    1.0085
       DOS:  cpu time    0.0011: real time    0.0011
    --------------------------------------------
      LOOP:  cpu time    0.9638: real time    1.1715

 eigenvalue-minimisations  :  5256
 total energy-change (2. order) :-0.1709956E+04  (-0.1653873E+04)
 number of electron     274.0000000 magnetization 
 augmentation part      274.0000000 magnetization 

 Free energy of the ion-electron system (eV)
  ---------------------------------------------------
  alpha Z        PSCENC =      1410.43267857
  Ewald energy   TEWEN  =    -16537.99727107
  -Hartree energ DENC   =     -6637.24336759
  -exchange      EXHF   =         0.00000000
  -V(xc)+E(xc)   XCENC  =      -569.59537885
  PAW double counting   =     19106.14970124   -17380.10799147
  entropy T*S    EENTRO =        -0.00175681
  eigenvalues    EBANDS =     -1666.67744545
  atomic energy  EATOM  =     22146.95360292
  Solvation  Ediel_sol  =         0.00000000
  ---------------------------------------------------
  free energy    TOTEN  =      -128.08722852 eV

  energy without entropy =     -128.08547171  energy(sigma->0) =     -128.08664292


--------------------------------------------------------------------------------------------------------




----------------------------------------- Iteration    1(   3)  ---------------------------------------


     EDDAV:  cpu time    1.4175: real time    1.5825
       DOS:  cpu time    0.0017: real time    0.0019
    --------------------------------------------
      LOOP:  cpu time    1.4304: real time    1.6636

 eigenvalue-minimisations  :  7856
 total energy-change (2. order) :-0.2247503E+03  (-0.2130674E+03)
 number of electron     274.0000000 magnetization 
 augmentation part      274.0000000 magnetization 

 Free energy of the ion-electron system (eV)
  ---------------------------------------------------
  alpha Z        PSCENC =      1410.43267857
  Ewald energy   TEWEN  =    -16537.99727107
  -Hartree energ DENC   =     -6637.24336759
  -exchange      EXHF   =         0.00000000
  -V(xc)+E(xc)   XCENC  =      -569.59537885
  PAW double counting   =     19106.14970124   -17380.10799147
  entropy T*S    EENTRO =        -0.00977873
  eigenvalues    EBANDS =     -1891.41975410
  atomic energy  EATOM  =     22146.95360292
  Solvation  Ediel_sol  =         0.00000000
  ---------------------------------------------------
  free energy    TOTEN  =      -352.83755909 eV

  energy without entropy =     -352.82778036  energy(sigma->0) =     -352.83429952


--------------------------------------------------------------------------------------------------------




----------------------------------------- Iteration    1(   4)  ---------------------------------------


     EDDAV:  cpu time    1.4068: real time    1.5090
       DOS:  cpu time    0.0014: real time    0.0014
    --------------------------------------------
      LOOP:  cpu time    1.4093: real time    1.5733

 eigenvalue-minimisations  :  7752
 total energy-change (2. order) :-0.2656206E+02  (-0.2509399E+02)
 number of electron     274.0000000 magnetization 
 augmentation part      274.0000000 magnetization 

 Free energy of the ion-electron system (eV)
  ---------------------------------------------------
  alpha Z        PSCENC =      1410.43267857
  Ewald energy   TEWEN  =    -16537.99727107
  -Hartree energ DENC   =     -6637.24336759
  -exchange      EXHF   =         0.00000000
  -V(xc)+E(xc)   XCENC  =      -569.59537885
  PAW double counting   =     19106.14970124   -17380.10799147
  entropy T*S    EENTRO =         0.00472807
  eigenvalues    EBANDS =     -1917.99632493
  atomic energy  EATOM  =     22146.95360292
  Solvation  Ediel_sol  =         0.00000000
  ---------------------------------------------------
  free energy    TOTEN  =      -379.39962312 eV

  energy without entropy =     -379.40435119  energy(sigma->0) =     -379.40119914


--------------------------------------------------------------------------------------------------------




----------------------------------------- Iteration    1(   5)  ---------------------------------------


     EDDAV:  cpu time    1.2289: real time    1.2366
       DOS:  cpu time    0.0013: real time    0.0013
    CHARGE:  cpu time    0.0291: real time    0.0293
    MIXING:  cpu time    0.0014: real time    0.0014
    --------------------------------------------
      LOOP:  cpu time    1.2611: real time    1.3069

 eigenvalue-minimisations  :  7424
 total energy-change (2. order) :-0.2808253E+01  (-0.2718288E+01)
 number of electron     273.9999998 magnetization 
 augmentation part       15.6309640 magnetization 

 Broyden mixing:
  rms(total) = 0.66831E+01    rms(broyden)= 0.66827E+01
  rms(prec ) = 0.69396E+01
  weight for this iteration     100.00

 Free energy of the ion-electron system (eV)
  ---------------------------------------------------
  alpha Z        PSCENC =      1410.43267857
  Ewald energy   TEWEN  =    -16537.99727107
  -Hartree energ DENC   =     -6637.24336759
  -exchange      EXHF   =         0.00000000
  -V(xc)+E(xc)   XCENC  =      -569.59537885
  PAW double counting   =     19106.14970124   -17380.10799147
  entropy T*S    EENTRO =         0.00541999
  eigenvalues    EBANDS =     -1920.80526951
  atomic energy  EATOM  =     22146.95360292
  Solvation  Ediel_sol  =         0.00000000
  ---------------------------------------------------
  free energy    TOTEN  =      -382.20787578 eV

  energy without entropy =     -382.21329577  energy(sigma->0) =     -382.20968245


--------------------------------------------------------------------------------------------------------




----------------------------------------- Iteration    1(   6)  ---------------------------------------


    POTLOK:  cpu time    0.0308: real time    0.0310
    SETDIJ:  cpu time    0.0038: real time    0.0038
    EDDIAG:  cpu time    0.0819: real time    0.0822
  RMM-DIIS:  cpu time    0.6811: real time    0.6864
    ORTHCH:  cpu time    0.0112: real time    0.0113
       DOS:  cpu time    0.0008: real time    0.0008
    CHARGE:  cpu time    0.0279: real time    0.0279
    MIXING:  cpu time    0.0017: real time    0.0179
    --------------------------------------------
      LOOP:  cpu time    0.8398: real time    0.9023

 eigenvalue-minimisations  :  6502
 total energy-change (2. order) : 0.1030560E+02  (-0.2239912E+01)
 number of electron     273.9999998 magnetization 
 augmentation part       16.2463346 magnetization 

 Broyden mixing:
  rms(total) = 0.32252E+01    rms(broyden)= 0.32251E+01
  rms(prec ) = 0.34311E+01
  weight for this iteration     100.00

 eigenvalues of (default mixing * dielectric matrix)
  average eigenvalue GAMMA=   1.8632
  1.8632

 Free energy of the ion-electron system (eV)
  ---------------------------------------------------
  alpha Z        PSCENC =      1410.43267857
  Ewald energy   TEWEN  =    -16537.99727107
  -Hartree energ DENC   =     -6496.81568811
  -exchange      EXHF   =         0.00000000
  -V(xc)+E(xc)   XCENC  =      -570.74552891
  PAW double counting   =     24457.94404329   -22739.49751494
  entropy T*S    EENTRO =         0.00460097
  eigenvalues    EBANDS =     -2042.18120179
  atomic energy  EATOM  =     22146.95360292
  Solvation  Ediel_sol  =         0.00000000
  ---------------------------------------------------
  free energy    TOTEN  =      -371.90227908 eV

  energy without entropy =     -371.90688005  energy(sigma->0) =     -371.90381273


--------------------------------------------------------------------------------------------------------




----------------------------------------- Iteration    1(   7)  ---------------------------------------


    POTLOK:  cpu time    0.0289: real time    0.0291
    SETDIJ:  cpu time    0.0037: real time    0.0037
    EDDIAG:  cpu time    0.0720: real time    0.0722
  RMM-DIIS:  cpu time    0.7019: real time    0.7292
    ORTHCH:  cpu time    0.0104: real time    0.0105
       DOS:  cpu time    0.0009: real time    0.0009
    CHARGE:  cpu time    0.0279: real time    0.0280
    MIXING:  cpu time    0.0012: real time    0.0012
    --------------------------------------------
      LOOP:  cpu time    0.8477: real time    0.9171

 eigenvalue-minimisations  :  6644
 total energy-change (2. order) : 0.8620722E+00  (-0.2425742E+01)
 number of electron     273.9999998 magnetization 
 augmentation part       16.7791322 magnetization 

 Broyden mixing:
  rms(total) = 0.87384E+00    rms(broyden)= 0.87361E+00
  rms(prec ) = 0.22487E+01
  weight for this iteration     100.00

 eigenvalues of (default mixing * dielectric matrix)
  average eigenvalue GAMMA=   1.2604
  1.8869  0.6339

 Free energy of the ion-electron system (eV)
  ---------------------------------------------------
  alpha Z        PSCENC =      1410.43267857
  Ewald energy   TEWEN  =    -16537.99727107
  -Hartree energ DENC   =     -6429.98346523
  -exchange      EXHF   =         0.00000000
  -V(xc)+E(xc)   XCENC  =      -568.00997442
  PAW double counting   =     30219.28052642   -28497.24738689
  entropy T*S    EENTRO =         0.02001759
  eigenvalues    EBANDS =     -2114.48893474
  atomic energy  EATOM  =     22146.95360292
  Solvation  Ediel_sol  =         0.00000000
  ---------------------------------------------------
  free energy    TOTEN  =      -371.04020687 eV

  energy without entropy =     -371.06022445  energy(sigma->0) =     -371.04687940


--------------------------------------------------------------------------------------------------------




----------------------------------------- Iteration    1(   8)  ---------------------------------------


    POTLOK:  cpu time    0.0287: real time    0.0289
    SETDIJ:  cpu time    0.0037: real time    0.0037
    EDDIAG:  cpu time    0.0683: real time    0.0689
  RMM-DIIS:  cpu time    0.7387: real time    0.7466
    ORTHCH:  cpu time    0.0105: real time    0.0105
       DOS:  cpu time    0.0011: real time    0.0011
    CHARGE:  cpu time    0.0282: real time    0.0284
    MIXING:  cpu time    0.0012: real time    0.0012
    --------------------------------------------
      LOOP:  cpu time    0.8811: real time    0.9319

 eigenvalue-minimisations  :  7219
 total energy-change (2. order) : 0.3420687E+01  (-0.5189795E+00)
 number of electron     273.9999999 magnetization 
 augmentation part       16.6236904 magnetization 

 Broyden mixing:
  rms(total) = 0.39373E+00    rms(broyden)= 0.39345E+00
  rms(prec ) = 0.69598E+00
  weight for this iteration     100.00

 eigenvalues of (default mixing * dielectric matrix)
  average eigenvalue GAMMA=   1.1719
  1.8156  1.2473  0.4529

 Free energy of the ion-electron system (eV)
  ---------------------------------------------------
  alpha Z        PSCENC =      1410.43267857
  Ewald energy   TEWEN  =    -16537.99727107
  -Hartree energ DENC   =     -6418.63360513
  -exchange      EXHF   =         0.00000000
  -V(xc)+E(xc)   XCENC  =      -567.52571721
  PAW double counting   =     31045.69710539   -29321.30451410
  entropy T*S    EENTRO =         0.02040986
  eigenvalues    EBANDS =     -2125.26220904
  atomic energy  EATOM  =     22146.95360292
  Solvation  Ediel_sol  =         0.00000000
  ---------------------------------------------------
  free energy    TOTEN  =      -367.61951981 eV

  energy without entropy =     -367.63992967  energy(sigma->0) =     -367.62632310


--------------------------------------------------------------------------------------------------------




----------------------------------------- Iteration    1(   9)  ---------------------------------------


    POTLOK:  cpu time    0.0291: real time    0.0293
    SETDIJ:  cpu time    0.0038: real time    0.0038
    EDDIAG:  cpu time    0.0695: real time    0.0700
  RMM-DIIS:  cpu time    0.7814: real time    0.7884
    ORTHCH:  cpu time    0.0116: real time    0.0116
       DOS:  cpu time    0.0079: real time    0.0080
    CHARGE:  cpu time    0.0476: real time    0.0480
    MIXING:  cpu time    0.0015: real time    0.0016
    --------------------------------------------
      LOOP:  cpu time    0.9532: real time    0.9995

 eigenvalue-minimisations  :  7169
 total energy-change (2. order) : 0.1744551E+00  (-0.1838255E+00)
 number of electron     273.9999998 magnetization 
 augmentation part       16.5000318 magnetization 

 Broyden mixing:
  rms(total) = 0.26192E+00    rms(broyden)= 0.26186E+00
  rms(prec ) = 0.33845E+00
  weight for this iteration     100.00

 eigenvalues of (default mixing * dielectric matrix)
  average eigenvalue GAMMA=   1.1647
  1.8719  1.8719  0.5080  0.4071

 Free energy of the ion-electron system (eV)
  ---------------------------------------------------
  alpha Z        PSCENC =      1410.43267857
  Ewald energy   TEWEN  =    -16537.99727107
  -Hartree energ DENC   =     -6421.94849141
  -exchange      EXHF   =         0.00000000
  -V(xc)+E(xc)   XCENC  =      -567.11993884
  PAW double counting   =     31186.68435757   -29459.51666318
  entropy T*S    EENTRO =         0.01700655
  eigenvalues    EBANDS =     -2124.95034580
  atomic energy  EATOM  =     22146.95360292
  Solvation  Ediel_sol  =         0.00000000
  ---------------------------------------------------
  free energy    TOTEN  =      -367.44506470 eV

  energy without entropy =     -367.46207125  energy(sigma->0) =     -367.45073355


--------------------------------------------------------------------------------------------------------




----------------------------------------- Iteration    1(  10)  ---------------------------------------


    POTLOK:  cpu time    0.0285: real time    0.0295
    SETDIJ:  cpu time    0.0036: real time    0.0036
    EDDIAG:  cpu time    0.1104: real time    0.1110
  RMM-DIIS:  cpu time    0.7614: real time    0.7683
    ORTHCH:  cpu time    0.0104: real time    0.0104
       DOS:  cpu time    0.0015: real time    0.0015
    CHARGE:  cpu time    0.0289: real time    0.0289
    MIXING:  cpu time    0.0014: real time    0.0014
    --------------------------------------------
      LOOP:  cpu time    0.9467: real time    0.9963

 eigenvalue-minimisations  :  7135
 total energy-change (2. order) : 0.3473579E-01  (-0.3528107E-01)
 number of electron     273.9999999 magnetization 
 augmentation part       16.4266888 magnetization 

 Broyden mixing:
  rms(total) = 0.11297E+00    rms(broyden)= 0.11292E+00
  rms(prec ) = 0.19648E+00
  weight for this iteration     100.00

 eigenvalues of (default mixing * dielectric matrix)
  average eigenvalue GAMMA=   1.1463
  1.9736  1.9736  0.8738  0.4927  0.4178

 Free energy of the ion-electron system (eV)
  ---------------------------------------------------
  alpha Z        PSCENC =      1410.43267857
  Ewald energy   TEWEN  =    -16537.99727107
  -Hartree energ DENC   =     -6434.91504301
  -exchange      EXHF   =         0.00000000
  -V(xc)+E(xc)   XCENC  =      -566.06922236
  PAW double counting   =     31453.30756837   -29719.42102463
  entropy T*S    EENTRO =         0.01937656
  eigenvalues    EBANDS =     -2119.72099424
  atomic energy  EATOM  =     22146.95360292
  Solvation  Ediel_sol  =         0.00000000
  ---------------------------------------------------
  free energy    TOTEN  =      -367.41032890 eV

  energy without entropy =     -367.42970546  energy(sigma->0) =     -367.41678775


--------------------------------------------------------------------------------------------------------




----------------------------------------- Iteration    1(  11)  ---------------------------------------


    POTLOK:  cpu time    0.0291: real time    0.0292
    SETDIJ:  cpu time    0.0037: real time    0.0038
    EDDIAG:  cpu time    0.0691: real time    0.0694
  RMM-DIIS:  cpu time    0.8167: real time    0.8237
    ORTHCH:  cpu time    0.0112: real time    0.0113
       DOS:  cpu time    0.0029: real time    0.0029
    CHARGE:  cpu time    0.0379: real time    0.0449
    MIXING:  cpu time    0.0014: real time    0.0020
    --------------------------------------------
      LOOP:  cpu time    0.9726: real time    1.0231

 eigenvalue-minimisations  :  7142
 total energy-change (2. order) : 0.1795249E-01  (-0.1094712E-01)
 number of electron     273.9999998 magnetization 
 augmentation part       16.4074064 magnetization 

 Broyden mixing:
  rms(total) = 0.56808E-01    rms(broyden)= 0.56765E-01
  rms(prec ) = 0.10247E+00
  weight for this iteration     100.00

 eigenvalues of (default mixing * dielectric matrix)
  average eigenvalue GAMMA=   1.1213
  2.2158  1.8395  1.2661  0.5044  0.5044  0.3979

 Free energy of the ion-electron system (eV)
  ---------------------------------------------------
  alpha Z        PSCENC =      1410.43267857
  Ewald energy   TEWEN  =    -16537.99727107
  -Hartree energ DENC   =     -6438.68682241
  -exchange      EXHF   =         0.00000000
  -V(xc)+E(xc)   XCENC  =      -565.75851482
  PAW double counting   =     31604.68955270   -29868.46880862
  entropy T*S    EENTRO =         0.02006404
  eigenvalues    EBANDS =     -2118.57685771
  atomic energy  EATOM  =     22146.95360292
  Solvation  Ediel_sol  =         0.00000000
  ---------------------------------------------------
  free energy    TOTEN  =      -367.39237641 eV

  energy without entropy =     -367.41244044  energy(sigma->0) =     -367.39906442


--------------------------------------------------------------------------------------------------------




----------------------------------------- Iteration    1(  12)  ---------------------------------------


    POTLOK:  cpu time    0.0397: real time    0.0841
    SETDIJ:  cpu time    0.0039: real time    0.0041
    EDDIAG:  cpu time    0.0697: real time    0.1151
  RMM-DIIS:  cpu time    0.6606: real time    0.8670
    ORTHCH:  cpu time    0.0107: real time    0.0138
       DOS:  cpu time    0.0008: real time    0.0008
    CHARGE:  cpu time    0.0447: real time    0.0506
    MIXING:  cpu time    0.0015: real time    0.0022
    --------------------------------------------
      LOOP:  cpu time    0.8326: real time    1.1962

 eigenvalue-minimisations  :  7242
 total energy-change (2. order) : 0.2877889E-04  (-0.4698813E-02)
 number of electron     273.9999998 magnetization 
 augmentation part       16.4101991 magnetization 

 Broyden mixing:
  rms(total) = 0.37471E-01    rms(broyden)= 0.37459E-01
  rms(prec ) = 0.66819E-01
  weight for this iteration     100.00

 eigenvalues of (default mixing * dielectric matrix)
  average eigenvalue GAMMA=   1.0641
  2.2472  1.8786  1.3893  0.5642  0.5642  0.4320  0.3733

 Free energy of the ion-electron system (eV)
  ---------------------------------------------------
  alpha Z        PSCENC =      1410.43267857
  Ewald energy   TEWEN  =    -16537.99727107
  -Hartree energ DENC   =     -6438.78896901
  -exchange      EXHF   =         0.00000000
  -V(xc)+E(xc)   XCENC  =      -565.66369936
  PAW double counting   =     31722.53474700   -29985.02965048
  entropy T*S    EENTRO =         0.02082103
  eigenvalues    EBANDS =     -2119.85460721
  atomic energy  EATOM  =     22146.95360292
  Solvation  Ediel_sol  =         0.00000000
  ---------------------------------------------------
  free energy    TOTEN  =      -367.39234763 eV

  energy without entropy =     -367.41316866  energy(sigma->0) =     -367.39928797


--------------------------------------------------------------------------------------------------------




----------------------------------------- Iteration    1(  13)  ---------------------------------------


    POTLOK:  cpu time    0.0283: real time    0.0300
    SETDIJ:  cpu time    0.0037: real time    0.0038
    EDDIAG:  cpu time    0.0697: real time    0.0770
  RMM-DIIS:  cpu time    0.8070: real time    0.8618
    ORTHCH:  cpu time    0.0105: real time    0.0130
       DOS:  cpu time    0.0008: real time    0.0010
    CHARGE:  cpu time    0.0309: real time    0.0347
    MIXING:  cpu time    0.0015: real time    0.0016
    --------------------------------------------
      LOOP:  cpu time    0.9531: real time    1.0661

 eigenvalue-minimisations  :  7292
 total energy-change (2. order) : 0.1443533E-02  (-0.1596146E-02)
 number of electron     273.9999999 magnetization 
 augmentation part       16.4082046 magnetization 

 Broyden mixing:
  rms(total) = 0.20889E-01    rms(broyden)= 0.20881E-01
  rms(prec ) = 0.25909E-01
  weight for this iteration     100.00

 eigenvalues of (default mixing * dielectric matrix)
  average eigenvalue GAMMA=   1.0991
  2.2967  2.0618  1.6611  0.9274  0.5632  0.4997  0.4073  0.3756

 Free energy of the ion-electron system (eV)
  ---------------------------------------------------
  alpha Z        PSCENC =      1410.43267857
  Ewald energy   TEWEN  =    -16537.99727107
  -Hartree energ DENC   =     -6439.46585712
  -exchange      EXHF   =         0.00000000
  -V(xc)+E(xc)   XCENC  =      -565.63072423
  PAW double counting   =     31771.89846888   -30033.78805470
  entropy T*S    EENTRO =         0.02081949
  eigenvalues    EBANDS =     -2119.81456683
  atomic energy  EATOM  =     22146.95360292
  Solvation  Ediel_sol  =         0.00000000
  ---------------------------------------------------
  free energy    TOTEN  =      -367.39090409 eV

  energy without entropy =     -367.41172359  energy(sigma->0) =     -367.39784393


--------------------------------------------------------------------------------------------------------




----------------------------------------- Iteration    1(  14)  ---------------------------------------


    POTLOK:  cpu time    0.0273: real time    0.0359
    SETDIJ:  cpu time    0.0058: real time    0.0079
    EDDIAG:  cpu time    0.0787: real time    0.1028
  RMM-DIIS:  cpu time    0.7466: real time    0.8129
    ORTHCH:  cpu time    0.0104: real time    0.0104
       DOS:  cpu time    0.0029: real time    0.0029
    CHARGE:  cpu time    0.0279: real time    0.0287
    MIXING:  cpu time    0.0016: real time    0.0016
    --------------------------------------------
      LOOP:  cpu time    0.9018: real time    1.0431

 eigenvalue-minimisations  :  7265
 total energy-change (2. order) :-0.5062912E-03  (-0.7958838E-03)
 number of electron     273.9999999 magnetization 
 augmentation part       16.4074975 magnetization 

 Broyden mixing:
  rms(total) = 0.10661E-01    rms(broyden)= 0.10657E-01
  rms(prec ) = 0.16584E-01
  weight for this iteration     100.00

 eigenvalues of (default mixing * dielectric matrix)
  average eigenvalue GAMMA=   1.1001
  2.5443  2.1381  1.6052  1.1740  0.5917  0.5917  0.4852  0.4074  0.3631

 Free energy of the ion-electron system (eV)
  ---------------------------------------------------
  alpha Z        PSCENC =      1410.43267857
  Ewald energy   TEWEN  =    -16537.99727107
  -Hartree energ DENC   =     -6439.77284322
  -exchange      EXHF   =         0.00000000
  -V(xc)+E(xc)   XCENC  =      -565.62570306
  PAW double counting   =     31807.30523414   -30068.71951670
  entropy T*S    EENTRO =         0.02091151
  eigenvalues    EBANDS =     -2119.98850346
  atomic energy  EATOM  =     22146.95360292
  Solvation  Ediel_sol  =         0.00000000
  ---------------------------------------------------
  free energy    TOTEN  =      -367.39141039 eV

  energy without entropy =     -367.41232189  energy(sigma->0) =     -367.39838089


--------------------------------------------------------------------------------------------------------




----------------------------------------- Iteration    1(  15)  ---------------------------------------


    POTLOK:  cpu time    0.0284: real time    0.0286
    SETDIJ:  cpu time    0.0037: real time    0.0037
    EDDIAG:  cpu time    0.0732: real time    0.0737
  RMM-DIIS:  cpu time    0.7443: real time    0.7525
    ORTHCH:  cpu time    0.0104: real time    0.0104
       DOS:  cpu time    0.0011: real time    0.0011
    CHARGE:  cpu time    0.0285: real time    0.0287
    MIXING:  cpu time    0.0016: real time    0.0016
    --------------------------------------------
      LOOP:  cpu time    0.8918: real time    0.9404

 eigenvalue-minimisations  :  7236
 total energy-change (2. order) :-0.1862138E-03  (-0.3480006E-03)
 number of electron     273.9999999 magnetization 
 augmentation part       16.4066395 magnetization 

 Broyden mixing:
  rms(total) = 0.45301E-02    rms(broyden)= 0.45269E-02
  rms(prec ) = 0.86525E-02
  weight for this iteration     100.00

 eigenvalues of (default mixing * dielectric matrix)
  average eigenvalue GAMMA=   1.0784
  2.6323  2.0935  1.4698  1.4698  0.6984  0.6984  0.4783  0.4783  0.4006  0.3646

 Free energy of the ion-electron system (eV)
  ---------------------------------------------------
  alpha Z        PSCENC =      1410.43267857
  Ewald energy   TEWEN  =    -16537.99727107
  -Hartree energ DENC   =     -6440.06095704
  -exchange      EXHF   =         0.00000000
  -V(xc)+E(xc)   XCENC  =      -565.62292641
  PAW double counting   =     31824.93840750   -30086.06848683
  entropy T*S    EENTRO =         0.02071632
  eigenvalues    EBANDS =     -2119.98736056
  atomic energy  EATOM  =     22146.95360292
  Solvation  Ediel_sol  =         0.00000000
  ---------------------------------------------------
  free energy    TOTEN  =      -367.39159660 eV

  energy without entropy =     -367.41231292  energy(sigma->0) =     -367.39850204


--------------------------------------------------------------------------------------------------------




----------------------------------------- Iteration    1(  16)  ---------------------------------------


    POTLOK:  cpu time    0.0287: real time    0.0289
    SETDIJ:  cpu time    0.0138: real time    0.0138
    EDDIAG:  cpu time    0.0761: real time    0.0766
  RMM-DIIS:  cpu time    0.6463: real time    0.6517
    ORTHCH:  cpu time    0.0105: real time    0.0106
       DOS:  cpu time    0.0021: real time    0.0021
    CHARGE:  cpu time    0.0285: real time    0.0286
    MIXING:  cpu time    0.0017: real time    0.0017
    --------------------------------------------
      LOOP:  cpu time    0.8082: real time    0.8517

 eigenvalue-minimisations  :  6137
 total energy-change (2. order) :-0.1033223E-03  (-0.1576200E-03)
 number of electron     273.9999999 magnetization 
 augmentation part       16.4063392 magnetization 

 Broyden mixing:
  rms(total) = 0.27066E-02    rms(broyden)= 0.27053E-02
  rms(prec ) = 0.54179E-02
  weight for this iteration     100.00

 eigenvalues of (default mixing * dielectric matrix)
  average eigenvalue GAMMA=   1.0575
  2.6938  2.0744  1.5558  1.5558  0.7533  0.7533  0.5311  0.5311  0.4121  0.4121
  0.3602

 Free energy of the ion-electron system (eV)
  ---------------------------------------------------
  alpha Z        PSCENC =      1410.43267857
  Ewald energy   TEWEN  =    -16537.99727107
  -Hartree energ DENC   =     -6440.01872265
[...]
     86       4.9243      2.00000
     87       5.0050      2.00000
     88       5.0561      2.00000
     89       5.1114      2.00000
     90       5.1469      2.00000
     91       5.2102      2.00000
     92       5.2404      2.00000
     93       5.2916      2.00000
     94       5.3430      2.00000
     95       5.3896      2.00000
     96       5.4612      2.00000
     97       5.4963      2.00000
     98       5.6707      2.00000
     99       5.7665      2.00000
    100       5.8051      2.00000
    101       5.8373      2.00000
    102       5.8793      2.00000
    103       5.9176      2.00000
    104       5.9240      2.00000
    105       6.0138      2.00000
    106       6.0366      2.00000
    107       6.0480      2.00000
    108       6.0816      2.00000
    109       6.1011      2.00000
    110       6.1405      2.00000
    111       6.1750      2.00000
    112       6.2199      2.00000
    113       6.2332      2.00000
    114       6.2921      2.00000
    115       6.3074      2.00000
    116       6.3397      2.00000
    117       6.3857      2.00000
    118       6.4153      2.00000
    119       6.4719      2.00000
    120       6.5352      2.00000
    121       6.5651      2.00000
    122       6.5879      2.00000
    123       6.6228      2.00000
    124       6.6952      2.00002
    125       6.7126      2.00003
    126       6.7405      2.00011
    127       6.8003      2.00090
    128       6.8572      2.00494
    129       6.8831      2.00957
    130       6.9083      2.01695
    131       6.9765      2.05284
    132       6.9874      2.05927
    133       7.0081      2.06862
    134       7.0514      2.05561
    135       7.0637      2.03712
    136       7.1072      1.88699
    137       7.1468      1.60997
    138       7.1587      1.50183
    139       7.2332      0.69390
    140       7.2446      0.57623
    141       7.2829      0.24311
    142       7.3100      0.08315
    143       7.3449     -0.03217
    144       7.4069     -0.06731
    145       7.4279     -0.05686
    146       7.4892     -0.02239
    147       7.5211     -0.01128
    148       7.5591     -0.00429
    149       7.5796     -0.00238
    150       7.6122     -0.00086
    151       7.6676     -0.00012
    152       7.6875     -0.00005
    153       7.7304     -0.00001
    154       7.8340     -0.00000
    155       7.8536     -0.00000
    156       7.8802     -0.00000
    157       7.9457     -0.00000
    158       8.0239     -0.00000
    159       8.0630     -0.00000
    160       8.0794     -0.00000
    161       8.3953     -0.00000
    162       8.4532     -0.00000
    163       8.5445     -0.00000
    164       9.1080     -0.00000


--------------------------------------------------------------------------------------------------------


 soft charge-density along one line, spin component           1
         0         1         2         3         4         5         6         7         8         9
 total charge-density along one line
 
 pseudopotential strength for first ion, spin component:           1
 -6.412   0.003  -0.000   0.003  -0.000  -7.618   0.003  -0.000
  0.003  -6.406   0.001  -0.002  -0.002   0.003  -7.610   0.001
 -0.000   0.001  -6.418   0.001   0.002  -0.000   0.001  -7.624
  0.003  -0.002   0.001  -6.412   0.001   0.004  -0.003   0.001
 -0.000  -0.002   0.002   0.001  -6.420  -0.000  -0.003   0.003
 -7.618   0.003  -0.000   0.004  -0.000  -9.028   0.004  -0.000
  0.003  -7.610   0.001  -0.003  -0.003   0.004  -9.018   0.001
 -0.000   0.001  -7.624   0.001   0.003  -0.000   0.001  -9.036
  0.004  -0.003   0.001  -7.617   0.001   0.005  -0.003   0.001
 -0.000  -0.003   0.003   0.001  -7.626  -0.000  -0.003   0.004
  0.000  -0.002  -0.001  -0.001   0.002   0.000  -0.003  -0.001
  0.000  -0.004  -0.002  -0.002   0.003   0.000  -0.005  -0.002
 -0.002  -0.003   0.001   0.001   0.001  -0.002  -0.004   0.001
  0.001   0.002  -0.006  -0.001  -0.000   0.001   0.002  -0.007
  0.002   0.001  -0.000  -0.004   0.001   0.002   0.001  -0.000
  0.004   0.004   0.001  -0.002   0.002   0.005   0.005   0.001
 -0.002  -0.006   0.007   0.003   0.000  -0.002  -0.007   0.008
 -0.006  -0.002  -0.001   0.005   0.000  -0.007  -0.002  -0.001
 total augmentation occupancy for first ion, spin component:           1
  5.047   0.178  -0.086   0.067   0.005  -2.606  -0.100   0.033  -0.027  -0.005  -0.005   0.010  -0.046   0.002   0.133   0.000
  0.178   5.514  -0.050  -0.134  -0.007  -0.101  -2.859   0.021   0.072   0.000   0.031  -0.032   0.003   0.148   0.007   0.003
 -0.086  -0.050   4.911   0.025   0.060   0.033   0.021  -2.730  -0.022  -0.037   0.052  -0.017  -0.031   0.052   0.026  -0.003
  0.067  -0.134   0.025   5.167   0.015  -0.027   0.072  -0.022  -2.668  -0.026   0.097  -0.032  -0.010  -0.020   0.072  -0.001
  0.005  -0.007   0.060   0.015   4.829  -0.005  -0.001  -0.036  -0.025  -2.673  -0.066   0.029  -0.074   0.019  -0.039  -0.005
 -2.606  -0.101   0.033  -0.027  -0.005   1.368   0.055  -0.010   0.010   0.004   0.006  -0.005   0.024   0.000  -0.072  -0.000
 -0.100  -2.859   0.021   0.072  -0.001   0.055   1.506  -0.008  -0.038   0.003  -0.015   0.016  -0.004  -0.081  -0.001  -0.002
  0.033   0.021  -2.730  -0.022  -0.036  -0.010  -0.008   1.529   0.017   0.023  -0.038   0.010   0.027  -0.031  -0.017   0.002
 -0.027   0.072  -0.022  -2.668  -0.025   0.010  -0.038   0.017   1.400   0.023  -0.064   0.017   0.005   0.010  -0.038   0.001
 -0.005   0.000  -0.037  -0.026  -2.673   0.004   0.003   0.023   0.023   1.492   0.045  -0.016   0.056  -0.010   0.025   0.003
 -0.005   0.031   0.052   0.097  -0.066   0.006  -0.015  -0.038  -0.064   0.045   2.223  -0.233   0.041   0.018  -0.013   0.000
  0.010  -0.032  -0.017  -0.032   0.029  -0.005   0.016   0.010   0.017  -0.016  -0.233   0.026  -0.003  -0.001   0.000   0.000
 -0.046   0.003  -0.031  -0.010  -0.074   0.024  -0.004   0.027   0.005   0.056   0.041  -0.003   0.295   0.005  -0.010   0.007
  0.002   0.148   0.052  -0.020   0.019   0.000  -0.081  -0.031   0.010  -0.010   0.018  -0.001   0.005   0.291   0.013   0.000
  0.133   0.007   0.026   0.072  -0.039  -0.072  -0.001  -0.017  -0.038   0.025  -0.013   0.000  -0.010   0.013   0.280  -0.000
  0.000   0.003  -0.003  -0.001  -0.005  -0.000  -0.002   0.002   0.001   0.003   0.000   0.000   0.007   0.000  -0.000   0.000
 -0.001   0.001   0.005   0.001   0.000   0.001  -0.001  -0.003  -0.000  -0.000   0.002  -0.000   0.000   0.007   0.000  -0.000
  0.002  -0.001   0.001   0.004  -0.002  -0.001   0.001  -0.001  -0.002   0.001   0.000  -0.000  -0.000   0.000   0.007  -0.000


------------------------ aborting loop because EDIFF is reached ----------------------------------------


    CHARGE:  cpu time    0.0257: real time    0.0259
    FORLOC:  cpu time    0.0133: real time    0.0133
    FORNL :  cpu time    0.2877: real time    0.2918
    STRESS:  cpu time    0.8698: real time    0.8770
    FORCOR:  cpu time    0.0430: real time    0.0431
    FORHAR:  cpu time    0.0180: real time    0.0181
    MIXING:  cpu time    0.0012: real time    0.0012
    OFIELD:  cpu time    0.0000: real time    0.0000

  FORCE on cell =-STRESS in cart. coord.  units (eV):
  Direction    XX          YY          ZZ          XY          YZ          ZX
  --------------------------------------------------------------------------------------
  Alpha Z  1401.83505  1401.83505  1401.83505
  Ewald   -4595.62077 -6171.65929 -5723.48199  -227.83896   228.64222    26.16891
  Hartree  2996.46960  1505.00607  1960.23403  -201.62773   186.89213    26.29167
  E(xc)   -1193.64487 -1193.79650 -1194.01809    -0.23732     0.35543     0.63858
  Local   -2987.46721    74.30113  -829.45378   429.76518  -414.55182   -53.26258
  n-local  -263.51591  -264.52192  -263.56515    -2.18743    -0.51130     0.71698
  augment   192.64615   193.10136   193.01557     0.32080    -0.21591     0.01944
  Kinetic  4449.35983  4455.77798  4455.50892     1.78972    -0.58517    -0.68676
  Fock        0.00000     0.00000     0.00000     0.00000     0.00000     0.00000
  -------------------------------------------------------------------------------------
  Total       0.06189     0.04388     0.07457    -0.01572     0.02558    -0.11375
  in kB       0.13690     0.09708     0.16496    -0.03478     0.05658    -0.25163
  external pressure =        0.13 kB  Pullay stress =        0.00 kB


 VOLUME and BASIS-vectors are now :
 -----------------------------------------------------------------------------
  energy-cutoff  :      300.00
  volume of cell :      724.29
      direct lattice vectors                 reciprocal lattice vectors
     6.960008600 -0.020157959  0.019846372     0.143680370  0.000413466 -0.000417036
    -0.029346969 10.206314370  0.008109190     0.000283985  0.097979437 -0.000074190
     0.029572776  0.007634823 10.196210074    -0.000279892 -0.000078729  0.098076528

  length of vectors
     6.960066086 10.206359783 10.196255818     0.143681570  0.097979877  0.098076959


 FORCES acting on ions
    electron-ion (+dipol)            ewald-force                    non-local-force                 convergence-correction
 -----------------------------------------------------------------------------------------------
   0.172E+02 -.114E+03 0.108E+03   -.173E+02 0.115E+03 -.108E+03   0.159E+00 -.529E+00 -.501E+00   0.135E-02 0.472E-03 0.161E-02
   0.251E+02 -.609E+02 -.605E+01   -.241E+02 0.605E+02 0.638E+01   -.104E+01 0.412E+00 -.335E+00   -.155E-03 -.870E-03 -.206E-02
   0.483E+00 -.896E+02 0.105E+03   0.515E+00 0.895E+02 -.105E+03   -.997E+00 0.895E-01 -.816E-01   0.676E-03 -.111E-02 0.398E-02
   -.563E+02 -.324E+02 -.103E+02   0.569E+02 0.320E+02 0.974E+01   -.660E+00 0.399E+00 0.518E+00   0.228E-02 -.157E-02 0.250E-03
   -.250E+02 0.105E+03 -.622E+02   0.253E+02 -.105E+03 0.619E+02   -.288E+00 0.423E+00 0.372E+00   0.698E-03 0.179E-02 -.261E-02
   -.229E+01 -.121E+03 0.905E+02   0.128E+01 0.122E+03 -.905E+02   0.101E+01 -.120E+00 -.402E-01   0.308E-04 -.354E-04 0.479E-02
   -.550E+02 -.177E+03 -.943E+02   0.543E+02 0.176E+03 0.940E+02   0.650E+00 0.354E+00 0.361E+00   0.834E-03 -.166E-02 -.217E-02
   -.195E+02 0.338E+02 0.793E+02   0.197E+02 -.338E+02 -.789E+02   -.127E+00 0.632E-01 -.462E+00   0.190E-02 0.532E-03 0.263E-02
   0.214E+02 0.119E+03 0.170E+02   -.218E+02 -.119E+03 -.179E+02   0.394E+00 -.155E+00 0.834E+00   -.671E-03 0.452E-03 -.188E-02
   0.245E+02 0.282E+02 -.874E+02   -.244E+02 -.284E+02 0.877E+02   -.889E-01 0.216E+00 -.298E+00   0.435E-03 0.772E-03 -.319E-03
   0.183E+02 0.996E+02 0.144E+02   -.185E+02 -.100E+03 -.137E+02   0.215E+00 0.598E+00 -.673E+00   -.318E-03 -.113E-02 0.356E-02
   0.337E+02 0.318E+02 -.504E+02   -.335E+02 -.315E+02 0.502E+02   -.202E+00 -.305E+00 0.137E+00   -.790E-03 -.763E-03 -.274E-02
   -.389E+02 0.100E+03 -.282E+02   0.396E+02 -.999E+02 0.283E+02   -.712E+00 -.624E-01 -.128E+00   0.179E-02 0.185E-02 0.181E-02
   -.266E+02 0.515E+02 0.767E+02   0.260E+02 -.519E+02 -.766E+02   0.621E+00 0.323E+00 -.133E+00   -.140E-02 0.813E-03 0.168E-04
   0.454E+02 -.300E+01 -.126E+02   -.461E+02 0.276E+01 0.121E+02   0.663E+00 0.253E+00 0.495E+00   -.166E-02 -.197E-02 0.880E-03
   -.378E+02 -.751E+01 -.610E+02   0.378E+02 0.785E+01 0.612E+02   0.468E-01 -.336E+00 -.197E+00   0.752E-03 -.325E-03 -.179E-02
   -.116E+02 0.673E+02 0.123E+02   0.121E+02 -.671E+02 -.125E+02   -.509E+00 -.201E+00 0.274E+00   0.287E-03 0.122E-02 -.175E-02
   -.143E+02 -.694E+02 0.954E+02   0.145E+02 0.699E+02 -.952E+02   -.137E+00 -.423E+00 -.208E+00   -.916E-03 0.133E-03 0.687E-03
   -.234E+02 -.642E+02 0.275E+00   0.222E+02 0.639E+02 0.493E-01   0.123E+01 0.319E+00 -.323E+00   0.259E-03 -.434E-03 -.141E-02
   0.312E+02 -.183E+02 -.345E+02   -.309E+02 0.184E+02 0.341E+02   -.368E+00 -.396E-01 0.360E+00   -.802E-03 -.291E-03 -.335E-02
   0.939E+01 -.907E+02 -.920E+02   -.970E+01 0.907E+02 0.920E+02   0.309E+00 -.559E-01 -.795E-01   -.838E-03 -.168E-02 -.344E-02
   0.599E+02 0.113E+03 -.356E+02   -.594E+02 -.113E+03 0.358E+02   -.486E+00 -.595E+00 -.204E+00   -.620E-03 0.472E-03 -.146E-02
   0.445E+02 0.764E+02 0.188E+03   -.447E+02 -.766E+02 -.187E+03   0.253E+00 0.179E+00 -.488E+00   -.509E-02 -.765E-03 0.547E-02
   -.504E+02 0.257E+02 -.239E+03   0.503E+02 -.256E+02 0.239E+03   0.131E+00 -.289E-01 -.126E+00   0.232E-03 0.364E-02 0.932E-03
   0.922E+02 -.392E+03 -.204E+03   -.913E+02 0.391E+03 0.203E+03   -.951E+00 0.634E+00 0.657E+00   -.107E-02 -.632E-02 -.322E-02
   -.444E+02 0.223E+03 0.125E+03   0.446E+02 -.223E+03 -.125E+03   -.245E+00 0.338E+00 0.210E+00   0.291E-02 -.307E-02 0.540E-02
   -.706E+02 -.818E+02 -.790E+02   0.701E+02 0.820E+02 0.780E+02   0.514E+00 -.198E+00 0.989E+00   0.364E-02 -.122E-02 -.956E-02
   -.148E+02 -.164E+02 0.349E+03   0.146E+02 0.169E+02 -.349E+03   0.214E+00 -.455E+00 -.206E+00   0.642E-03 0.398E-02 0.950E-02
   0.348E+02 0.211E+03 0.203E+03   -.340E+02 -.212E+03 -.202E+03   -.815E+00 0.563E+00 -.410E+00   0.406E-02 -.104E-02 0.164E-02
   0.156E+03 0.316E+03 0.188E+02   -.157E+03 -.316E+03 -.188E+02   0.767E+00 0.244E+00 0.408E-01   -.108E-01 0.751E-02 0.564E-02
   -.391E+02 -.231E+03 -.298E+03   0.395E+02 0.232E+03 0.298E+03   -.414E+00 -.538E+00 0.352E+00   0.126E-02 -.111E-02 -.154E-01
   -.144E+03 0.376E+03 -.157E+03   0.143E+03 -.374E+03 0.158E+03   0.847E+00 -.103E+01 -.683E+00   -.703E-02 0.526E-02 0.774E-02
   0.142E+02 0.353E+02 0.318E+03   -.141E+02 -.346E+02 -.317E+03   -.158E+00 -.641E+00 -.694E+00   -.371E-02 -.337E-02 0.448E-02
   0.250E+02 -.375E+03 -.947E+01   -.262E+02 0.375E+03 0.919E+01   0.116E+01 -.510E+00 0.275E+00   -.691E-02 0.679E-03 0.718E-02
   0.486E+02 0.189E+03 -.282E+03   -.489E+02 -.189E+03 0.282E+03   0.335E+00 0.503E+00 0.641E-01   0.373E-02 0.170E-01 -.572E-02
   -.285E+02 -.255E+03 0.426E+02   0.298E+02 0.255E+03 -.429E+02   -.124E+01 -.304E+00 0.260E+00   -.153E-03 0.168E-02 0.685E-02
 -----------------------------------------------------------------------------------------------
   -.719E-01 0.602E+00 0.503E-01   0.639E-13 0.369E-12 0.178E-12   0.842E-01 -.622E+00 -.700E-01   -.152E-01 0.195E-01 0.162E-01
 
 
 POSITION                                       TOTAL-FORCE (eV/Angst)
 -----------------------------------------------------------------------------------
      1.76269      1.74135      5.21772         0.001493      0.002135     -0.004960
      0.25447      3.34632      3.52187         0.003104     -0.001670     -0.002528
      0.13086      3.40107      6.79621         0.001478     -0.000252     -0.000470
      1.80651      5.07531      8.46661        -0.003245     -0.001254      0.004090
      1.72347      8.40553      1.56741        -0.001487     -0.000942     -0.000954
      3.37871      3.41272      6.80102        -0.002272     -0.004522      0.000971
      3.38230      3.28692     10.13776         0.000699      0.004830      0.005135
      1.76206      5.11330      5.17556        -0.003635      0.003032     -0.001380
      3.37236      6.78311      3.26056        -0.001185     -0.009694     -0.001629
      3.49107     10.18244      0.05985         0.000601     -0.000618     -0.006780
      3.46906      6.64212      6.94177         0.000065     -0.005941      0.006186
      5.29834      5.02149      1.74952         0.001625      0.001521     -0.000292
      1.80420      8.47317      8.57530         0.002877      0.001686      0.001890
      5.00453      8.48707      5.14999         0.002864      0.005341      0.000241
      5.19519      4.96159      8.51431         0.000582      0.003776     -0.000322
      1.56471      5.16925      1.60202        -0.002225      0.000674     -0.000083
      0.08972      6.97625      3.48670        -0.004464     -0.002668     -0.002136
      5.23756      1.79263      5.07501         0.000406      0.002607     -0.001534
      3.23211      3.45062      3.39849        -0.008764      0.002981     -0.000134
      0.11719     -0.00487      3.39597        -0.000633      0.000258     -0.002449
      5.22729      1.85174      1.79427        -0.004419     -0.002343      0.000975
      3.58420      6.82089      0.06573         0.000621     -0.004068     -0.002122
      5.19873      5.04747      5.08242         0.004676     -0.000108     -0.000001
      6.89496     -0.03097      0.03010         0.001011     -0.005820      0.003114
      0.14591      3.22073     10.01239         0.004138     -0.000845      0.000665
     -0.00148      6.79676      6.79202        -0.003340      0.000078     -0.003669
      3.38721      0.00808      3.24253        -0.004765     -0.002483      0.001695
      6.93648      0.02441      6.84109        -0.003344      0.000180     -0.002161
      1.98995      8.50919      5.25059         0.003336      0.002469     -0.003284
      5.13083      8.51820      8.50231         0.002324     -0.000071      0.002514
      1.78375      1.70326      1.62479         0.003453      0.003395     -0.004199
      6.77570      6.91573      0.03359         0.001044      0.003694     -0.003807
      3.55511      0.13166      6.96588        -0.000353     -0.001418      0.004601
      5.13032      1.74307      8.45431         0.001546      0.000316      0.004699
      5.17576      8.48412      1.77115         0.003216      0.001526      0.005941
      1.88146      1.63655      8.43594         0.002972      0.004219      0.002175
 -----------------------------------------------------------------------------------
    total drift:                               -0.002861     -0.000991     -0.003474


--------------------------------------------------------------------------------------------------------



  FREE ENERGIE OF THE ION-ELECTRON SYSTEM (eV)
  ---------------------------------------------------
  free  energy   TOTEN  =      -367.54552636 eV

  energy  without entropy=     -367.56585955  energy(sigma->0) =     -367.55230409
 
 d Force = 0.5134641E-04[ 0.396E-04, 0.631E-04]  d Energy = 0.8053526E-04-0.292E-04
 d Force = 0.1677799E-01[ 0.165E-01, 0.170E-01]  d Ewald  =-0.3635452E+00 0.380E+00


--------------------------------------------------------------------------------------------------------


    POTLOK:  cpu time    0.0372: real time    0.0376


--------------------------------------------------------------------------------------------------------


 Conjugate gradient step on ions:
 trial-energy change:   -0.000081  1 .order   -0.000062   -0.000073   -0.000050
  (g-gl).g = 0.610E-04      g.g   = 0.377E-04  gl.gl    = 0.144E-03
 g(Force)  = 0.219E-04   g(Stress)= 0.158E-04 ortho     =-0.686E-05
 gamma     =   0.42233
 trial     =   2.10850
 opt step  =   6.50044  (harmonic =   6.50044) maximal distance =0.00233656
 next E    =  -367.545559   (d E  =  -0.00011)


--------------------------------------------------------------------------------------------------------


  
 reached required accuracy - stopping structural energy minimisation
     LOOP+:  cpu time    4.2800: real time    5.0740
    4ORBIT:  cpu time    0.0000: real time    0.0000

 total amount of memory used by VASP on root node    65985. kBytes
========================================================================

   base      :      30000. kBytes
   nonlr-proj:      10605. kBytes
   fftplans  :       2814. kBytes
   grid      :       5360. kBytes
   one-center:        124. kBytes
   wavefun   :      17082. kBytes
 
  
  
 General timing and accounting informations for this job:
 ========================================================
  
                  Total CPU time used (sec):      238.540
                            User time (sec):      237.452
                          System time (sec):        1.088
                         Elapsed time (sec):      270.303
  
                   Maximum memory used (kb):      283232.
                   Average memory used (kb):           0.
  
                          Minor page faults:       134719
                          Major page faults:           37
                 Voluntary context switches:         9852
