<?xml version="1.0" encoding="ISO-8859-1"?>
<modeling>
 <generator>
  <i name="program" type="string">vasp </i>
  <i name="version" type="string">5.4.1  </i>
  <i name="subversion" type="string">05Feb16 (build Jan 29 2020 16:04:39) complex                          parallel </i>
  <i name="platform" type="string">IFC91_ompi </i>
  <i name="date" type="string">2020 06 15 </i>
  <i name="time" type="string">06:39:41 </i>
 </generator>
 <incar>
  <i type="string" name="SYSTEM"> automatically generated by mexm</i>
  <i type="int" name="ISTART">     0</i>
  <i type="string" name="PREC">accurate               ! avoid wrap aro</i>
  <i type="string" name="ALGO"> Fast                   ! blocked Davids</i>
  <i type="int" name="ISPIN">     1</i>
  <i type="int" name="ICHARG">     2</i>
  <i type="int" name="NELM">    70</i>
  <i type="int" name="IBRION">     2</i>
  <i name="EDIFF">      0.00001000</i>
  <i name="EDIFFG">     -0.01000000</i>
  <i type="int" name="NSW">   300</i>
  <i type="int" name="ISIF">     3</i>
  <i type="int" name="ISYM">     1</i>
  <i name="ENCUT">    300.00000000</i>
  <i name="POTIM">      0.15000000</i>
  <i type="string" name="LREAL"> Auto                  ! unpublished met</i>
  <i type="int" name="ISMEAR">     1</i>
  <i name="SIGMA">      0.15000000</i>
  <i type="logical" name="LWAVE"> F  </i>
  <i type="logical" name="LCHARG"> F  </i>
  <i type="logical" name="LVTOT"> F  </i>
  <v type="int" name="KPOINT_BSE">    -1     0     0     0</v>
  <i type="int" name="NELM">    70</i>
 </incar>
 <kpoints>
  <generation param="Gamma">
   <v type="int" name="divisions">       3        3        3 </v>
   <v name="usershift">      0.00000000       0.00000000       0.00000000 </v>
   <v name="genvec1">      0.33333333       0.00000000       0.00000000 </v>
   <v name="genvec2">     -0.00000000       0.33333333       0.00000000 </v>
   <v name="genvec3">     -0.00000000       0.00000000       0.33333333 </v>
   <v name="shift">      0.00000000       0.00000000       0.00000000 </v>
  </generation>
  <varray name="kpointlist" >
   <v>       0.00000000       0.00000000       0.00000000 </v>
   <v>       0.33333333      -0.00000000       0.00000000 </v>
   <v>      -0.00000000       0.33333333       0.00000000 </v>
   <v>       0.33333333       0.33333333       0.00000000 </v>
   <v>      -0.33333333       0.33333333       0.00000000 </v>
   <v>       0.00000000       0.00000000       0.33333333 </v>
   <v>       0.33333333       0.00000000       0.33333333 </v>
   <v>      -0.33333333       0.00000000       0.33333333 </v>
   <v>       0.00000000       0.33333333       0.33333333 </v>
   <v>       0.33333333       0.33333333       0.33333333 </v>
   <v>      -0.33333333       0.33333333       0.33333333 </v>
   <v>       0.00000000      -0.33333333       0.33333333 </v>
   <v>       0.33333333      -0.33333333       0.33333333 </v>
   <v>      -0.33333333      -0.33333333       0.33333333 </v>
  </varray>
  <varray name="weights" >
   <v>       0.03703704 </v>
   <v>       0.07407407 </v>
   <v>       0.07407407 </v>
   <v>       0.07407407 </v>
   <v>       0.07407407 </v>
   <v>       0.07407407 </v>
   <v>       0.07407407 </v>
   <v>       0.07407407 </v>
   <v>       0.07407407 </v>
   <v>       0.07407407 </v>
   <v>       0.07407407 </v>
   <v>       0.07407407 </v>
   <v>       0.07407407 </v>
   <v>       0.07407407 </v>
  </varray>
 </kpoints>
 <parameters>
  <separator name="general" >
   <i type="string" name="SYSTEM">automatically generated by mexm</i>
   <i type="logical" name="LCOMPAT"> F  </i>
  </separator>
  <separator name="electronic" >
   <i type="string" name="PREC">accura</i>
   <i name="ENMAX">    300.00000000</i>
   <i name="ENAUG">    461.25700000</i>
   <i name="EDIFF">      0.00001000</i>
   <i type="int" name="IALGO">    68</i>
   <i type="int" name="IWAVPR">    11</i>
   <i type="int" name="NBANDS">   164</i>
   <i name="NELECT">    274.00000000</i>
   <i type="int" name="TURBO">     0</i>
   <i type="int" name="IRESTART">     0</i>
   <i type="int" name="NREBOOT">     0</i>
   <i type="int" name="NMIN">     0</i>
   <i name="EREF">      0.00000000</i>
   <separator name="electronic smearing" >
    <i type="int" name="ISMEAR">     1</i>
    <i name="SIGMA">      0.15000000</i>
    <i name="KSPACING">      0.50000000</i>
    <i type="logical" name="KGAMMA"> T  </i>
   </separator>
   <separator name="electronic projectors" >
    <i type="logical" name="LREAL"> T  </i>
    <v name="ROPT">     -0.00025000     -0.00025000     -0.00025000     -0.00025000</v>
    <i type="int" name="LMAXPAW">  -100</i>
    <i type="int" name="LMAXMIX">     2</i>
    <i type="logical" name="NLSPLINE"> F  </i>
   </separator>
   <separator name="electronic startup" >
    <i type="int" name="ISTART">     0</i>
    <i type="int" name="ICHARG">     2</i>
    <i type="int" name="INIWAV">     1</i>
   </separator>
   <separator name="electronic spin" >
    <i type="int" name="ISPIN">     1</i>
    <i type="logical" name="LNONCOLLINEAR"> F  </i>
    <v name="MAGMOM">      1.00000000      1.00000000      1.00000000      1.00000000      1.00000000      1.00000000      1.00000000      1.00000000      1.00000000      1.00000000      1.00000000      1.00000000      1.00000000      1.00000000      1.00000000      1.00000000      1.00000000      1.00000000      1.00000000      1.00000000
      1.00000000      1.00000000      1.00000000      1.00000000      1.00000000      1.00000000      1.00000000      1.00000000      1.00000000      1.00000000      1.00000000      1.00000000      1.00000000      1.00000000      1.00000000      1.00000000</v>
    <i name="NUPDOWN">     -1.00000000</i>
    <i type="logical" name="LSORBIT"> F  </i>
    <v name="SAXIS">      0.00000000      0.00000000      1.00000000</v>
    <i type="logical" name="LSPIRAL"> F  </i>
    <v name="QSPIRAL">      0.00000000      0.00000000      0.00000000</v>
    <i type="logical" name="LZEROZ"> F  </i>
   </separator>
   <separator name="electronic exchange-correlation" >
    <i type="logical" name="LASPH"> F  </i>
    <i type="logical" name="LMETAGGA"> F  </i>
   </separator>
   <separator name="electronic convergence" >
    <i type="int" name="NELM">    70</i>
    <i type="int" name="NELMDL">    -5</i>
    <i type="int" name="NELMIN">     2</i>
    <i name="ENINI">    300.00000000</i>
    <separator name="electronic convergence detail" >
     <i type="logical" name="LDIAG"> T  </i>
     <i type="logical" name="LSUBROT"> F  </i>
     <i name="WEIMIN">      0.00100000</i>
     <i name="EBREAK">      0.00000002</i>
     <i name="DEPER">      0.30000000</i>
     <i type="int" name="NRMM">     4</i>
     <i name="TIME">      0.40000000</i>
    </separator>
   </separator>
   <separator name="electronic mixer" >
    <i name="AMIX">      0.40000000</i>
    <i name="BMIX">      1.00000000</i>
    <i name="AMIN">      0.10000000</i>
    <i name="AMIX_MAG">      1.60000000</i>
    <i name="BMIX_MAG">      1.00000000</i>
    <separator name="electronic mixer details" >
     <i type="int" name="IMIX">     4</i>
     <i type="logical" name="MIXFIRST"> F  </i>
     <i type="int" name="MAXMIX">   -45</i>
     <i name="WC">    100.00000000</i>
     <i type="int" name="INIMIX">     1</i>
     <i type="int" name="MIXPRE">     1</i>
     <i type="int" name="MREMOVE">     5</i>
    </separator>
   </separator>
   <separator name="electronic dipolcorrection" >
    <i type="logical" name="LDIPOL"> F  </i>
    <i type="logical" name="LMONO"> F  </i>
    <i type="int" name="IDIPOL">     0</i>
    <i name="EPSILON">      1.00000000</i>
    <v name="DIPOL">   -100.00000000   -100.00000000   -100.00000000</v>
    <i name="EFIELD">      0.00000000</i>
   </separator>
  </separator>
  <separator name="grids" >
   <i type="int" name="NGX">    40</i>
   <i type="int" name="NGY">    60</i>
   <i type="int" name="NGZ">    60</i>
   <i type="int" name="NGXF">    80</i>
   <i type="int" name="NGYF">   120</i>
   <i type="int" name="NGZF">   120</i>
   <i type="logical" name="ADDGRID"> F  </i>
  </separator>
  <separator name="ionic" >
   <i type="int" name="NSW">   300</i>
   <i type="int" name="IBRION">     2</i>
   <i type="int" name="ISIF">     3</i>
   <i name="PSTRESS">      0.00000000</i>
   <i name="EDIFFG">     -0.01000000</i>
   <i type="int" name="NFREE">     1</i>
   <i name="POTIM">      0.15000000</i>
   <i name="SMASS">     -3.00000000</i>
   <i name="SCALEE">      1.00000000</i>
  </separator>
  <separator name="ionic md" >
   <i name="TEBEG">      0.00010000</i>
   <i name="TEEND">      0.00010000</i>
   <i type="int" name="NBLOCK">     1</i>
   <i type="int" name="KBLOCK">   300</i>
   <i type="int" name="NPACO">   256</i>
   <i name="APACO">     16.00000000</i>
  </separator>
  <separator name="symmetry" >
   <i type="int" name="ISYM">     1</i>
   <i name="SYMPREC">      0.00001000</i>
  </separator>
  <separator name="dos" >
   <i type="logical" name="LORBIT"> F  </i>
   <v name="RWIGS">     -1.00000000     -1.00000000     -1.00000000     -1.00000000</v>
   <i type="int" name="NEDOS">   301</i>
   <i name="EMIN">     10.00000000</i>
   <i name="EMAX">    -10.00000000</i>
   <i name="EFERMI">      0.00000000</i>
  </separator>
  <separator name="writing" >
   <i type="int" name="NWRITE">     2</i>
   <i type="logical" name="LWAVE"> F  </i>
   <i type="logical" name="LCHARG"> F  </i>
   <i type="logical" name="LPARD"> F  </i>
   <i type="logical" name="LVTOT"> F  </i>
   <i type="logical" name="LVHAR"> F  </i>
   <i type="logical" name="LELF"> F  </i>
   <i type="logical" name="LOPTICS"> F  </i>
   <v name="STM">      0.00000000      0.00000000      0.00000000      0.00000000      0.00000000      0.00000000      0.00000000</v>
  </separator>
  <separator name="performance" >
   <i type="int" name="NPAR">     4</i>
   <i type="int" name="NSIM">     4</i>
   <i type="int" name="NBLK">    -1</i>
   <i type="logical" name="LPLANE"> T  </i>
   <i type="logical" name="LSCALAPACK"> T  </i>
   <i type="logical" name="LSCAAWARE"> F  </i>
   <i type="logical" name="LSCALU"> F  </i>
   <i type="logical" name="LASYNC"> F  </i>
   <i type="logical" name="LORBITALREAL"> F  </i>
  </separator>
  <separator name="miscellaneous" >
   <i type="int" name="IDIOT">     3</i>
   <i type="logical" name="LMUSIC"> F  </i>
   <v name="POMASS">    180.94800000    178.49000000     91.22400000     92.91000000</v>
   <v name="DARWINR">      0.00000000      0.00000000      0.00000000      0.00000000</v>
   <v name="DARWINV">      1.00000000      1.00000000      1.00000000      1.00000000</v>
   <i type="logical" name="LCORR"> T  </i>
  </separator>
  <i type="logical" name="GGA_COMPAT"> T  </i>
  <i type="logical" name="LBERRY"> F  </i>
  <i type="int" name="ICORELEVEL">     0</i>
  <i type="logical" name="LDAU"> F  </i>
  <i type="int" name="I_CONSTRAINED_M">     0</i>
  <separator name="electronic exchange-correlation" >
   <i type="string" name="GGA">--</i>
   <i type="int" name="VOSKOWN">     0</i>
   <i type="logical" name="LHFCALC"> F  </i>
   <i type="string" name="PRECFOCK"></i>
   <i type="logical" name="LSYMGRAD"> F  </i>
   <i type="logical" name="LHFONE"> F  </i>
   <i type="logical" name="LRHFCALC"> F  </i>
   <i type="logical" name="LTHOMAS"> F  </i>
   <i type="logical" name="LMODELHF"> F  </i>
   <i name="ENCUT4O">     -1.00000000</i>
   <i type="int" name="EXXOEP">     0</i>
   <i type="int" name="FOURORBIT">     0</i>
   <i name="AEXX">      0.00000000</i>
   <i name="HFALPHA">      0.00000000</i>
   <i name="MCALPHA">      0.00000000</i>
   <i name="ALDAX">      1.00000000</i>
   <i name="AGGAX">      1.00000000</i>
   <i name="ALDAC">      1.00000000</i>
   <i name="AGGAC">      1.00000000</i>
   <i type="int" name="NKREDX">     1</i>
   <i type="int" name="NKREDY">     1</i>
   <i type="int" name="NKREDZ">     1</i>
   <i type="logical" name="SHIFTRED"> F  </i>
   <i type="logical" name="ODDONLY"> F  </i>
   <i type="logical" name="EVENONLY"> F  </i>
   <i type="int" name="LMAXFOCK">     0</i>
   <i type="int" name="NMAXFOCKAE">     0</i>
   <i type="logical" name="LFOCKAEDFT"> F  </i>
   <i name="HFSCREEN">      0.00000000</i>
   <i name="HFSCREENC">      0.00000000</i>
   <i type="int" name="NBANDSGWLOW">     0</i>
  </separator>
  <separator name="vdW DFT" >
   <i type="logical" name="LUSE_VDW"> F  </i>
   <i name="Zab_VDW">     -0.84910000</i>
   <i name="PARAM1">      0.12340000</i>
   <i name="PARAM2">      1.00000000</i>
   <i name="PARAM3">      0.00000000</i>
  </separator>
  <separator name="model GW" >
   <i type="int" name="MODEL_GW">     0</i>
   <i name="MODEL_EPS0">     11.99784710</i>
   <i name="MODEL_ALPHA">      1.00000000</i>
  </separator>
  <separator name="linear response parameters" >
   <i type="logical" name="LEPSILON"> F  </i>
   <i type="logical" name="LRPA"> F  </i>
   <i type="logical" name="LNABLA"> F  </i>
   <i type="logical" name="LVEL"> F  </i>
   <i type="int" name="KINTER">     0</i>
   <i name="CSHIFT">      0.10000000</i>
   <i name="OMEGAMAX">     -1.00000000</i>
   <i name="DEG_THRESHOLD">      0.00200000</i>
  </separator>
  <separator name="orbital magnetization" >
   <i type="logical" name="NUCIND"> F  </i>
   <v name="MAGPOS">      0.00000000      0.00000000      0.00000000</v>
   <i type="logical" name="LNICSALL"> T  </i>
   <i type="logical" name="ORBITALMAG"> F  </i>
   <i type="logical" name="LMAGBLOCH"> F  </i>
   <i type="logical" name="LCHIMAG"> F  </i>
   <i type="logical" name="LGAUGE"> T  </i>
   <i type="int" name="MAGATOM">     0</i>
   <v name="MAGDIPOL">      0.00000000      0.00000000      0.00000000</v>
   <v name="AVECCONST">      0.00000000      0.00000000      0.00000000</v>
  </separator>
  <separator name="response functions" >
   <i type="logical" name="LADDER"> F  </i>
   <i type="logical" name="LFXC"> F  </i>
   <i type="logical" name="LHARTREE"> T  </i>
   <i type="int" name="IBSE">     0</i>
   <v type="int" name="KPOINT">    -1     0     0     0</v>
   <i type="logical" name="LTCTE"> F  </i>
   <i type="logical" name="LTETE"> F  </i>
   <i type="logical" name="LTRIPLET"> F  </i>
   <i type="logical" name="LFXCEPS"> F  </i>
   <i type="logical" name="LFXHEG"> F  </i>
   <i type="int" name="NATURALO">     0</i>
   <i type="logical" name="L2ORDER"> F  </i>
   <i type="logical" name="LUSEW"> F  </i>
   <i name="ENCUTGW">     -2.00000000</i>
   <i name="ENCUTGWSOFT">     -2.00000000</i>
   <i name="ENCUTLF">     -1.00000000</i>
   <i type="int" name="LMAXMP2">    -1</i>
   <i name="SCISSOR">      0.00000000</i>
   <i type="int" name="NOMEGA">     0</i>
   <i type="int" name="NOMEGAR">     0</i>
   <i type="int" name="NBANDSGW">    -1</i>
   <i type="int" name="NBANDSO">    -1</i>
   <i type="int" name="NBANDSV">    -1</i>
   <i type="int" name="NELM">    70</i>
   <i type="int" name="NELMHF">     1</i>
   <i type="int" name="DIM">     3</i>
   <i type="int" name="ANTIRES">     0</i>
   <i name="OMEGAMAX">    -30.00000000</i>
   <i name="OMEGAMIN">    -30.00000000</i>
   <i name="OMEGATL">   -200.00000000</i>
   <i type="int" name="OMEGAGRID">     0</i>
   <i name="CSHIFT">     -0.10000000</i>
   <i type="logical" name="SELFENERGY"> F  </i>
   <i type="logical" name="LSPECTRAL"> F  </i>
   <i type="logical" name="LSPECTRALGW"> F  </i>
   <i type="logical" name="LSINGLES"> F  </i>
   <i type="logical" name="LFERMIGW"> F  </i>
   <i type="logical" name="ODDONLYGW"> F  </i>
   <i type="logical" name="EVENONLYGW"> F  </i>
   <i type="int" name="NKREDLFX">     1</i>
   <i type="int" name="NKREDLFY">     1</i>
   <i type="int" name="NKREDLFZ">     1</i>
   <i type="int" name="MAXMEM">  1800</i>
   <i type="int" name="TELESCOPE">     0</i>
   <i type="int" name="TAUPAR">     1</i>
   <i type="int" name="OMEGAPAR">    -1</i>
   <i name="LAMBDA">      1.00000000</i>
  </separator>
  <separator name="External order field" >
   <i name="OFIELD_KAPPA">      0.00000000</i>
   <v name="OFIELD_K">      0.00000000      0.00000000      0.00000000</v>
   <i name="OFIELD_Q6_NEAR">      0.00000000</i>
   <i name="OFIELD_Q6_FAR">      0.00000000</i>
   <i name="OFIELD_A">      0.00000000</i>
  </separator>
 </parameters>
 <atominfo>
  <atoms>      36 </atoms>
  <types>       4 </types>
  <array name="atoms" >
   <dimension dim="1">ion</dimension>
   <field type="string">element</field>
   <field type="int">atomtype</field>
   <set>
    <rc><c>Ta</c><c>   1</c></rc>
    <rc><c>Ta</c><c>   1</c></rc>
    <rc><c>Ta</c><c>   1</c></rc>
    <rc><c>Ta</c><c>   1</c></rc>
    <rc><c>Ta</c><c>   1</c></rc>
    <rc><c>Ta</c><c>   1</c></rc>
    <rc><c>Ta</c><c>   1</c></rc>
    <rc><c>Ta</c><c>   1</c></rc>
    <rc><c>Ta</c><c>   1</c></rc>
    <rc><c>Ta</c><c>   1</c></rc>
    <rc><c>Ta</c><c>   1</c></rc>
    <rc><c>Hf</c><c>   2</c></rc>
    <rc><c>Hf</c><c>   2</c></rc>
    <rc><c>Hf</c><c>   2</c></rc>
    <rc><c>Hf</c><c>   2</c></rc>
    <rc><c>Hf</c><c>   2</c></rc>
    <rc><c>Hf</c><c>   2</c></rc>
    <rc><c>Hf</c><c>   2</c></rc>
    <rc><c>Hf</c><c>   2</c></rc>
    <rc><c>Hf</c><c>   2</c></rc>
    <rc><c>Hf</c><c>   2</c></rc>
    <rc><c>Hf</c><c>   2</c></rc>
    <rc><c>Zr</c><c>   3</c></rc>
    <rc><c>Zr</c><c>   3</c></rc>
    <rc><c>Zr</c><c>   3</c></rc>
    <rc><c>Zr</c><c>   3</c></rc>
    <rc><c>Zr</c><c>   3</c></rc>
    <rc><c>Zr</c><c>   3</c></rc>
    <rc><c>Zr</c><c>   3</c></rc>
    <rc><c>Nb</c><c>   4</c></rc>
    <rc><c>Nb</c><c>   4</c></rc>
    <rc><c>Nb</c><c>   4</c></rc>
    <rc><c>Nb</c><c>   4</c></rc>
    <rc><c>Nb</c><c>   4</c></rc>
    <rc><c>Nb</c><c>   4</c></rc>
    <rc><c>Nb</c><c>   4</c></rc>
   </set>
  </array>
  <array name="atomtypes" >
   <dimension dim="1">type</dimension>
   <field type="int">atomspertype</field>
   <field type="string">element</field>
   <field>mass</field>
   <field>valence</field>
   <field type="string">pseudopotential</field>
   <set>
    <rc><c>  11</c><c>Ta</c><c>    180.94800000</c><c>      5.00000000</c><c>  PAW_PBE Ta 17Jan2003                  </c></rc>
    <rc><c>  11</c><c>Hf</c><c>    178.49000000</c><c>      4.00000000</c><c>  PAW_PBE Hf 20Jan2003                  </c></rc>
    <rc><c>   7</c><c>Zr</c><c>     91.22400000</c><c>     12.00000000</c><c>  PAW_PBE Zr_sv 04Jan2005               </c></rc>
    <rc><c>   7</c><c>Nb</c><c>     92.91000000</c><c>     13.00000000</c><c>  PAW_PBE Nb_sv 25May2007               </c></rc>
   </set>
  </array>
 </atominfo>
 <structure name="initialpos" >
  <crystal>
   <varray name="basis" >
    <v>       6.94980827      -0.01483523       0.01890569 </v>
    <v>      -0.02154451      10.19213495       0.01047545 </v>
    <v>       0.02826376       0.01004147      10.16300820 </v>
   </varray>
   <i name="volume">    719.87082598 </i>
   <varray name="rec_basis" >
    <v>       0.14389060       0.00030457      -0.00040047 </v>
    <v>       0.00020970       0.09811541      -0.00009753 </v>
    <v>      -0.00026789      -0.00010170       0.09839691 </v>
   </varray>
  </crystal>
  <varray name="positions" >
   <v>       0.25224100       0.17045100       0.51213900 </v>
   <v>       0.03709000       0.32633400       0.34383500 </v>
   <v>       0.01529600       0.33298700       0.66786300 </v>
   <v>       0.26053500       0.49809700       0.82954100 </v>
   <v>       0.25138500       0.82571100       0.15266300 </v>
   <v>       0.48465900       0.33354800       0.66607900 </v>
   <v>       0.48501700       0.32308100       0.99335200 </v>
   <v>       0.25115100       0.49992800       0.50638000 </v>
   <v>       0.47895400       0.66900800       0.32570700 </v>
   <v>       0.50607800       0.99947600       0.00349600 </v>
   <v>       0.49114700       0.65697000       0.67214600 </v>
   <v>       0.76263100       0.49333600       0.17164100 </v>
   <v>       0.25885700       0.82953500       0.83994200 </v>
   <v>       0.71730400       0.83143000       0.50234700 </v>
   <v>       0.74046600       0.48968100       0.83040400 </v>
   <v>       0.22757500       0.50789500       0.15591100 </v>
   <v>       0.02072300       0.68447300       0.34321300 </v>
   <v>       0.75226100       0.17600700       0.49676100 </v>
   <v>       0.46406300       0.33803100       0.33121200 </v>
   <v>       0.01919700       0.99766700       0.33571900 </v>
   <v>       0.75053100       0.18045400       0.17508100 </v>
   <v>       0.52168900       0.67097500       0.00676800 </v>
   <v>       0.74872000       0.49524900       0.49654600 </v>
   <v>       0.99208100       0.00065700       0.00012200 </v>
   <v>       0.01533000       0.31728000       0.98157000 </v>
   <v>       0.00470900       0.66634100       0.66508900 </v>
   <v>       0.48377400       0.99967900       0.32189100 </v>
   <v>       0.99939200       0.00039100       0.66679500 </v>
   <v>       0.28743600       0.83064000       0.51259700 </v>
   <v>       0.73877800       0.83547600       0.83150900 </v>
   <v>       0.25721700       0.16652900       0.15823700 </v>
   <v>       0.97402300       0.67956200       0.00175400 </v>
   <v>       0.50016700       0.00740700       0.67646000 </v>
   <v>       0.73411600       0.17039200       0.82600100 </v>
   <v>       0.74830700       0.83514400       0.17300000 </v>
   <v>       0.26709300       0.16018700       0.82622900 </v>
  </varray>
 </structure>
 <calculation>
  <scstep>
   <time name="dav">    1.03    1.04</time>
   <time name="total">    1.09    1.49</time>
   <energy>
    <i name="alphaZ">   1410.43267857 </i>
    <i name="ewald"> -16537.99727107 </i>
    <i name="hartreedc">  -6637.24336759 </i>
    <i name="XCdc">   -569.59537885 </i>
    <i name="pawpsdc">  19106.14970124 </i>
    <i name="pawaedc"> -17380.10799147 </i>
    <i name="eentropy">     -0.00656891 </i>
    <i name="bandstr">     43.28302399 </i>
    <i name="atom">  22146.95360292 </i>
    <i name="e_fr_energy">   1581.86842882 </i>
    <i name="e_wo_entrp">   1581.87499773 </i>
    <i name="e_0_energy">   1581.87061845 </i>
   </energy>
  </scstep>
  <scstep>
   <time name="dav">    0.96    1.01</time>
   <time name="total">    0.96    1.17</time>
   <energy>
    <i name="e_fr_energy">   -128.08722852 </i>
    <i name="e_wo_entrp">   -128.08547171 </i>
    <i name="e_0_energy">   -128.08664292 </i>
   </energy>
  </scstep>
  <scstep>
   <time name="dav">    1.42    1.58</time>
   <time name="total">    1.43    1.66</time>
   <energy>
    <i name="e_fr_energy">   -352.83755909 </i>
    <i name="e_wo_entrp">   -352.82778036 </i>
    <i name="e_0_energy">   -352.83429952 </i>
   </energy>
  </scstep>
  <scstep>
   <time name="dav">    1.41    1.51</time>
   <time name="total">    1.41    1.57</time>
   <energy>
    <i name="e_fr_energy">   -379.39962312 </i>
    <i name="e_wo_entrp">   -379.40435119 </i>
    <i name="e_0_energy">   -379.40119914 </i>
   </energy>
  </scstep>
  <scstep>
   <time name="dav">    1.23    1.24</time>
   <time name="total">    1.26    1.31</time>
   <energy>
    <i name="e_fr_energy">   -382.20787578 </i>
    <i name="e_wo_entrp">   -382.21329577 </i>
    <i name="e_0_energy">   -382.20968245 </i>
   </energy>
  </scstep>
  <scstep>
   <time name="diag">    0.08    0.08</time>
   <time name="diis">    0.68    0.69</time>
   <time name="orth">    0.01    0.01</time>
   <time name="total">    0.84    0.90</time>
   <energy>
    <i name="e_fr_energy">   -371.90227908 </i>
    <i name="e_wo_entrp">   -371.90688005 </i>
    <i name="e_0_energy">   -371.90381273 </i>
   </energy>
  </scstep>
  <scstep>
   <time name="diag">    0.07    0.07</time>
   <time name="diis">    0.70    0.73</time>
   <time name="orth">    0.01    0.01</time>
   <time name="total">    0.85    0.92</time>
   <energy>
    <i name="e_fr_energy">   -371.04020687 </i>
    <i name="e_wo_entrp">   -371.06022445 </i>
    <i name="e_0_energy">   -371.04687940 </i>
   </energy>
  </scstep>
  <scstep>
   <time name="diag">    0.07    0.07</time>
   <time name="diis">    0.74    0.75</time>
   <time name="orth">    0.01    0.01</time>
   <time name="total">    0.88    0.93</time>
   <energy>
    <i name="e_fr_energy">   -367.61951981 </i>
    <i name="e_wo_entrp">   -367.63992967 </i>
    <i name="e_0_energy">   -367.62632310 </i>
   </energy>
  </scstep>
  <scstep>
   <time name="diag">    0.07    0.07</time>
   <time name="diis">    0.78    0.79</time>
   <time name="orth">    0.01    0.01</time>
   <time name="total">    0.95    1.00</time>
   <energy>
    <i name="e_fr_energy">   -367.44506470 </i>
    <i name="e_wo_entrp">   -367.46207125 </i>
    <i name="e_0_energy">   -367.45073355 </i>
   </energy>
  </scstep>
  <scstep>
   <time name="diag">    0.11    0.11</time>
   <time name="diis">    0.76    0.77</time>
   <time name="orth">    0.01    0.01</time>
   <time name="total">    0.95    1.00</time>
   <energy>
    <i name="e_fr_energy">   -367.41032890 </i>
    <i name="e_wo_entrp">   -367.42970546 </i>
    <i name="e_0_energy">   -367.41678775 </i>
   </energy>
  </scstep>
  <scstep>
   <time name="diag">    0.07    0.07</time>
   <time name="diis">    0.82    0.82</time>
   <time name="orth">    0.01    0.01</time>
   <time name="total">    0.97    1.02</time>
   <energy>
    <i name="e_fr_energy">   -367.39237641 </i>
    <i name="e_wo_entrp">   -367.41244044 </i>
    <i name="e_0_energy">   -367.39906442 </i>
   </energy>
  </scstep>
  <scstep>
   <time name="diag">    0.07    0.12</time>
   <time name="diis">    0.66    0.87</time>
   <time name="orth">    0.01    0.01</time>
   <time name="total">    0.83    1.20</time>
   <energy>
    <i name="e_fr_energy">   -367.39234763 </i>
    <i name="e_wo_entrp">   -367.41316866 </i>
    <i name="e_0_energy">   -367.39928797 </i>
   </energy>
  </scstep>
  <scstep>
   <time name="diag">    0.07    0.08</time>
   <time name="diis">    0.81    0.86</time>
   <time name="orth">    0.01    0.01</time>
   <time name="total">    0.95    1.07</time>
   <energy>
    <i name="e_fr_energy">   -367.39090409 </i>
    <i name="e_wo_entrp">   -367.41172359 </i>
    <i name="e_0_energy">   -367.39784393 </i>
   </energy>
  </scstep>
  <scstep>
   <time name="diag">    0.08    0.10</time>
   <time name="diis">    0.75    0.81</time>
   <time name="orth">    0.01    0.01</time>
   <time name="total">    0.90    1.04</time>
   <energy>
    <i name="e_fr_energy">   -367.39141039 </i>
    <i name="e_wo_entrp">   -367.41232189 </i>
    <i name="e_0_energy">   -367.39838089 </i>
   </energy>
  </scstep>
  <scstep>
   <time name="diag">    0.07    0.07</time>
   <time name="diis">    0.74    0.75</time>
   <time name="orth">    0.01    0.01</time>
   <time name="total">    0.89    0.94</time>
   <energy>
    <i name="e_fr_energy">   -367.39159660 </i>
    <i name="e_wo_entrp">   -367.41231292 </i>
    <i name="e_0_energy">   -367.39850204 </i>
   </energy>
  </scstep>
  <scstep>
   <time name="diag">    0.08    0.08</time>
   <time name="diis">    0.65    0.65</time>
   <time name="orth">    0.01    0.01</time>
   <time name="total">    0.81    0.85</time>
   <energy>
    <i name="e_fr_energy">   -367.39169992 </i>
    <i name="e_wo_entrp">   -367.41254590 </i>
    <i name="e_0_energy">   -367.39864858 </i>
   </energy>
  </scstep>
  <scstep>
   <time name="diag">    0.07    0.07</time>
   <time name="diis">    0.59    0.60</time>
   <time name="orth">    0.01    0.01</time>
   <time name="total">    0.73    0.78</time>
   <energy>
    <i name="e_fr_energy">   -367.39173953 </i>
    <i name="e_wo_entrp">   -367.41257903 </i>
    <i name="e_0_energy">   -367.39868603 </i>
   </energy>
  </scstep>
  <scstep>
   <time name="diag">    0.07    0.07</time>
   <time name="diis">    0.57    0.58</time>
   <time name="orth">    0.01    0.01</time>
   <time name="total">    0.72    0.76</time>
   <energy>
    <i name="e_fr_energy">   -367.39176553 </i>
    <i name="e_wo_entrp">   -367.41263030 </i>
    <i name="e_0_energy">   -367.39872045 </i>
   </energy>
  </scstep>
  <scstep>
   <time name="diag">    0.07    0.07</time>
   <time name="diis">    0.44    0.45</time>
   <time name="orth">    0.01    0.01</time>
   <time name="total">    0.59    0.63</time>
   <energy>
    <i name="e_fr_energy">   -367.39177198 </i>
    <i name="e_wo_entrp">   -367.41264627 </i>
    <i name="e_0_energy">   -367.39873007 </i>
   </energy>
  </scstep>
  <scstep>
   <time name="diag">    0.07    0.07</time>
   <time name="diis">    0.45    0.46</time>
   <time name="orth">    0.02    0.02</time>
   <time name="total">    0.58    0.62</time>
   <energy>
    <i name="alphaZ">   1410.43267857 </i>
    <i name="ewald"> -16537.99727107 </i>
    <i name="hartreedc">  -6440.15413913 </i>
    <i name="XCdc">   -565.62265428 </i>
    <i name="pawpsdc">  31836.36156503 </i>
    <i name="pawaedc"> -30097.32287766 </i>
    <i name="eentropy">      0.02087398 </i>
    <i name="bandstr">  -2120.06355607 </i>
    <i name="atom">  22146.95360292 </i>
    <i name="e_fr_energy">   -367.39177772 </i>
    <i name="e_wo_entrp">   -367.41265169 </i>
    <i name="e_0_energy">   -367.39873571 </i>
   </energy>
  </scstep>
  <structure>
   <crystal>
    <varray name="basis" >
     <v>       6.94980827      -0.01483523       0.01890569 </v>
     <v>      -0.02154451      10.19213495       0.01047545 </v>
     <v>       0.02826376       0.01004147      10.16300820 </v>
    </varray>
    <i name="volume">    719.87082598 </i>
    <varray name="rec_basis" >
     <v>       0.14389060       0.00030457      -0.00040047 </v>
     <v>       0.00020970       0.09811541      -0.00009753 </v>
     <v>      -0.00026789      -0.00010170       0.09839691 </v>
    </varray>
   </crystal>
   <varray name="positions" >
    <v>       0.25224100       0.17045100       0.51213900 </v>
    <v>       0.03709000       0.32633400       0.34383500 </v>
    <v>       0.01529600       0.33298700       0.66786300 </v>
    <v>       0.26053500       0.49809700       0.82954100 </v>
    <v>       0.25138500       0.82571100       0.15266300 </v>
    <v>       0.48465900       0.33354800       0.66607900 </v>
    <v>       0.48501700       0.32308100       0.99335200 </v>
    <v>       0.25115100       0.49992800       0.50638000 </v>
    <v>       0.47895400       0.66900800       0.32570700 </v>
    <v>       0.50607800       0.99947600       0.00349600 </v>
    <v>       0.49114700       0.65697000       0.67214600 </v>
    <v>       0.76263100       0.49333600       0.17164100 </v>
    <v>       0.25885700       0.82953500       0.83994200 </v>
    <v>       0.71730400       0.83143000       0.50234700 </v>
    <v>       0.74046600       0.48968100       0.83040400 </v>
    <v>       0.22757500       0.50789500       0.15591100 </v>
    <v>       0.02072300       0.68447300       0.34321300 </v>
    <v>       0.75226100       0.17600700       0.49676100 </v>
    <v>       0.46406300       0.33803100       0.33121200 </v>
    <v>       0.01919700       0.99766700       0.33571900 </v>
    <v>       0.75053100       0.18045400       0.17508100 </v>
    <v>       0.52168900       0.67097500       0.00676800 </v>
    <v>       0.74872000       0.49524900       0.49654600 </v>
    <v>       0.99208100       0.00065700       0.00012200 </v>
    <v>       0.01533000       0.31728000       0.98157000 </v>
    <v>       0.00470900       0.66634100       0.66508900 </v>
    <v>       0.48377400       0.99967900       0.32189100 </v>
    <v>       0.99939200       0.00039100       0.66679500 </v>
    <v>       0.28743600       0.83064000       0.51259700 </v>
    <v>       0.73877800       0.83547600       0.83150900 </v>
    <v>       0.25721700       0.16652900       0.15823700 </v>
    <v>       0.97402300       0.67956200       0.00175400 </v>
    <v>       0.50016700       0.00740700       0.67646000 </v>
    <v>       0.73411600       0.17039200       0.82600100 </v>
    <v>       0.74830700       0.83514400       0.17300000 </v>
    <v>       0.26709300       0.16018700       0.82622900 </v>
   </varray>
  </structure>
  <varray name="forces" >
   <v>       0.00997107       0.08728892      -0.01196123 </v>
   <v>      -0.01268108       0.00524180      -0.02398732 </v>
   <v>      -0.01316911      -0.01191765       0.03806220 </v>
   <v>      -0.00676738       0.00681480      -0.02929368 </v>
   <v>      -0.02288989      -0.01291214      -0.04978952 </v>
   <v>       0.03560577      -0.00634207       0.05196894 </v>
   <v>       0.01321591       0.01294837      -0.00413549 </v>
   <v>       0.01374764      -0.04728460      -0.00504759 </v>
   <v>       0.26028854      -0.42720590      -0.48333570 </v>
   <v>       0.03900630       0.01929669       0.00734696 </v>
   <v>       0.24086801      -0.50247392       0.41953271 </v>
   <v>      -0.00641352       0.03274547       0.01903643 </v>
   <v>      -0.01287591      -0.00618275       0.16956406 </v>
   <v>       0.38299767       0.02821365      -0.00437736 </v>
   <v>       0.00887752       0.04143208      -0.01869676 </v>
   <v>       0.01823456       0.02688121       0.02911477 </v>
   <v>      -0.26847852      -0.17350993      -0.23122858 </v>
   <v>      -0.05821764      -0.02013824      -0.01206404 </v>
   <v>       0.00740405       0.00436711      -0.02120931 </v>
   <v>      -0.19607685       0.14553129      -0.17349884 </v>
   <v>       0.01722079      -0.00303171       0.01137469 </v>
   <v>       0.01555085      -0.01163935       0.00830973 </v>
   <v>      -0.03074531       0.01396048      -0.00918915 </v>
   <v>      -0.02969967       0.02613232      -0.02724625 </v>
   <v>      -0.00836538      -0.00725968      -0.01084818 </v>
   <v>      -0.22447344      -0.15905503       0.16173378 </v>
   <v>       0.07659894       0.18034834      -0.24879952 </v>
   <v>      -0.23690512       0.13334266       0.13229236 </v>
   <v>      -0.17927904       0.31587237       0.07706573 </v>
   <v>      -0.07016106      -0.00317997      -0.05801334 </v>
   <v>       0.00512201      -0.02553726       0.02472408 </v>
   <v>      -0.01497972      -0.00479568       0.00644932 </v>
   <v>       0.27889974       0.40153674       0.35127976 </v>
   <v>      -0.00331466      -0.04515752      -0.01959561 </v>
   <v>      -0.03607312      -0.00910694      -0.02054430 </v>
   <v>       0.00795705      -0.00522399      -0.04499376 </v>
  </varray>
  <varray name="stress" >
   <v>       8.04594278      -0.38031385       0.10991666 </v>
   <v>      -0.38031384       8.39760076       0.28325454 </v>
   <v>       0.10991665       0.28325455       9.18830282 </v>
  </varray>
  <energy>
   <i name="e_fr_energy">   -367.39177772 </i>
   <i name="e_wo_entrp">   -367.39873571 </i>
   <i name="e_0_energy">      0.02087398 </i>
  </energy>
  <time name="totalsc">   20.26   22.64</time>
 </calculation>
 <calculation>
  <scstep>
   <time name="dav">    0.95    0.96</time>
   <time name="total">    1.04    1.25</time>
   <energy>
    <i name="alphaZ">   1403.92261389 </i>
    <i name="ewald"> -16511.93921755 </i>
    <i name="hartreedc">  -6430.94625493 </i>
    <i name="XCdc">   -566.78063659 </i>
    <i name="pawpsdc">  31836.20602055 </i>
    <i name="pawaedc"> -30097.16444171 </i>
    <i name="eentropy">      0.02222161 </i>
    <i name="bandstr">  -2147.74075727 </i>
    <i name="atom">  22146.95360292 </i>
    <i name="e_fr_energy">   -367.46684908 </i>
    <i name="e_wo_entrp">   -367.48907069 </i>
    <i name="e_0_energy">   -367.47425628 </i>
   </energy>
  </scstep>
  <scstep>
   <time name="diag">    0.08    0.08</time>
   <time name="diis">    0.73    0.73</time>
   <time name="orth">    0.01    0.01</time>
   <time name="total">    0.95    1.00</time>
   <energy>
    <i name="e_fr_energy">   -367.45223802 </i>
    <i name="e_wo_entrp">   -367.47305322 </i>
    <i name="e_0_energy">   -367.45917642 </i>
   </energy>
  </scstep>
  <scstep>
   <time name="diag">    0.07    0.07</time>
   <time name="diis">    0.79    0.80</time>
   <time name="orth">    0.01    0.01</time>
   <time name="total">    0.95    0.99</time>
   <energy>
    <i name="e_fr_energy">   -367.44028212 </i>
    <i name="e_wo_entrp">   -367.46290969 </i>
    <i name="e_0_energy">   -367.44782464 </i>
   </energy>
  </scstep>
  <scstep>
   <time name="diag">    0.08    0.08</time>
   <time name="diis">    0.77    0.78</time>
   <time name="orth">    0.01    0.01</time>
   <time name="total">    0.92    0.98</time>
   <energy>
    <i name="e_fr_energy">   -367.43329211 </i>
    <i name="e_wo_entrp">   -367.45474842 </i>
    <i name="e_0_energy">   -367.44044421 </i>
   </energy>
  </scstep>
  <scstep>
   <time name="diag">    0.07    0.07</time>
   <time name="diis">    0.74    0.75</time>
   <time name="orth">    0.01    0.01</time>
   <time name="total">    0.89    0.94</time>
   <energy>
    <i name="e_fr_energy">   -367.43229395 </i>
    <i name="e_wo_entrp">   -367.45397694 </i>
    <i name="e_0_energy">   -367.43952161 </i>
   </energy>
  </scstep>
  <scstep>
   <time name="diag">    0.07    0.07</time>
   <time name="diis">    0.77    0.78</time>
   <time name="orth">    0.01    0.01</time>
   <time name="total">    0.92    0.96</time>
   <energy>
    <i name="e_fr_energy">   -367.43243227 </i>
    <i name="e_wo_entrp">   -367.45409475 </i>
    <i name="e_0_energy">   -367.43965309 </i>
   </energy>
  </scstep>
  <scstep>
   <time name="diag">    0.07    0.07</time>
   <time name="diis">    0.73    0.74</time>
   <time name="orth">    0.01    0.01</time>
   <time name="total">    0.88    0.93</time>
   <energy>
    <i name="e_fr_energy">   -367.43240066 </i>
    <i name="e_wo_entrp">   -367.45403343 </i>
    <i name="e_0_energy">   -367.43961158 </i>
   </energy>
  </scstep>
  <scstep>
   <time name="diag">    0.07    0.07</time>
   <time name="diis">    0.67    0.68</time>
   <time name="orth">    0.01    0.01</time>
   <time name="total">    0.81    0.86</time>
   <energy>
    <i name="e_fr_energy">   -367.43243465 </i>
    <i name="e_wo_entrp">   -367.45411478 </i>
    <i name="e_0_energy">   -367.43966136 </i>
   </energy>
  </scstep>
  <scstep>
   <time name="diag">    0.07    0.07</time>
   <time name="diis">    0.68    0.68</time>
   <time name="orth">    0.01    0.01</time>
   <time name="total">    0.86    0.90</time>
   <energy>
    <i name="e_fr_energy">   -367.43245896 </i>
    <i name="e_wo_entrp">   -367.45410595 </i>
    <i name="e_0_energy">   -367.43967462 </i>
   </energy>
  </scstep>
  <scstep>
   <time name="diag">    0.08    0.08</time>
   <time name="diis">    0.51    0.51</time>
   <time name="orth">    0.01    0.01</time>
   <time name="total">    0.63    0.67</time>
   <energy>
    <i name="alphaZ">   1403.92261389 </i>
    <i name="ewald"> -16511.93921755 </i>
    <i name="hartreedc">  -6446.99723990 </i>
    <i name="XCdc">   -566.11905380 </i>
    <i name="pawpsdc">  31617.86228293 </i>
    <i name="pawaedc"> -29878.92399094 </i>
    <i name="eentropy">      0.02166266 </i>
    <i name="bandstr">  -2132.21312735 </i>
    <i name="atom">  22146.95360292 </i>
    <i name="e_fr_energy">   -367.43246713 </i>
    <i name="e_wo_entrp">   -367.45412980 </i>
    <i name="e_0_energy">   -367.43968802 </i>
   </energy>
  </scstep>
  <structure>
   <crystal>
    <varray name="basis" >
     <v>       6.95991018      -0.01533420       0.01907430 </v>
     <v>      -0.02227578      10.20759713       0.01101389 </v>
     <v>       0.02850593       0.01057475      10.17987681 </v>
    </varray>
    <i name="volume">    723.20890572 </i>
    <varray name="rec_basis" >
     <v>       0.14368181       0.00031399      -0.00040267 </v>
     <v>       0.00021612       0.09796683      -0.00010237 </v>
     <v>      -0.00026945      -0.00010658       0.09823388 </v>
    </varray>
   </crystal>
   <varray name="positions" >
    <v>       0.25226222       0.17057500       0.51212180 </v>
    <v>       0.03706375       0.32634144       0.34380088 </v>
    <v>       0.01526830       0.33296998       0.66791727 </v>
    <v>       0.26052111       0.49810670       0.82949930 </v>
    <v>       0.25133756       0.82569267       0.15259220 </v>
    <v>       0.48473282       0.33353903       0.66615288 </v>
    <v>       0.48504460       0.32309943       0.99334604 </v>
    <v>       0.25117945       0.49986090       0.50637283 </v>
    <v>       0.47949697       0.66840284       0.32501831 </v>
    <v>       0.50615927       0.99950351       0.00350628 </v>
    <v>       0.49164396       0.65625662       0.67274325 </v>
    <v>       0.76261768       0.49338245       0.17166809 </v>
    <v>       0.25882918       0.82952594       0.84018353 </v>
    <v>       0.71810174       0.83147123       0.50233924 </v>
    <v>       0.74048478       0.48973989       0.83037728 </v>
    <v>       0.22761292       0.50793319       0.15595235 </v>
    <v>       0.02016447       0.68422613       0.34288501 </v>
    <v>       0.75213974       0.17597824       0.49674408 </v>
    <v>       0.46407856       0.33803725       0.33118176 </v>
    <v>       0.01879032       0.99787330       0.33547247 </v>
    <v>       0.75056678       0.18044973       0.17509714 </v>
    <v>       0.52172129       0.67095851       0.00677979 </v>
    <v>       0.74865609       0.49526874       0.49653301 </v>
    <v>       0.99201942       0.00069406       0.00008328 </v>
    <v>       0.01531261       0.31726968       0.98155459 </v>
    <v>       0.00423990       0.66611423       0.66532043 </v>
    <v>       0.48393575       0.99993568       0.32153613 </v>
    <v>       0.99889847       0.00057944       0.66698412 </v>
    <v>       0.28706360       0.83108789       0.51270698 </v>
    <v>       0.73863221       0.83547135       0.83142666 </v>
    <v>       0.25722741       0.16649272       0.15827223 </v>
    <v>       0.97399175       0.67955514       0.00176325 </v>
    <v>       0.50074754       0.00797753       0.67695858 </v>
    <v>       0.73410901       0.17032789       0.82597317 </v>
    <v>       0.74823196       0.83513099       0.17297090 </v>
    <v>       0.26710981       0.16017967       0.82616490 </v>
   </varray>
  </structure>
  <varray name="forces" >
   <v>       0.00179450       0.08339658      -0.00290392 </v>
   <v>       0.00415788      -0.00072643      -0.00747696 </v>
   <v>       0.00728458      -0.01029150       0.02174958 </v>
   <v>       0.00180104      -0.01616315      -0.02695697 </v>
   <v>      -0.01438022      -0.02467003      -0.04791873 </v>
   <v>       0.01327050       0.00152065       0.04401009 </v>
   <v>      -0.00515922      -0.01111444      -0.01823368 </v>
   <v>       0.01769072      -0.04346563       0.00042888 </v>
   <v>       0.21759371      -0.34253938      -0.42001798 </v>
   <v>       0.02701021       0.00939288       0.00764841 </v>
   <v>       0.19788517      -0.42594303       0.35915877 </v>
   <v>       0.00110791       0.01993130       0.01041932 </v>
   <v>      -0.00063791      -0.00887325       0.14575888 </v>
   <v>       0.28558601       0.01481485       0.00063872 </v>
   <v>       0.00696355       0.01590673      -0.00490937 </v>
   <v>       0.00839998       0.01702871       0.01980329 </v>
   <v>      -0.22033589      -0.14184939      -0.19998387 </v>
   <v>      -0.04773278      -0.00453186      -0.00909402 </v>
   <v>      -0.00742793       0.00210318      -0.00891297 </v>
   <v>      -0.16209897       0.12955529      -0.15894549 </v>
   <v>       0.01252849       0.01586213       0.00428237 </v>
   <v>       0.01215786       0.00197866       0.00654096 </v>
   <v>      -0.03277284       0.00197279      -0.00174986 </v>
   <v>      -0.02744415       0.01325363      -0.02252843 </v>
   <v>       0.00824601      -0.01029413      -0.02072567 </v>
   <v>      -0.18756791      -0.14011108       0.13607547 </v>
   <v>       0.05941682       0.14800227      -0.22920805 </v>
   <v>      -0.20891574       0.12821528       0.12502952 </v>
   <v>      -0.10840521       0.24440416       0.06678394 </v>
   <v>      -0.07188993      -0.00406848      -0.04726141 </v>
   <v>       0.00819855      -0.00082356       0.01068396 </v>
   <v>      -0.01482396       0.01226619       0.01098198 </v>
   <v>       0.25123126       0.36008711       0.32257857 </v>
   <v>      -0.01619760      -0.02547888      -0.00935584 </v>
   <v>      -0.03876578      -0.01767380      -0.02223281 </v>
   <v>       0.02223129       0.00892564      -0.03415669 </v>
  </varray>
  <varray name="stress" >
   <v>       1.56396490      -0.27604587       0.11780402 </v>
   <v>      -0.27604583       1.87062707       0.21309289 </v>
   <v>       0.11780405       0.21309294       2.49644331 </v>
  </varray>
  <energy>
   <i name="e_fr_energy">   -367.43246713 </i>
   <i name="e_wo_entrp">   -367.43968802 </i>
   <i name="e_0_energy">      0.02166266 </i>
  </energy>
  <time name="totalsc">   10.37   11.21</time>
 </calculation>
 <calculation>
  <scstep>
   <time name="dav">    1.03    1.05</time>
   <time name="total">    1.12    1.32</time>
   <energy>
    <i name="alphaZ">   1389.61690945 </i>
    <i name="ewald"> -16453.79357581 </i>
    <i name="hartreedc">  -6427.01324569 </i>
    <i name="XCdc">   -568.68232865 </i>
    <i name="pawpsdc">  31617.50781880 </i>
    <i name="pawaedc"> -29878.68362508 </i>
    <i name="eentropy">      0.02407330 </i>
    <i name="bandstr">  -2193.55536337 </i>
    <i name="atom">  22146.95360292 </i>
    <i name="e_fr_energy">   -367.62573412 </i>
    <i name="e_wo_entrp">   -367.64980743 </i>
    <i name="e_0_energy">   -367.63375856 </i>
   </energy>
  </scstep>
  <scstep>
   <time name="diag">    0.12    0.12</time>
   <time name="diis">    0.72    0.73</time>
   <time name="orth">    0.01    0.01</time>
   <time name="total">    0.93    0.98</time>
   <energy>
    <i name="e_fr_energy">   -367.55353169 </i>
    <i name="e_wo_entrp">   -367.57500879 </i>
    <i name="e_0_energy">   -367.56069073 </i>
   </energy>
  </scstep>
  <scstep>
   <time name="diag">    0.07    0.07</time>
   <time name="diis">    0.74    0.75</time>
   <time name="orth">    0.01    0.01</time>
   <time name="total">    0.88    0.93</time>
   <energy>
    <i name="e_fr_energy">   -367.49293658 </i>
    <i name="e_wo_entrp">   -367.51798549 </i>
    <i name="e_0_energy">   -367.50128622 </i>
   </energy>
  </scstep>
  <scstep>
   <time name="diag">    0.07    0.07</time>
   <time name="diis">    0.74    0.75</time>
   <time name="orth">    0.01    0.01</time>
   <time name="total">    0.89    0.94</time>
   <energy>
    <i name="e_fr_energy">   -367.45979897 </i>
    <i name="e_wo_entrp">   -367.48247196 </i>
    <i name="e_0_energy">   -367.46735663 </i>
   </energy>
  </scstep>
  <scstep>
   <time name="diag">    0.07    0.07</time>
   <time name="diis">    0.69    0.79</time>
   <time name="orth">    0.01    0.02</time>
   <time name="total">    0.83    1.01</time>
   <energy>
    <i name="e_fr_energy">   -367.45469602 </i>
    <i name="e_wo_entrp">   -367.47791833 </i>
    <i name="e_0_energy">   -367.46243679 </i>
   </energy>
  </scstep>
  <scstep>
   <time name="diag">    0.07    0.07</time>
   <time name="diis">    0.78    0.80</time>
   <time name="orth">    0.01    0.01</time>
   <time name="total">    0.93    0.99</time>
   <energy>
    <i name="e_fr_energy">   -367.45549652 </i>
    <i name="e_wo_entrp">   -367.47864048 </i>
    <i name="e_0_energy">   -367.46321117 </i>
   </energy>
  </scstep>
  <scstep>
   <time name="diag">    0.07    0.07</time>
   <time name="diis">    0.89    0.90</time>
   <time name="orth">    0.01    0.01</time>
   <time name="total">    1.04    1.09</time>
   <energy>
    <i name="e_fr_energy">   -367.45545713 </i>
    <i name="e_wo_entrp">   -367.47853614 </i>
    <i name="e_0_energy">   -367.46315013 </i>
   </energy>
  </scstep>
  <scstep>
   <time name="diag">    0.07    0.07</time>
   <time name="diis">    0.81    0.82</time>
   <time name="orth">    0.01    0.01</time>
   <time name="total">    0.95    1.00</time>
   <energy>
    <i name="e_fr_energy">   -367.45567117 </i>
    <i name="e_wo_entrp">   -367.47885767 </i>
    <i name="e_0_energy">   -367.46340000 </i>
   </energy>
  </scstep>
  <scstep>
   <time name="diag">    0.07    0.07</time>
   <time name="diis">    0.74    0.75</time>
   <time name="orth">    0.01    0.01</time>
   <time name="total">    0.89    0.94</time>
   <energy>
    <i name="e_fr_energy">   -367.45583481 </i>
    <i name="e_wo_entrp">   -367.47894527 </i>
    <i name="e_0_energy">   -367.46353829 </i>
   </energy>
  </scstep>
  <scstep>
   <time name="diag">    0.08    0.08</time>
   <time name="diis">    0.69    0.70</time>
   <time name="orth">    0.01    0.01</time>
   <time name="total">    0.85    0.92</time>
   <energy>
    <i name="e_fr_energy">   -367.45592786 </i>
    <i name="e_wo_entrp">   -367.47906872 </i>
    <i name="e_0_energy">   -367.46364148 </i>
   </energy>
  </scstep>
  <scstep>
   <time name="diag">    0.07    0.07</time>
   <time name="diis">    0.57    0.58</time>
   <time name="orth">    0.01    0.01</time>
   <time name="total">    0.71    0.76</time>
   <energy>
    <i name="e_fr_energy">   -367.45594169 </i>
    <i name="e_wo_entrp">   -367.47907709 </i>
    <i name="e_0_energy">   -367.46365349 </i>
   </energy>
  </scstep>
  <scstep>
   <time name="diag">    0.07    0.07</time>
   <time name="diis">    0.59    0.60</time>
   <time name="orth">    0.02    0.02</time>
   <time name="total">    0.71    0.77</time>
   <energy>
    <i name="alphaZ">   1389.61690945 </i>
    <i name="ewald"> -16453.79357581 </i>
    <i name="hartreedc">  -6462.15923065 </i>
    <i name="XCdc">   -567.23511669 </i>
    <i name="pawpsdc">  31146.56451750 </i>
    <i name="pawaedc"> -29408.47308181 </i>
    <i name="eentropy">      0.02313586 </i>
    <i name="bandstr">  -2158.95310079 </i>
    <i name="atom">  22146.95360292 </i>
    <i name="e_fr_energy">   -367.45594002 </i>
    <i name="e_wo_entrp">   -367.47907588 </i>
    <i name="e_0_energy">   -367.46365197 </i>
   </energy>
  </scstep>
  <structure>
   <crystal>
    <varray name="basis" >
     <v>       6.98233024      -0.01644160       0.01944849 </v>
     <v>      -0.02389875      10.24191372       0.01220889 </v>
     <v>       0.02904340       0.01175830      10.21731478 </v>
    </varray>
    <i name="volume">    730.65413237 </i>
    <varray name="rec_basis" >
     <v>       0.14322059       0.00033468      -0.00040750 </v>
     <v>       0.00023023       0.09763867      -0.00011302 </v>
     <v>      -0.00027289      -0.00011731       0.09787398 </v>
    </varray>
   </crystal>
   <varray name="positions" >
    <v>       0.25230927       0.17084978       0.51208367 </v>
    <v>       0.03700559       0.32635792       0.34372529 </v>
    <v>       0.01520691       0.33293226       0.66803753 </v>
    <v>       0.26049032       0.49812819       0.82940690 </v>
    <v>       0.25123244       0.82565204       0.15243534 </v>
    <v>       0.48489641       0.33351915       0.66631657 </v>
    <v>       0.48510578       0.32314028       0.99333283 </v>
    <v>       0.25124249       0.49971222       0.50635694 </v>
    <v>       0.48070019       0.66706192       0.32349243 </v>
    <v>       0.50633939       0.99956448       0.00352906 </v>
    <v>       0.49274511       0.65467575       0.67406666 </v>
    <v>       0.76258816       0.49348539       0.17172810 </v>
    <v>       0.25876750       0.82950584       0.84071870 </v>
    <v>       0.71986968       0.83156269       0.50232202 </v>
    <v>       0.74052641       0.48987039       0.83031807 </v>
    <v>       0.22769697       0.50801781       0.15604397 </v>
    <v>       0.01892664       0.68367903       0.34215832 </v>
    <v>       0.75187101       0.17591451       0.49670658 </v>
    <v>       0.46411305       0.33805112       0.33111476 </v>
    <v>       0.01788910       0.99833047       0.33492622 </v>
    <v>       0.75064608       0.18044027       0.17513289 </v>
    <v>       0.52179283       0.67092196       0.00680592 </v>
    <v>       0.74851445       0.49531249       0.49650424 </v>
    <v>       0.99188297       0.00077617      -0.00000253 </v>
    <v>       0.01527407       0.31724681       0.98152046 </v>
    <v>       0.00320022       0.66561163       0.66583324 </v>
    <v>       0.48429431       0.00050454       0.32074980 </v>
    <v>       0.99780474       0.00099696       0.66740314 </v>
    <v>       0.28623838       0.83208037       0.51295062 </v>
    <v>       0.73830913       0.83546105       0.83124423 </v>
    <v>       0.25725047       0.16641231       0.15835028 </v>
    <v>       0.97392248       0.67953992       0.00178375 </v>
    <v>       0.50203422       0.00924186       0.67806320 </v>
    <v>       0.73409351       0.17018583       0.82591153 </v>
    <v>       0.74806565       0.83510215       0.17290642 </v>
    <v>       0.26714706       0.16016343       0.82602288 </v>
   </varray>
  </structure>
  <varray name="forces" >
   <v>      -0.01593663       0.07759977       0.01313702 </v>
   <v>       0.04031498      -0.01378684       0.02567211 </v>
   <v>       0.05329177      -0.00730839      -0.01266719 </v>
   <v>       0.02182274      -0.06730486      -0.02102282 </v>
   <v>       0.00368932      -0.04870884      -0.04115010 </v>
   <v>      -0.03666534       0.01846269       0.02852961 </v>
   <v>      -0.04460701      -0.06249956      -0.04868557 </v>
   <v>       0.02556645      -0.04006574       0.01226993 </v>
   <v>       0.13244478      -0.16847059      -0.29379103 </v>
   <v>       0.00082446      -0.01189408       0.00960045 </v>
   <v>       0.10903030      -0.26982133       0.23630591 </v>
   <v>       0.01666256      -0.00897812      -0.00811720 </v>
   <v>       0.02612279      -0.01508586       0.09938554 </v>
   <v>       0.08858040      -0.01260815       0.01010349 </v>
   <v>       0.00135015      -0.04032151       0.02726631 </v>
   <v>      -0.01129545      -0.00331520       0.00060920 </v>
   <v>      -0.11998498      -0.07261660      -0.13739598 </v>
   <v>      -0.02552687       0.02895095      -0.00420404 </v>
   <v>      -0.03964004      -0.00213044       0.01563889 </v>
   <v>      -0.08764791       0.09484005      -0.12894366 </v>
   <v>       0.00168810       0.05740860      -0.01271629 </v>
   <v>       0.00249833       0.02929729       0.00381066 </v>
   <v>      -0.03774892      -0.01934623       0.01484336 </v>
   <v>      -0.02272751      -0.01380266      -0.01131762 </v>
   <v>       0.04537048      -0.01840617      -0.04130679 </v>
   <v>      -0.10924512      -0.09910290       0.08219031 </v>
   <v>       0.02156941       0.08000429      -0.18817030 </v>
   <v>      -0.14873845       0.11608596       0.11029165 </v>
   <v>       0.03174374       0.10305669       0.04743243 </v>
   <v>      -0.07722607      -0.00573595      -0.02494658 </v>
   <v>       0.01380779       0.05108616      -0.02076122 </v>
   <v>      -0.01617654       0.05067087       0.02206404 </v>
   <v>       0.19347294       0.27585881       0.26281715 </v>
   <v>      -0.04408383       0.01497138       0.01287417 </v>
   <v>      -0.04476053      -0.03767982      -0.02830610 </v>
   <v>       0.05215971       0.04069631      -0.01133973 </v>
  </varray>
  <varray name="stress" >
   <v>     -12.81374044      -0.07550288       0.12232816 </v>
   <v>      -0.07550291     -12.67390841       0.04770004 </v>
   <v>       0.12232820       0.04770001     -12.36951725 </v>
  </varray>
  <energy>
   <i name="e_fr_energy">   -367.45594002 </i>
   <i name="e_wo_entrp">   -367.46365197 </i>
   <i name="e_0_energy">      0.02313586 </i>
  </energy>
  <time name="totalsc">   12.25   13.31</time>
 </calculation>
 <calculation>
  <scstep>
   <time name="dav">    0.89    0.96</time>
   <time name="total">    0.96    1.22</time>
   <energy>
    <i name="alphaZ">   1392.94744633 </i>
    <i name="ewald"> -16467.43790207 </i>
    <i name="hartreedc">  -6466.71398505 </i>
    <i name="XCdc">   -566.63889412 </i>
    <i name="pawpsdc">  31145.84021537 </i>
    <i name="pawaedc"> -29407.79803559 </i>
    <i name="eentropy">      0.02246490 </i>
    <i name="bandstr">  -2144.64285305 </i>
    <i name="atom">  22146.95360292 </i>
    <i name="e_fr_energy">   -367.46794036 </i>
    <i name="e_wo_entrp">   -367.49040526 </i>
    <i name="e_0_energy">   -367.47542866 </i>
   </energy>
  </scstep>
  <scstep>
   <time name="diag">    0.08    0.08</time>
   <time name="diis">    0.73    0.74</time>
   <time name="orth">    0.01    0.01</time>
   <time name="total">    0.90    0.93</time>
   <energy>
    <i name="e_fr_energy">   -367.46383870 </i>
    <i name="e_wo_entrp">   -367.48696014 </i>
    <i name="e_0_energy">   -367.47154585 </i>
   </energy>
  </scstep>
  <scstep>
   <time name="diag">    0.07    0.07</time>
   <time name="diis">    0.74    0.74</time>
   <time name="orth">    0.01    0.01</time>
   <time name="total">    0.88    0.93</time>
   <energy>
    <i name="e_fr_energy">   -367.46046421 </i>
    <i name="e_wo_entrp">   -367.48283556 </i>
    <i name="e_0_energy">   -367.46792133 </i>
   </energy>
  </scstep>
  <scstep>
   <time name="diag">    0.07    0.07</time>
   <time name="diis">    0.81    0.82</time>
   <time name="orth">    0.01    0.01</time>
   <time name="total">    0.95    1.00</time>
   <energy>
    <i name="e_fr_energy">   -367.45865783 </i>
    <i name="e_wo_entrp">   -367.48159434 </i>
    <i name="e_0_energy">   -367.46630333 </i>
   </energy>
  </scstep>
  <scstep>
   <time name="diag">    0.07    0.07</time>
   <time name="diis">    0.75    0.76</time>
   <time name="orth">    0.01    0.01</time>
   <time name="total">    0.90    0.95</time>
   <energy>
    <i name="e_fr_energy">   -367.45840749 </i>
    <i name="e_wo_entrp">   -367.48121688 </i>
    <i name="e_0_energy">   -367.46601062 </i>
   </energy>
  </scstep>
  <scstep>
   <time name="diag">    0.07    0.07</time>
   <time name="diis">    0.75    0.76</time>
   <time name="orth">    0.01    0.01</time>
   <time name="total">    0.89    0.95</time>
   <energy>
    <i name="e_fr_energy">   -367.45847473 </i>
    <i name="e_wo_entrp">   -367.48129849 </i>
    <i name="e_0_energy">   -367.46608265 </i>
   </energy>
  </scstep>
  <scstep>
   <time name="diag">    0.07    0.07</time>
   <time name="diis">    0.64    0.65</time>
   <time name="orth">    0.01    0.01</time>
   <time name="total">    0.79    0.84</time>
   <energy>
    <i name="e_fr_energy">   -367.45848879 </i>
    <i name="e_wo_entrp">   -367.48133022 </i>
    <i name="e_0_energy">   -367.46610260 </i>
   </energy>
  </scstep>
  <scstep>
   <time name="diag">    0.07    0.07</time>
   <time name="diis">    0.55    0.56</time>
   <time name="orth">    0.01    0.01</time>
   <time name="total">    0.69    0.75</time>
   <energy>
    <i name="e_fr_energy">   -367.45851425 </i>
    <i name="e_wo_entrp">   -367.48133076 </i>
    <i name="e_0_energy">   -367.46611975 </i>
   </energy>
  </scstep>
  <scstep>
   <time name="diag">    0.07    0.07</time>
   <time name="diis">    0.40    0.44</time>
   <time name="orth">    0.01    0.02</time>
   <time name="total">    0.54    0.65</time>
   <energy>
    <i name="e_fr_energy">   -367.45853304 </i>
    <i name="e_wo_entrp">   -367.48136477 </i>
    <i name="e_0_energy">   -367.46614361 </i>
   </energy>
  </scstep>
  <scstep>
   <time name="diag">    0.10    0.11</time>
   <time name="diis">    0.42    0.42</time>
   <time name="orth">    0.01    0.01</time>
   <time name="total">    0.60    0.68</time>
   <energy>
    <i name="e_fr_energy">   -367.45854687 </i>
    <i name="e_wo_entrp">   -367.48137358 </i>
    <i name="e_0_energy">   -367.46615577 </i>
   </energy>
  </scstep>
  <scstep>
   <time name="diag">    0.07    0.07</time>
   <time name="diis">    0.33    0.34</time>
   <time name="orth">    0.01    0.01</time>
   <time name="total">    0.45    0.50</time>
   <energy>
    <i name="alphaZ">   1392.94744633 </i>
    <i name="ewald"> -16467.43790207 </i>
    <i name="hartreedc">  -6458.31086844 </i>
    <i name="XCdc">   -566.98429616 </i>
    <i name="pawpsdc">  31252.04236122 </i>
    <i name="pawaedc"> -29513.99437965 </i>
    <i name="eentropy">      0.02282892 </i>
    <i name="bandstr">  -2152.69734526 </i>
    <i name="atom">  22146.95360292 </i>
    <i name="e_fr_energy">   -367.45855218 </i>
    <i name="e_wo_entrp">   -367.48138111 </i>
    <i name="e_0_energy">   -367.46616183 </i>
   </energy>
  </scstep>
  <structure>
   <crystal>
    <varray name="basis" >
     <v>       6.97708315      -0.01618243       0.01936092 </v>
     <v>      -0.02351892      10.23388242       0.01192921 </v>
     <v>       0.02891761       0.01148130      10.20855296 </v>
    </varray>
    <i name="volume">    728.90713858 </i>
    <varray name="rec_basis" >
     <v>       0.14332826       0.00032986      -0.00040637 </v>
     <v>       0.00022694       0.09771528      -0.00011054 </v>
     <v>      -0.00027209      -0.00011481       0.09795798 </v>
    </varray>
   </crystal>
   <varray name="positions" >
    <v>       0.25229828       0.17078569       0.51209257 </v>
    <v>       0.03701916       0.32635408       0.34374291 </v>
    <v>       0.01522124       0.33294107       0.66800948 </v>
    <v>       0.26049750       0.49812318       0.82942845 </v>
    <v>       0.25125696       0.82566151       0.15247192 </v>
    <v>       0.48485825       0.33352379       0.66627840 </v>
    <v>       0.48509151       0.32313075       0.99333591 </v>
    <v>       0.25122779       0.49974690       0.50636064 </v>
    <v>       0.48041954       0.66737462       0.32384821 </v>
    <v>       0.50629737       0.99955025       0.00352375 </v>
    <v>       0.49248833       0.65504450       0.67375804 </v>
    <v>       0.76259504       0.49346138       0.17171411 </v>
    <v>       0.25878189       0.82951054       0.84059391 </v>
    <v>       0.71945724       0.83154131       0.50232605 </v>
    <v>       0.74051669       0.48983995       0.83033188 </v>
    <v>       0.22767736       0.50799807       0.15602261 </v>
    <v>       0.01921542       0.68380665       0.34232774 </v>
    <v>       0.75193371       0.17592938       0.49671532 </v>
    <v>       0.46410500       0.33804788       0.33113038 </v>
    <v>       0.01809931       0.99822384       0.33505360 </v>
    <v>       0.75062758       0.18044248       0.17512455 </v>
    <v>       0.52177614       0.67093049       0.00679982 </v>
    <v>       0.74854749       0.49530229       0.49651095 </v>
    <v>       0.99191480       0.00075702       0.00001748 </v>
    <v>       0.01528306       0.31725215       0.98152842 </v>
    <v>       0.00344279       0.66572890       0.66571364 </v>
    <v>       0.48421062       0.00037183       0.32093317 </v>
    <v>       0.99805988       0.00089961       0.66730544 </v>
    <v>       0.28643085       0.83184890       0.51289383 </v>
    <v>       0.73838449       0.83546346       0.83128676 </v>
    <v>       0.25724510       0.16643107       0.15833208 </v>
    <v>       0.97393864       0.67954347       0.00177897 </v>
    <v>       0.50173401       0.00894695       0.67780567 </v>
    <v>       0.73409713       0.17021897       0.82592590 </v>
    <v>       0.74810445       0.83510888       0.17292145 </v>
    <v>       0.26713837       0.16016722       0.82605600 </v>
   </varray>
  </structure>
  <varray name="forces" >
   <v>      -0.01189655       0.07874024       0.00894567 </v>
   <v>       0.03219407      -0.01111877       0.01780427 </v>
   <v>       0.04285730      -0.00829039      -0.00466675 </v>
   <v>       0.01733105      -0.05521936      -0.02241963 </v>
   <v>      -0.00046098      -0.04319742      -0.04214376 </v>
   <v>      -0.02535306       0.01462961       0.03223349 </v>
   <v>      -0.03550159      -0.05037248      -0.04137527 </v>
   <v>       0.02391393      -0.03990607       0.00924863 </v>
   <v>       0.15138084      -0.20850749      -0.32333412 </v>
   <v>       0.00671652      -0.00684645       0.00939626 </v>
   <v>       0.12947894      -0.30659961       0.26514459 </v>
   <v>       0.01275606      -0.00206698      -0.00385093 </v>
   <v>       0.02002958      -0.01387049       0.11012932 </v>
   <v>       0.13371216      -0.00618355       0.00764966 </v>
   <v>       0.00213001      -0.02681966       0.01975317 </v>
   <v>      -0.00672233       0.00131806       0.00548483 </v>
   <v>      -0.14282496      -0.08915559      -0.15192956 </v>
   <v>      -0.03074653       0.02111694      -0.00616057 </v>
   <v>      -0.03238837      -0.00159847       0.00939263 </v>
   <v>      -0.10511428       0.10304511      -0.13613210 </v>
   <v>       0.00423891       0.04776294      -0.00867220 </v>
   <v>       0.00431633       0.02269562       0.00426740 </v>
   <v>      -0.03655378      -0.01464303       0.01093656 </v>
   <v>      -0.02377908      -0.00717152      -0.01373933 </v>
   <v>       0.03696681      -0.01690181      -0.03652508 </v>
   <v>      -0.12677821      -0.10884786       0.09461758 </v>
   <v>       0.03012204       0.09551151      -0.19789579 </v>
   <v>      -0.16244637       0.11961902       0.11401411 </v>
   <v>       0.00108188       0.13526025       0.05195603 </v>
   <v>      -0.07604230      -0.00568073      -0.03057633 </v>
   <v>       0.01227182       0.03882131      -0.01305210 </v>
   <v>      -0.01598551       0.04201325       0.01964591 </v>
   <v>       0.20779680       0.29689219       0.27826143 </v>
   <v>      -0.03737834       0.00517280       0.00773920 </v>
   <v>      -0.04378412      -0.03263909      -0.02716952 </v>
   <v>       0.04446131       0.03303799      -0.01697770 </v>
  </varray>
  <varray name="stress" >
   <v>      -9.68677765      -0.11719450       0.11885440 </v>
   <v>      -0.11719444      -9.50172050       0.07912312 </v>
   <v>       0.11885440       0.07912310      -9.13264572 </v>
  </varray>
  <energy>
   <i name="e_fr_energy">   -367.45855218 </i>
   <i name="e_wo_entrp">   -367.46616183 </i>
   <i name="e_0_energy">      0.02282892 </i>
  </energy>
  <time name="totalsc">   10.07   11.04</time>
 </calculation>
 <calculation>
  <scstep>
   <time name="dav">    0.88    0.89</time>
   <time name="total">    0.96    1.14</time>
   <energy>
    <i name="alphaZ">   1395.89346998 </i>
    <i name="ewald"> -16476.95274559 </i>
    <i name="hartreedc">  -6464.97493331 </i>
    <i name="XCdc">   -566.45888995 </i>
    <i name="pawpsdc">  31252.10551617 </i>
    <i name="pawaedc"> -29514.04590273 </i>
    <i name="eentropy">      0.02285494 </i>
    <i name="bandstr">  -2140.03520116 </i>
    <i name="atom">  22146.95360292 </i>
    <i name="e_fr_energy">   -367.49222872 </i>
    <i name="e_wo_entrp">   -367.51508366 </i>
    <i name="e_0_energy">   -367.49984703 </i>
   </energy>
  </scstep>
  <scstep>
   <time name="diag">    0.07    0.07</time>
   <time name="diis">    0.69    0.70</time>
   <time name="orth">    0.01    0.01</time>
   <time name="total">    0.84    0.88</time>
   <energy>
    <i name="e_fr_energy">   -367.49881562 </i>
    <i name="e_wo_entrp">   -367.52278030 </i>
    <i name="e_0_energy">   -367.50680384 </i>
   </energy>
  </scstep>
  <scstep>
   <time name="diag">    0.07    0.07</time>
   <time name="diis">    0.79    0.80</time>
   <time name="orth">    0.01    0.01</time>
   <time name="total">    0.93    1.00</time>
   <energy>
    <i name="e_fr_energy">   -367.49304632 </i>
    <i name="e_wo_entrp">   -367.51594258 </i>
    <i name="e_0_energy">   -367.50067841 </i>
   </energy>
  </scstep>
  <scstep>
   <time name="diag">    0.07    0.07</time>
   <time name="diis">    0.76    0.77</time>
   <time name="orth">    0.01    0.01</time>
   <time name="total">    0.91    0.96</time>
   <energy>
    <i name="e_fr_energy">   -367.49190380 </i>
    <i name="e_wo_entrp">   -367.51518942 </i>
    <i name="e_0_energy">   -367.49966567 </i>
   </energy>
  </scstep>
  <scstep>
   <time name="diag">    0.07    0.07</time>
   <time name="diis">    0.75    0.75</time>
   <time name="orth">    0.01    0.01</time>
   <time name="total">    0.89    0.94</time>
   <energy>
    <i name="e_fr_energy">   -367.49169250 </i>
    <i name="e_wo_entrp">   -367.51492929 </i>
    <i name="e_0_energy">   -367.49943810 </i>
   </energy>
  </scstep>
  <scstep>
   <time name="diag">    0.13    0.13</time>
   <time name="diis">    0.84    0.86</time>
   <time name="orth">    0.01    0.01</time>
   <time name="total">    1.04    1.10</time>
   <energy>
    <i name="e_fr_energy">   -367.49173196 </i>
    <i name="e_wo_entrp">   -367.51499372 </i>
    <i name="e_0_energy">   -367.49948588 </i>
   </energy>
  </scstep>
  <scstep>
   <time name="diag">    0.07    0.07</time>
   <time name="diis">    0.72    0.72</time>
   <time name="orth">    0.01    0.01</time>
   <time name="total">    0.86    0.91</time>
   <energy>
    <i name="e_fr_energy">   -367.49175559 </i>
    <i name="e_wo_entrp">   -367.51498724 </i>
    <i name="e_0_energy">   -367.49949947 </i>
   </energy>
  </scstep>
  <scstep>
   <time name="diag">    0.09    0.11</time>
   <time name="diis">    0.62    0.63</time>
   <time name="orth">    0.01    0.01</time>
   <time name="total">    0.79    0.86</time>
   <energy>
    <i name="e_fr_energy">   -367.49178543 </i>
    <i name="e_wo_entrp">   -367.51502486 </i>
    <i name="e_0_energy">   -367.49953191 </i>
   </energy>
  </scstep>
  <scstep>
   <time name="diag">    0.07    0.07</time>
   <time name="diis">    0.47    0.48</time>
   <time name="orth">    0.01    0.01</time>
   <time name="total">    0.62    0.67</time>
   <energy>
    <i name="e_fr_energy">   -367.49179640 </i>
    <i name="e_wo_entrp">   -367.51504272 </i>
    <i name="e_0_energy">   -367.49954517 </i>
   </energy>
  </scstep>
  <scstep>
   <time name="diag">    0.07    0.07</time>
   <time name="diis">    0.41    0.41</time>
   <time name="orth">    0.01    0.01</time>
   <time name="total">    0.52    0.57</time>
   <energy>
    <i name="alphaZ">   1395.89346998 </i>
    <i name="ewald"> -16476.95274559 </i>
    <i name="hartreedc">  -6457.51455562 </i>
    <i name="XCdc">   -566.75908916 </i>
    <i name="pawpsdc">  31328.05475832 </i>
    <i name="pawaedc"> -29589.91916567 </i>
    <i name="eentropy">      0.02323629 </i>
    <i name="bandstr">  -2147.27131397 </i>
    <i name="atom">  22146.95360292 </i>
    <i name="e_fr_energy">   -367.49180250 </i>
    <i name="e_wo_entrp">   -367.51503879 </i>
    <i name="e_0_energy">   -367.49954793 </i>
   </energy>
  </scstep>
  <structure>
   <crystal>
    <varray name="basis" >
     <v>       6.97132090      -0.01671900       0.01962972 </v>
     <v>      -0.02430518      10.22633619       0.01250505 </v>
     <v>       0.02930299       0.01205243      10.20295899 </v>
    </varray>
    <i name="volume">    727.36878504 </i>
    <varray name="rec_basis" >
     <v>       0.14344682       0.00034144      -0.00041238 </v>
     <v>       0.00023485       0.09778743      -0.00011619 </v>
     <v>      -0.00027627      -0.00012051       0.09801172 </v>
    </varray>
   </crystal>
   <varray name="positions" >
    <v>       0.25228787       0.17100882       0.51209302 </v>
    <v>       0.03707296       0.32634246       0.34374399 </v>
    <v>       0.01529881       0.33291458       0.66804497 </v>
    <v>       0.26052660       0.49804350       0.82935977 </v>
    <v>       0.25121827       0.82557860       0.15234889 </v>
    <v>       0.48485781       0.33353969       0.66638831 </v>
    <v>       0.48503093       0.32306553       0.99326572 </v>
    <v>       0.25130566       0.49963049       0.50636962 </v>
    <v>       0.48120339       0.66656511       0.32278791 </v>
    <v>       0.50637742       0.99956126       0.00354681 </v>
    <v>       0.49318025       0.65399239       0.67465319 </v>
    <v>       0.76261413       0.49349503       0.17172943 </v>
    <v>       0.25880553       0.82948123       0.84096044 </v>
    <v>       0.72040134       0.83156481       0.50233143 </v>
    <v>       0.74053629       0.48984418       0.83034208 </v>
    <v>       0.22769183       0.50803044       0.15606416 </v>
    <v>       0.01844052       0.68346913       0.34182699 </v>
    <v>       0.75176612       0.17593989       0.49669221 </v>
    <v>       0.46404203       0.33805018       0.33112145 </v>
    <v>       0.01753363       0.99855072       0.33464201 </v>
    <v>       0.75066616       0.18051479       0.17512348 </v>
    <v>       0.52181190       0.67095336       0.00681590 </v>
    <v>       0.74841165       0.49529461       0.49651820 </v>
    <v>       0.99181071       0.00077501      -0.00003496 </v>
    <v>       0.01535530       0.31721738       0.98145806 </v>
    <v>       0.00277442       0.66537572       0.66604838 </v>
    <v>       0.48441095       0.00072744       0.32033690 </v>
    <v>       0.99729041       0.00123785       0.66763709 </v>
    <v>       0.28613812       0.83241863       0.51306333 </v>
    <v>       0.73809220       0.83545054       0.83117321 </v>
    <v>       0.25728217       0.16646383       0.15833918 </v>
    <v>       0.97387677       0.67960448       0.00181750 </v>
    <v>       0.50267771       0.00987053       0.67864173 </v>
    <v>       0.73400469       0.17017612       0.82591627 </v>
    <v>       0.74794312       0.83504672       0.17285546 </v>
    <v>       0.26725533       0.16021394       0.82597791 </v>
   </varray>
  </structure>
  <varray name="forces" >
   <v>      -0.01575306       0.03544456       0.00105000 </v>
   <v>       0.01227975      -0.00309906       0.02085343 </v>
   <v>       0.03404059      -0.00236646      -0.02138198 </v>
   <v>       0.00186820      -0.06066919       0.00687476 </v>
   <v>       0.00111354      -0.03787550      -0.02862160 </v>
   <v>      -0.01865495       0.02586331       0.01138977 </v>
   <v>      -0.03168497      -0.05497421      -0.03492207 </v>
   <v>       0.02147013      -0.01748356       0.00950475 </v>
   <v>       0.12231070      -0.12307253      -0.23567034 </v>
   <v>      -0.00093914      -0.01413102       0.00873489 </v>
   <v>       0.09771182      -0.20153033       0.18096804 </v>
   <v>       0.01508038      -0.01884328      -0.01471379 </v>
   <v>       0.01743136      -0.01669087       0.07163780 </v>
   <v>       0.05503637      -0.01015343       0.01033752 </v>
   <v>       0.01890782      -0.05011360       0.04984351 </v>
   <v>      -0.01471322      -0.01960428      -0.01491236 </v>
   <v>      -0.10412259      -0.05215130      -0.10554330 </v>
   <v>      -0.02341341       0.02264975      -0.01031340 </v>
   <v>      -0.01345669       0.00290221       0.01316455 </v>
   <v>      -0.07079337       0.07622683      -0.10536136 </v>
   <v>       0.00718993       0.06387216      -0.01990516 </v>
   <v>      -0.01317511       0.01479877      -0.00185306 </v>
   <v>      -0.03300025      -0.01803599       0.01085123 </v>
   <v>      -0.02212183      -0.01757252      -0.00790614 </v>
   <v>       0.03874922      -0.01054359      -0.03027152 </v>
   <v>      -0.09177293      -0.07611548       0.06158601 </v>
   <v>       0.01979213       0.05975251      -0.15179554 </v>
   <v>      -0.12779363       0.09691338       0.09320572 </v>
   <v>       0.04002190       0.07717356       0.03571467 </v>
   <v>      -0.05808272       0.00054730      -0.01915072 </v>
   <v>       0.00026752       0.04806919      -0.02443315 </v>
   <v>      -0.00353292       0.03565976       0.01164336 </v>
   <v>       0.17120613       0.21687917       0.21175565 </v>
   <v>      -0.01866027       0.01980456       0.02724931 </v>
   <v>      -0.03558196      -0.03143326      -0.02147768 </v>
   <v>       0.02277553       0.03990246       0.01186819 </v>
  </varray>
  <varray name="stress" >
   <v>      -6.64800444      -0.04012358       0.12137550 </v>
   <v>      -0.04012361      -6.47888714       0.00298833 </v>
   <v>       0.12137552       0.00298832      -6.24369811 </v>
  </varray>
  <energy>
   <i name="e_fr_energy">   -367.49180250 </i>
   <i name="e_wo_entrp">   -367.49954793 </i>
   <i name="e_0_energy">      0.02323629 </i>
  </energy>
  <time name="totalsc">    9.86   10.71</time>
 </calculation>
 <calculation>
  <scstep>
   <time name="dav">    0.82    0.83</time>
   <time name="total">    0.90    1.09</time>
   <energy>
    <i name="alphaZ">   1402.66437963 </i>
    <i name="ewald"> -16497.30396167 </i>
    <i name="hartreedc">  -6474.07177948 </i>
    <i name="XCdc">   -565.54814787 </i>
    <i name="pawpsdc">  31328.93816367 </i>
    <i name="pawaedc"> -29590.75407613 </i>
    <i name="eentropy">      0.02282399 </i>
    <i name="bandstr">  -2118.42672587 </i>
    <i name="atom">  22146.95360292 </i>
    <i name="e_fr_energy">   -367.52572082 </i>
    <i name="e_wo_entrp">   -367.54854481 </i>
    <i name="e_0_energy">   -367.53332882 </i>
   </energy>
  </scstep>
  <scstep>
   <time name="diag">    0.07    0.07</time>
   <time name="diis">    0.73    0.73</time>
   <time name="orth">    0.01    0.01</time>
   <time name="total">    0.92    0.96</time>
   <energy>
    <i name="e_fr_energy">   -367.56243125 </i>
    <i name="e_wo_entrp">   -367.58718647 </i>
    <i name="e_0_energy">   -367.57068299 </i>
   </energy>
  </scstep>
  <scstep>
   <time name="diag">    0.09    0.09</time>
   <time name="diis">    0.71    0.72</time>
   <time name="orth">    0.01    0.01</time>
   <time name="total">    0.88    0.93</time>
   <energy>
    <i name="e_fr_energy">   -367.52963505 </i>
    <i name="e_wo_entrp">   -367.55258241 </i>
    <i name="e_0_energy">   -367.53728417 </i>
   </energy>
  </scstep>
  <scstep>
   <time name="diag">    0.08    0.08</time>
   <time name="diis">    0.75    0.75</time>
   <time name="orth">    0.01    0.01</time>
   <time name="total">    0.89    0.94</time>
   <energy>
    <i name="e_fr_energy">   -367.52380067 </i>
    <i name="e_wo_entrp">   -367.54746498 </i>
    <i name="e_0_energy">   -367.53168877 </i>
   </energy>
  </scstep>
  <scstep>
   <time name="diag">    0.07    0.07</time>
   <time name="diis">    0.76    0.77</time>
   <time name="orth">    0.01    0.01</time>
   <time name="total">    0.91    0.96</time>
   <energy>
    <i name="e_fr_energy">   -367.52265263 </i>
    <i name="e_wo_entrp">   -367.54621952 </i>
    <i name="e_0_energy">   -367.53050826 </i>
   </energy>
  </scstep>
  <scstep>
   <time name="diag">    0.10    0.10</time>
   <time name="diis">    0.81    0.82</time>
   <time name="orth">    0.01    0.01</time>
   <time name="total">    0.99    1.06</time>
   <energy>
    <i name="e_fr_energy">   -367.52285015 </i>
    <i name="e_wo_entrp">   -367.54646628 </i>
    <i name="e_0_energy">   -367.53072219 </i>
   </energy>
  </scstep>
  <scstep>
   <time name="diag">    0.07    0.07</time>
   <time name="diis">    0.85    0.87</time>
   <time name="orth">    0.01    0.01</time>
   <time name="total">    0.99    1.08</time>
   <energy>
    <i name="e_fr_energy">   -367.52292175 </i>
    <i name="e_wo_entrp">   -367.54649822 </i>
    <i name="e_0_energy">   -367.53078057 </i>
   </energy>
  </scstep>
  <scstep>
   <time name="diag">    0.07    0.07</time>
   <time name="diis">    0.75    0.76</time>
   <time name="orth">    0.01    0.01</time>
   <time name="total">    0.89    0.94</time>
   <energy>
    <i name="e_fr_energy">   -367.52304661 </i>
    <i name="e_wo_entrp">   -367.54660636 </i>
    <i name="e_0_energy">   -367.53089986 </i>
   </energy>
  </scstep>
  <scstep>
   <time name="diag">    0.07    0.07</time>
   <time name="diis">    0.70    0.70</time>
   <time name="orth">    0.01    0.01</time>
   <time name="total">    0.85    0.89</time>
   <energy>
    <i name="e_fr_energy">   -367.52308516 </i>
    <i name="e_wo_entrp">   -367.54667340 </i>
    <i name="e_0_energy">   -367.53094791 </i>
   </energy>
  </scstep>
  <scstep>
[...]
       <r>    6.3397    1.0000 </r>
       <r>    6.3857    1.0000 </r>
       <r>    6.4153    1.0000 </r>
       <r>    6.4719    1.0000 </r>
       <r>    6.5352    1.0000 </r>
       <r>    6.5651    1.0000 </r>
       <r>    6.5879    1.0000 </r>
       <r>    6.6228    1.0000 </r>
       <r>    6.6952    1.0000 </r>
       <r>    6.7126    1.0000 </r>
       <r>    6.7405    1.0001 </r>
       <r>    6.8003    1.0004 </r>
       <r>    6.8572    1.0025 </r>
       <r>    6.8831    1.0048 </r>
       <r>    6.9083    1.0085 </r>
       <r>    6.9765    1.0264 </r>
       <r>    6.9874    1.0296 </r>
       <r>    7.0081    1.0343 </r>
       <r>    7.0514    1.0278 </r>
       <r>    7.0637    1.0186 </r>
       <r>    7.1072    0.9435 </r>
       <r>    7.1468    0.8050 </r>
       <r>    7.1587    0.7509 </r>
       <r>    7.2332    0.3470 </r>
       <r>    7.2446    0.2881 </r>
       <r>    7.2829    0.1216 </r>
       <r>    7.3100    0.0416 </r>
       <r>    7.3449   -0.0161 </r>
       <r>    7.4069   -0.0337 </r>
       <r>    7.4279   -0.0284 </r>
       <r>    7.4892   -0.0112 </r>
       <r>    7.5211   -0.0056 </r>
       <r>    7.5591   -0.0021 </r>
       <r>    7.5796   -0.0012 </r>
       <r>    7.6122   -0.0004 </r>
       <r>    7.6676   -0.0001 </r>
       <r>    7.6875   -0.0000 </r>
       <r>    7.7304   -0.0000 </r>
       <r>    7.8340   -0.0000 </r>
       <r>    7.8536   -0.0000 </r>
       <r>    7.8802   -0.0000 </r>
       <r>    7.9457   -0.0000 </r>
       <r>    8.0239   -0.0000 </r>
       <r>    8.0630   -0.0000 </r>
       <r>    8.0794   -0.0000 </r>
       <r>    8.3953   -0.0000 </r>
       <r>    8.4532   -0.0000 </r>
       <r>    8.5445   -0.0000 </r>
       <r>    9.1080   -0.0000 </r>
      </set>
     </set>
    </set>
   </array>
  </eigenvalues>
  <separator name="orbital magnetization" >
   <v name="MAGDIPOLOUT">      0.00000000      0.00000000      0.00000000</v>
  </separator>
  <dos>
   <i name="efermi">      7.20558315 </i>
   <total>
    <array>
     <dimension dim="1">gridpoints</dimension>
     <dimension dim="2">spin</dimension>
     <field>energy</field>
     <field>total</field>
     <field>integrated</field>
     <set>
      <set comment="spin 1">
       <r>   -49.8422     0.0000     0.0000 </r>
       <r>   -49.6363     0.0000     0.0000 </r>
       <r>   -49.4304     0.0000     0.0000 </r>
       <r>   -49.2246     0.0000     0.0000 </r>
       <r>   -49.0187     0.0000     0.0000 </r>
       <r>   -48.8129     0.0000     0.0000 </r>
       <r>   -48.6070     0.0000     0.0000 </r>
       <r>   -48.4012    -0.0000    -0.0000 </r>
       <r>   -48.1953    -0.0000    -0.0000 </r>
       <r>   -47.9894    -0.0000    -0.0000 </r>
       <r>   -47.7836    -0.0000    -0.0000 </r>
       <r>   -47.5777    -0.0000    -0.0000 </r>
       <r>   -47.3719    -0.0459    -0.0095 </r>
       <r>   -47.1660    -1.1844    -0.2533 </r>
       <r>   -46.9602    26.5854     5.2195 </r>
       <r>   -46.7543    42.6279    13.9948 </r>
       <r>   -46.5484     0.2121    14.0385 </r>
       <r>   -46.3426    -0.1867    14.0000 </r>
       <r>   -46.1367    -0.0002    14.0000 </r>
       <r>   -45.9309    -0.0000    14.0000 </r>
       <r>   -45.7250     0.0000    14.0000 </r>
       <r>   -45.5192     0.0000    14.0000 </r>
       <r>   -45.3133     0.0000    14.0000 </r>
       <r>   -45.1074     0.0000    14.0000 </r>
       <r>   -44.9016     0.0000    14.0000 </r>
       <r>   -44.6957     0.0000    14.0000 </r>
       <r>   -44.4899     0.0000    14.0000 </r>
       <r>   -44.2840     0.0000    14.0000 </r>
       <r>   -44.0782     0.0000    14.0000 </r>
       <r>   -43.8723     0.0000    14.0000 </r>
       <r>   -43.6664     0.0000    14.0000 </r>
       <r>   -43.4606     0.0000    14.0000 </r>
       <r>   -43.2547     0.0000    14.0000 </r>
       <r>   -43.0489     0.0000    14.0000 </r>
       <r>   -42.8430     0.0000    14.0000 </r>
       <r>   -42.6371     0.0000    14.0000 </r>
       <r>   -42.4313     0.0000    14.0000 </r>
       <r>   -42.2254    -0.0000    14.0000 </r>
       <r>   -42.0196    -0.0000    14.0000 </r>
       <r>   -41.8137    -0.0000    14.0000 </r>
       <r>   -41.6079    -0.0000    14.0000 </r>
       <r>   -41.4020    -0.0048    13.9990 </r>
       <r>   -41.1961    -0.7299    13.8487 </r>
       <r>   -40.9903     9.0102    15.7036 </r>
       <r>   -40.7844    54.0935    26.8391 </r>
       <r>   -40.5786     6.2280    28.1212 </r>
       <r>   -40.3727    -0.5870    28.0004 </r>
       <r>   -40.1669    -0.0018    28.0000 </r>
       <r>   -39.9610    -0.0000    28.0000 </r>
       <r>   -39.7551    -0.0000    28.0000 </r>
       <r>   -39.5493     0.0000    28.0000 </r>
       <r>   -39.3434     0.0000    28.0000 </r>
       <r>   -39.1376     0.0000    28.0000 </r>
       <r>   -38.9317     0.0000    28.0000 </r>
       <r>   -38.7259     0.0000    28.0000 </r>
       <r>   -38.5200     0.0000    28.0000 </r>
       <r>   -38.3141     0.0000    28.0000 </r>
       <r>   -38.1083     0.0000    28.0000 </r>
       <r>   -37.9024     0.0000    28.0000 </r>
       <r>   -37.6966     0.0000    28.0000 </r>
       <r>   -37.4907     0.0000    28.0000 </r>
       <r>   -37.2848     0.0000    28.0000 </r>
       <r>   -37.0790     0.0000    28.0000 </r>
       <r>   -36.8731     0.0000    28.0000 </r>
       <r>   -36.6673     0.0000    28.0000 </r>
       <r>   -36.4614     0.0000    28.0000 </r>
       <r>   -36.2556     0.0000    28.0000 </r>
       <r>   -36.0497     0.0000    28.0000 </r>
       <r>   -35.8438     0.0000    28.0000 </r>
       <r>   -35.6380     0.0000    28.0000 </r>
       <r>   -35.4321     0.0000    28.0000 </r>
       <r>   -35.2263     0.0000    28.0000 </r>
       <r>   -35.0204     0.0000    28.0000 </r>
       <r>   -34.8146     0.0000    28.0000 </r>
       <r>   -34.6087     0.0000    28.0000 </r>
       <r>   -34.4028     0.0000    28.0000 </r>
       <r>   -34.1970     0.0000    28.0000 </r>
       <r>   -33.9911     0.0000    28.0000 </r>
       <r>   -33.7853     0.0000    28.0000 </r>
       <r>   -33.5794     0.0000    28.0000 </r>
       <r>   -33.3736     0.0000    28.0000 </r>
       <r>   -33.1677     0.0000    28.0000 </r>
       <r>   -32.9618     0.0000    28.0000 </r>
       <r>   -32.7560     0.0000    28.0000 </r>
       <r>   -32.5501     0.0000    28.0000 </r>
       <r>   -32.3443     0.0000    28.0000 </r>
       <r>   -32.1384     0.0000    28.0000 </r>
       <r>   -31.9326     0.0000    28.0000 </r>
       <r>   -31.7267     0.0000    28.0000 </r>
       <r>   -31.5208     0.0000    28.0000 </r>
       <r>   -31.3150     0.0000    28.0000 </r>
       <r>   -31.1091     0.0000    28.0000 </r>
       <r>   -30.9033     0.0000    28.0000 </r>
       <r>   -30.6974     0.0000    28.0000 </r>
       <r>   -30.4915     0.0000    28.0000 </r>
       <r>   -30.2857     0.0000    28.0000 </r>
       <r>   -30.0798     0.0000    28.0000 </r>
       <r>   -29.8740     0.0000    28.0000 </r>
       <r>   -29.6681     0.0000    28.0000 </r>
       <r>   -29.4623     0.0000    28.0000 </r>
       <r>   -29.2564     0.0000    28.0000 </r>
       <r>   -29.0505     0.0000    28.0000 </r>
       <r>   -28.8447     0.0000    28.0000 </r>
       <r>   -28.6388     0.0000    28.0000 </r>
       <r>   -28.4330     0.0000    28.0000 </r>
       <r>   -28.2271     0.0000    28.0000 </r>
       <r>   -28.0213     0.0000    28.0000 </r>
       <r>   -27.8154     0.0000    28.0000 </r>
       <r>   -27.6095     0.0000    28.0000 </r>
       <r>   -27.4037     0.0000    28.0000 </r>
       <r>   -27.1978     0.0000    28.0000 </r>
       <r>   -26.9920     0.0000    28.0000 </r>
       <r>   -26.7861     0.0000    28.0000 </r>
       <r>   -26.5803     0.0000    28.0000 </r>
       <r>   -26.3744     0.0000    28.0000 </r>
       <r>   -26.1685     0.0000    28.0000 </r>
       <r>   -25.9627     0.0000    28.0000 </r>
       <r>   -25.7568     0.0000    28.0000 </r>
       <r>   -25.5510     0.0000    28.0000 </r>
       <r>   -25.3451     0.0000    28.0000 </r>
       <r>   -25.1392     0.0000    28.0000 </r>
       <r>   -24.9334    -0.0000    28.0000 </r>
       <r>   -24.7275    -0.0000    28.0000 </r>
       <r>   -24.5217    -0.0000    28.0000 </r>
       <r>   -24.3158    -0.0000    28.0000 </r>
       <r>   -24.1100    -0.0000    28.0000 </r>
       <r>   -23.9041    -0.0185    27.9962 </r>
       <r>   -23.6982    -0.5059    27.8920 </r>
       <r>   -23.4924    10.5674    30.0674 </r>
       <r>   -23.2865    19.8287    34.1493 </r>
       <r>   -23.0807    57.9249    46.0736 </r>
       <r>   -22.8748    82.2688    63.0093 </r>
       <r>   -22.6690    27.9876    68.7707 </r>
       <r>   -22.4631     6.4826    70.1052 </r>
       <r>   -22.2572    -0.5074    70.0008 </r>
       <r>   -22.0514    -0.0037    70.0000 </r>
       <r>   -21.8455    -0.0000    70.0000 </r>
       <r>   -21.6397    -0.0000    70.0000 </r>
       <r>   -21.4338     0.0000    70.0000 </r>
       <r>   -21.2280     0.0000    70.0000 </r>
       <r>   -21.0221     0.0000    70.0000 </r>
       <r>   -20.8162     0.0000    70.0000 </r>
       <r>   -20.6104    -0.0000    70.0000 </r>
       <r>   -20.4045    -0.0000    70.0000 </r>
       <r>   -20.1987    -0.0000    70.0000 </r>
       <r>   -19.9928    -0.0000    70.0000 </r>
       <r>   -19.7870    -0.0032    69.9993 </r>
       <r>   -19.5811    -0.3834    69.9204 </r>
       <r>   -19.3752     4.7008    70.8881 </r>
       <r>   -19.1694    22.8756    75.5972 </r>
       <r>   -18.9635    97.5374    95.6761 </r>
       <r>   -18.7577    71.1746   110.3279 </r>
       <r>   -18.5518     8.3734   112.0516 </r>
       <r>   -18.3459    -0.2115   112.0081 </r>
       <r>   -18.1401    -0.0392   112.0000 </r>
       <r>   -17.9342    -0.0000   112.0000 </r>
       <r>   -17.7284    -0.0000   112.0000 </r>
       <r>   -17.5225     0.0000   112.0000 </r>
       <r>   -17.3167     0.0000   112.0000 </r>
       <r>   -17.1108     0.0000   112.0000 </r>
       <r>   -16.9049     0.0000   112.0000 </r>
       <r>   -16.6991     0.0000   112.0000 </r>
       <r>   -16.4932     0.0000   112.0000 </r>
       <r>   -16.2874     0.0000   112.0000 </r>
       <r>   -16.0815     0.0000   112.0000 </r>
       <r>   -15.8757     0.0000   112.0000 </r>
       <r>   -15.6698     0.0000   112.0000 </r>
       <r>   -15.4639     0.0000   112.0000 </r>
       <r>   -15.2581     0.0000   112.0000 </r>
       <r>   -15.0522     0.0000   112.0000 </r>
       <r>   -14.8464     0.0000   112.0000 </r>
       <r>   -14.6405     0.0000   112.0000 </r>
       <r>   -14.4347     0.0000   112.0000 </r>
       <r>   -14.2288     0.0000   112.0000 </r>
       <r>   -14.0229     0.0000   112.0000 </r>
       <r>   -13.8171     0.0000   112.0000 </r>
       <r>   -13.6112     0.0000   112.0000 </r>
       <r>   -13.4054     0.0000   112.0000 </r>
       <r>   -13.1995     0.0000   112.0000 </r>
       <r>   -12.9936     0.0000   112.0000 </r>
       <r>   -12.7878     0.0000   112.0000 </r>
       <r>   -12.5819     0.0000   112.0000 </r>
       <r>   -12.3761     0.0000   112.0000 </r>
       <r>   -12.1702     0.0000   112.0000 </r>
       <r>   -11.9644     0.0000   112.0000 </r>
       <r>   -11.7585     0.0000   112.0000 </r>
       <r>   -11.5526     0.0000   112.0000 </r>
       <r>   -11.3468     0.0000   112.0000 </r>
       <r>   -11.1409     0.0000   112.0000 </r>
       <r>   -10.9351     0.0000   112.0000 </r>
       <r>   -10.7292     0.0000   112.0000 </r>
       <r>   -10.5234     0.0000   112.0000 </r>
       <r>   -10.3175     0.0000   112.0000 </r>
       <r>   -10.1116     0.0000   112.0000 </r>
       <r>    -9.9058     0.0000   112.0000 </r>
       <r>    -9.6999     0.0000   112.0000 </r>
       <r>    -9.4941     0.0000   112.0000 </r>
       <r>    -9.2882     0.0000   112.0000 </r>
       <r>    -9.0824     0.0000   112.0000 </r>
       <r>    -8.8765     0.0000   112.0000 </r>
       <r>    -8.6706     0.0000   112.0000 </r>
       <r>    -8.4648     0.0000   112.0000 </r>
       <r>    -8.2589     0.0000   112.0000 </r>
       <r>    -8.0531     0.0000   112.0000 </r>
       <r>    -7.8472     0.0000   112.0000 </r>
       <r>    -7.6414     0.0000   112.0000 </r>
       <r>    -7.4355     0.0000   112.0000 </r>
       <r>    -7.2296     0.0000   112.0000 </r>
       <r>    -7.0238     0.0000   112.0000 </r>
       <r>    -6.8179     0.0000   112.0000 </r>
       <r>    -6.6121     0.0000   112.0000 </r>
       <r>    -6.4062     0.0000   112.0000 </r>
       <r>    -6.2003     0.0000   112.0000 </r>
       <r>    -5.9945     0.0000   112.0000 </r>
       <r>    -5.7886     0.0000   112.0000 </r>
       <r>    -5.5828     0.0000   112.0000 </r>
       <r>    -5.3769     0.0000   112.0000 </r>
       <r>    -5.1711     0.0000   112.0000 </r>
       <r>    -4.9652     0.0000   112.0000 </r>
       <r>    -4.7593     0.0000   112.0000 </r>
       <r>    -4.5535     0.0000   112.0000 </r>
       <r>    -4.3476     0.0000   112.0000 </r>
       <r>    -4.1418     0.0000   112.0000 </r>
       <r>    -3.9359     0.0000   112.0000 </r>
       <r>    -3.7301     0.0000   112.0000 </r>
       <r>    -3.5242     0.0000   112.0000 </r>
       <r>    -3.3183     0.0000   112.0000 </r>
       <r>    -3.1125     0.0000   112.0000 </r>
       <r>    -2.9066     0.0000   112.0000 </r>
       <r>    -2.7008     0.0000   112.0000 </r>
       <r>    -2.4949     0.0000   112.0000 </r>
       <r>    -2.2891     0.0000   112.0000 </r>
       <r>    -2.0832     0.0000   112.0000 </r>
       <r>    -1.8773     0.0000   112.0000 </r>
       <r>    -1.6715     0.0000   112.0000 </r>
       <r>    -1.4656     0.0000   112.0000 </r>
       <r>    -1.2598     0.0000   112.0000 </r>
       <r>    -1.0539    -0.0000   112.0000 </r>
       <r>    -0.8480    -0.0000   112.0000 </r>
       <r>    -0.6422    -0.0000   112.0000 </r>
       <r>    -0.4363    -0.0000   112.0000 </r>
       <r>    -0.2305    -0.0000   112.0000 </r>
       <r>    -0.0246    -0.0021   111.9996 </r>
       <r>     0.1812     0.0080   112.0012 </r>
       <r>     0.3871     0.3341   112.0700 </r>
       <r>     0.5930     1.2618   112.3297 </r>
       <r>     0.7988     1.7849   112.6972 </r>
       <r>     1.0047     2.2500   113.1603 </r>
       <r>     1.2105     3.5907   113.8995 </r>
       <r>     1.4164     3.0976   114.5372 </r>
       <r>     1.6222     2.4301   115.0374 </r>
       <r>     1.8281     4.7923   116.0240 </r>
       <r>     2.0340     2.9196   116.6250 </r>
       <r>     2.2398     3.9846   117.4452 </r>
       <r>     2.4457     6.9797   118.8821 </r>
       <r>     2.6515     8.0151   120.5320 </r>
       <r>     2.8574     7.6669   122.1103 </r>
       <r>     3.0632     7.7458   123.7049 </r>
       <r>     3.2691     9.0075   125.5591 </r>
       <r>     3.4750    14.1215   128.4661 </r>
       <r>     3.6808    20.9709   132.7832 </r>
       <r>     3.8867    21.9742   137.3067 </r>
       <r>     4.0925    24.2287   142.2944 </r>
       <r>     4.2984    32.0117   148.8842 </r>
       <r>     4.5042    33.1491   155.7082 </r>
       <r>     4.7101    39.8116   163.9037 </r>
       <r>     4.9160    35.6263   171.2377 </r>
       <r>     5.1218    34.0639   178.2500 </r>
       <r>     5.3277    34.2809   185.3070 </r>
       <r>     5.5335    29.1557   191.3089 </r>
       <r>     5.7394    15.2411   194.4464 </r>
       <r>     5.9453    45.5714   203.8276 </r>
       <r>     6.1511    61.2906   216.4448 </r>
       <r>     6.3570    58.3049   228.4473 </r>
       <r>     6.5628    55.6957   239.9127 </r>
       <r>     6.7687    54.3732   251.1058 </r>
       <r>     6.9745    56.2404   262.6833 </r>
       <r>     7.1804    49.4815   272.8695 </r>
       <r>     7.3863    45.9662   282.3320 </r>
       <r>     7.5921    51.1178   292.8550 </r>
       <r>     7.7980    44.1018   301.9336 </r>
       <r>     8.0038    32.9098   308.7084 </r>
       <r>     8.2097    29.3138   314.7428 </r>
       <r>     8.4155    20.4664   318.9560 </r>
       <r>     8.6214    17.9464   322.6504 </r>
       <r>     8.8273    11.2997   324.9765 </r>
       <r>     9.0331    12.1097   327.4694 </r>
       <r>     9.2390     2.7509   328.0357 </r>
       <r>     9.4448    -0.1693   328.0008 </r>
       <r>     9.6507    -0.0040   328.0000 </r>
       <r>     9.8565    -0.0000   328.0000 </r>
       <r>    10.0624    -0.0000   328.0000 </r>
       <r>    10.2683     0.0000   328.0000 </r>
       <r>    10.4741     0.0000   328.0000 </r>
       <r>    10.6800     0.0000   328.0000 </r>
       <r>    10.8858     0.0000   328.0000 </r>
       <r>    11.0917     0.0000   328.0000 </r>
       <r>    11.2976     0.0000   328.0000 </r>
       <r>    11.5034     0.0000   328.0000 </r>
       <r>    11.7093     0.0000   328.0000 </r>
       <r>    11.9151     0.0000   328.0000 </r>
      </set>
     </set>
    </array>
   </total>
  </dos>
 </calculation>
 <structure name="finalpos" >
  <crystal>
   <varray name="basis" >
    <v>       6.96000860      -0.02015796       0.01984637 </v>
    <v>      -0.02934697      10.20631437       0.00810919 </v>
    <v>       0.02957278       0.00763482      10.19621007 </v>
   </varray>
   <i name="volume">    724.28588141 </i>
   <varray name="rec_basis" >
    <v>       0.14368037       0.00041347      -0.00041704 </v>
    <v>       0.00028398       0.09797944      -0.00007419 </v>
    <v>      -0.00027989      -0.00007873       0.09807653 </v>
   </varray>
  </crystal>
  <varray name="positions" >
   <v>       0.25180739       0.17072960       0.51110541 </v>
   <v>       0.03647662       0.32768145       0.34507778 </v>
   <v>       0.01737413       0.33276831       0.66624404 </v>
   <v>       0.25812832       0.49716092       0.82947034 </v>
   <v>       0.25044984       0.82394198       0.15258228 </v>
   <v>       0.48402851       0.33483176       0.66580627 </v>
   <v>       0.48310124       0.32225934       0.99307086 </v>
   <v>       0.25312972       0.50111465       0.50670541 </v>
   <v>       0.48598728       0.66532145       0.31830685 </v>
   <v>       0.50578393       0.99865668       0.00409121 </v>
   <v>       0.49828691       0.65126109       0.67933061 </v>
   <v>       0.76261412       0.49337810       0.16970878 </v>
   <v>       0.25915580       0.83007271       0.83986402 </v>
   <v>       0.72041466       0.83259779       0.50302387 </v>
   <v>       0.74494721       0.48697766       0.83320953 </v>
   <v>       0.22628738       0.50680596       0.15627573 </v>
   <v>       0.01432208       0.68329601       0.34138935 </v>
   <v>       0.75115882       0.17675202       0.49613228 </v>
   <v>       0.46439991       0.33875599       0.33213549 </v>
   <v>       0.01542017      -0.00069536       0.33303255 </v>
   <v>       0.75107565       0.18278396       0.17436738 </v>
   <v>       0.51777202       0.66932011       0.00490669 </v>
   <v>       0.74692215       0.49564797       0.49661324 </v>
   <v>       0.99064535      -0.00107902       0.00102435 </v>
   <v>       0.01812114       0.31486359       0.98168625 </v>
   <v>      -0.00023558       0.66543848       0.66560353 </v>
   <v>       0.48532737       0.00151317       0.31706768 </v>
   <v>       0.99379306       0.00385400       0.66900677 </v>
   <v>       0.28724551       0.83390138       0.51373275 </v>
   <v>       0.73717553       0.83543469       0.83177042 </v>
   <v>       0.25631598       0.16727014       0.15872076 </v>
   <v>       0.97638001       0.67952067       0.00085329 </v>
   <v>       0.50794857       0.01339234       0.68218403 </v>
   <v>       0.73432079       0.17161509       0.82759620 </v>
   <v>       0.74642442       0.83260805       0.17159195 </v>
   <v>       0.26748695       0.16025627       0.82671204 </v>
  </varray>
 </structure>
</modeling>
