       N       E                     dE             d eps       ncg     rms          rms(c)
DAV:   1     0.184495503590E+04    0.18450E+04   -0.10931E+05  5328   0.106E+03
DAV:   2    -0.653916398298E+02   -0.19103E+04   -0.18388E+04  5296   0.369E+02
DAV:   3    -0.331928842139E+03   -0.26654E+03   -0.25262E+03  8536   0.108E+02
DAV:   4    -0.366308553538E+03   -0.34380E+02   -0.32670E+02  8304   0.322E+01
DAV:   5    -0.369914133995E+03   -0.36056E+01   -0.35072E+01  7680   0.103E+01    0.672E+01
RMM:   6    -0.359978249885E+03    0.99359E+01   -0.24396E+01  7149   0.973E+00    0.316E+01
RMM:   7    -0.362504566451E+03   -0.25263E+01   -0.31193E+01  7443   0.805E+00    0.121E+01
RMM:   8    -0.355910043081E+03    0.65945E+01   -0.69145E+00  7505   0.406E+00    0.447E+00
RMM:   9    -0.355581691329E+03    0.32835E+00   -0.31751E+00  7488   0.201E+00    0.282E+00
RMM:  10    -0.355570066749E+03    0.11625E-01   -0.58286E-01  7537   0.118E+00    0.170E+00
RMM:  11    -0.355556528925E+03    0.13538E-01   -0.18918E-01  7508   0.666E-01    0.809E-01
RMM:  12    -0.355548254910E+03    0.82740E-02   -0.70945E-02  7599   0.390E-01    0.402E-01
RMM:  13    -0.355547266152E+03    0.98876E-03   -0.26184E-02  7506   0.192E-01    0.244E-01
RMM:  14    -0.355547570170E+03   -0.30402E-03   -0.10780E-02  7587   0.109E-01    0.152E-01
RMM:  15    -0.355547899033E+03   -0.32886E-03   -0.49556E-03  7709   0.680E-02    0.815E-02
RMM:  16    -0.355547987150E+03   -0.88117E-04   -0.21303E-03  7148   0.453E-02    0.392E-02
RMM:  17    -0.355548026801E+03   -0.39651E-04   -0.93937E-04  6054   0.293E-02    0.195E-02
RMM:  18    -0.355548054020E+03   -0.27219E-04   -0.44253E-04  5828   0.212E-02    0.108E-02
RMM:  19    -0.355548066394E+03   -0.12374E-04   -0.18667E-04  4914   0.142E-02    0.699E-03
RMM:  20    -0.355548070419E+03   -0.40248E-05   -0.87013E-05  4465   0.116E-02
   1 F= -.35554807E+03 E0= -.35555192E+03  d E =-.355548E+03
       N       E                     dE             d eps       ncg     rms          rms(c)
DAV:   1    -0.355629348246E+03   -0.81282E-01   -0.29550E+00  5888   0.542E+00    0.207E+00
RMM:   2    -0.355608739760E+03    0.20608E-01   -0.23804E-01  7132   0.125E+00    0.686E-01
RMM:   3    -0.355603327657E+03    0.54121E-02   -0.71787E-02  7662   0.463E-01    0.559E-01
RMM:   4    -0.355592523227E+03    0.10804E-01   -0.17720E-02  7612   0.269E-01    0.261E-01
RMM:   5    -0.355592035958E+03    0.48727E-03   -0.54632E-03  7588   0.136E-01    0.202E-01
RMM:   6    -0.355592103722E+03   -0.67764E-04   -0.18427E-03  8127   0.678E-02    0.128E-01
RMM:   7    -0.355592137011E+03   -0.33289E-04   -0.88154E-04  7441   0.500E-02    0.675E-02
RMM:   8    -0.355592162803E+03   -0.25791E-04   -0.47760E-04  6903   0.322E-02    0.438E-02
RMM:   9    -0.355592183809E+03   -0.21006E-04   -0.15045E-04  5567   0.231E-02    0.336E-02
RMM:  10    -0.355592199043E+03   -0.15235E-04   -0.10325E-04  5192   0.168E-02    0.173E-02
RMM:  11    -0.355592196050E+03    0.29937E-05   -0.48478E-05  4484   0.142E-02
   2 F= -.35559220E+03 E0= -.35559646E+03  d E =-.441256E-01
       N       E                     dE             d eps       ncg     rms          rms(c)
DAV:   1    -0.355814443777E+03   -0.22224E+00   -0.14389E+01  5536   0.120E+01    0.446E+00
RMM:   2    -0.355713703436E+03    0.10074E+00   -0.11354E+00  7149   0.274E+00    0.152E+00
RMM:   3    -0.355684738689E+03    0.28965E-01   -0.34515E-01  7690   0.100E+00    0.121E+00
RMM:   4    -0.355633683933E+03    0.51055E-01   -0.83282E-02  7632   0.585E-01    0.569E-01
RMM:   5    -0.355631147251E+03    0.25367E-02   -0.25970E-02  7588   0.295E-01    0.440E-01
RMM:   6    -0.355631590660E+03   -0.44341E-03   -0.85616E-03  8474   0.147E-01    0.281E-01
RMM:   7    -0.355631887395E+03   -0.29673E-03   -0.42985E-03  8436   0.110E-01    0.148E-01
RMM:   8    -0.355632081581E+03   -0.19419E-03   -0.24115E-03  8412   0.715E-02    0.967E-02
RMM:   9    -0.355632220598E+03   -0.13902E-03   -0.74039E-04  7669   0.467E-02    0.763E-02
RMM:  10    -0.355632344531E+03   -0.12393E-03   -0.42773E-04  6744   0.302E-02    0.430E-02
RMM:  11    -0.355632368588E+03   -0.24057E-04   -0.22458E-04  6161   0.251E-02    0.157E-02
RMM:  12    -0.355632368907E+03   -0.31967E-06   -0.12545E-04  5618   0.187E-02    0.819E-03
RMM:  13    -0.355632368765E+03    0.14263E-06   -0.45005E-05  4563   0.142E-02
   3 F= -.35563237E+03 E0= -.35563749E+03  d E =-.842983E-01
       N       E                     dE             d eps       ncg     rms          rms(c)
DAV:   1    -0.355670224942E+03   -0.37856E-01   -0.31959E+00  5200   0.495E+00    0.830E-01
RMM:   2    -0.355675848553E+03   -0.56236E-02   -0.13073E-01  7346   0.918E-01    0.421E-01
RMM:   3    -0.355670412690E+03    0.54359E-02   -0.19716E-02  7498   0.251E-01    0.273E-01
RMM:   4    -0.355669404044E+03    0.10086E-02   -0.48273E-03  7689   0.115E-01    0.170E-01
RMM:   5    -0.355669165400E+03    0.23864E-03   -0.18562E-03  7609   0.811E-02    0.111E-01
RMM:   6    -0.355669193586E+03   -0.28187E-04   -0.81220E-04  7718   0.443E-02    0.741E-02
RMM:   7    -0.355669197300E+03   -0.37141E-05   -0.31970E-04  6873   0.296E-02    0.468E-02
RMM:   8    -0.355669212436E+03   -0.15136E-04   -0.13370E-04  5798   0.187E-02    0.241E-02
RMM:   9    -0.355669230013E+03   -0.17577E-04   -0.76588E-05  4922   0.153E-02    0.122E-02
RMM:  10    -0.355669236271E+03   -0.62578E-05   -0.31241E-05  4176   0.125E-02
   4 F= -.35566924E+03 E0= -.35567438E+03  d E =-.368675E-01
       N       E                     dE             d eps       ncg     rms          rms(c)
DAV:   1    -0.355736890215E+03   -0.67660E-01   -0.28756E+01  5040   0.149E+01    0.252E+00
RMM:   2    -0.355786481286E+03   -0.49591E-01   -0.11813E+00  7338   0.279E+00    0.123E+00
RMM:   3    -0.355739384177E+03    0.47097E-01   -0.17246E-01  7528   0.760E-01    0.792E-01
RMM:   4    -0.355730758096E+03    0.86261E-02   -0.43672E-02  7678   0.347E-01    0.486E-01
RMM:   5    -0.355728875107E+03    0.18830E-02   -0.16641E-02  7652   0.235E-01    0.320E-01
RMM:   6    -0.355729095799E+03   -0.22069E-03   -0.68097E-03  8014   0.128E-01    0.216E-01
RMM:   7    -0.355729153126E+03   -0.57327E-04   -0.28510E-03  8458   0.840E-02    0.134E-01
RMM:   8    -0.355729252971E+03   -0.99845E-04   -0.13799E-03  7900   0.499E-02    0.733E-02
RMM:   9    -0.355729346608E+03   -0.93637E-04   -0.58661E-04  7211   0.382E-02    0.414E-02
RMM:  10    -0.355729390614E+03   -0.44006E-04   -0.25627E-04  6471   0.227E-02    0.256E-02
RMM:  11    -0.355729403371E+03   -0.12758E-04   -0.85101E-05  5356   0.166E-02    0.128E-02
RMM:  12    -0.355729408438E+03   -0.50664E-05   -0.37655E-05  4538   0.129E-02
   5 F= -.35572941E+03 E0= -.35573451E+03  d E =-.970397E-01
       N       E                     dE             d eps       ncg     rms          rms(c)
DAV:   1    -0.355732698755E+03   -0.32954E-02   -0.22118E+00  5224   0.416E+00    0.696E-01
RMM:   2    -0.355736329632E+03   -0.36309E-02   -0.88643E-02  7317   0.765E-01    0.337E-01
RMM:   3    -0.355733105956E+03    0.32237E-02   -0.13329E-02  7516   0.211E-01    0.222E-01
RMM:   4    -0.355732415782E+03    0.69017E-03   -0.33038E-03  7663   0.951E-02    0.136E-01
RMM:   5    -0.355732286177E+03    0.12960E-03   -0.13013E-03  7589   0.662E-02    0.892E-02
RMM:   6    -0.355732312252E+03   -0.26075E-04   -0.55159E-04  7543   0.360E-02    0.593E-02
RMM:   7    -0.355732324609E+03   -0.12357E-04   -0.22416E-04  6645   0.242E-02    0.375E-02
RMM:   8    -0.355732338411E+03   -0.13802E-04   -0.92789E-05  5236   0.162E-02    0.196E-02
RMM:   9    -0.355732352034E+03   -0.13623E-04   -0.53471E-05  4540   0.134E-02    0.997E-03
RMM:  10    -0.355732356830E+03   -0.47960E-05   -0.21513E-05  3615   0.118E-02
   6 F= -.35573236E+03 E0= -.35573743E+03  d E =-.999881E-01
       N       E                     dE             d eps       ncg     rms          rms(c)
DAV:   1    -0.355740697032E+03   -0.83450E-02   -0.12792E+00  5200   0.326E+00    0.388E-01
RMM:   2    -0.355744080976E+03   -0.33839E-02   -0.43790E-02  7317   0.574E-01    0.210E-01
RMM:   3    -0.355742767803E+03    0.13132E-02   -0.62219E-03  7456   0.160E-01    0.139E-01
RMM:   4    -0.355742506943E+03    0.26086E-03   -0.13208E-03  7932   0.629E-02    0.810E-02
RMM:   5    -0.355742482748E+03    0.24195E-04   -0.55316E-04  7674   0.402E-02    0.477E-02
RMM:   6    -0.355742466608E+03    0.16140E-04   -0.23089E-04  7036   0.240E-02    0.305E-02
RMM:   7    -0.355742462202E+03    0.44056E-05   -0.70909E-05  4706   0.152E-02
   7 F= -.35574246E+03 E0= -.35574764E+03  d E =-.101054E-01
       N       E                     dE             d eps       ncg     rms          rms(c)
DAV:   1    -0.355745614790E+03   -0.31482E-02   -0.11502E+01  4928   0.979E+00    0.114E+00
RMM:   2    -0.355776924444E+03   -0.31310E-01   -0.39601E-01  7317   0.174E+00    0.629E-01
RMM:   3    -0.355765240672E+03    0.11684E-01   -0.55804E-02  7568   0.480E-01    0.418E-01
RMM:   4    -0.355763030714E+03    0.22100E-02   -0.11383E-02  7875   0.182E-01    0.248E-01
RMM:   5    -0.355762829133E+03    0.20158E-03   -0.48668E-03  7721   0.117E-01    0.145E-01
RMM:   6    -0.355762710277E+03    0.11886E-03   -0.20786E-03  8151   0.719E-02    0.932E-02
RMM:   7    -0.355762722953E+03   -0.12677E-04   -0.87532E-04  7853   0.403E-02    0.599E-02
RMM:   8    -0.355762716981E+03    0.59723E-05   -0.34869E-04  6923   0.266E-02    0.333E-02
RMM:   9    -0.355762724465E+03   -0.74838E-05   -0.17165E-04  5832   0.209E-02    0.175E-02
RMM:  10    -0.355762725376E+03   -0.91120E-06   -0.84106E-05  5224   0.162E-02
   8 F= -.35576273E+03 E0= -.35576816E+03  d E =-.303685E-01
       N       E                     dE             d eps       ncg     rms          rms(c)
DAV:   1    -0.355683411760E+03    0.79313E-01   -0.45974E+01  4928   0.196E+01    0.223E+00
RMM:   2    -0.355811477499E+03   -0.12807E+00   -0.16097E+00  7307   0.353E+00    0.124E+00
RMM:   3    -0.355768298937E+03    0.43179E-01   -0.22715E-01  7624   0.972E-01    0.845E-01
RMM:   4    -0.355759476125E+03    0.88228E-02   -0.44578E-02  7796   0.365E-01    0.510E-01
RMM:   5    -0.355758528258E+03    0.94787E-03   -0.19178E-02  7545   0.236E-01    0.296E-01
RMM:   6    -0.355757945231E+03    0.58303E-03   -0.82681E-03  8095   0.145E-01    0.187E-01
RMM:   7    -0.355758027146E+03   -0.81915E-04   -0.36636E-03  8656   0.793E-02    0.120E-01
RMM:   8    -0.355758016237E+03    0.10910E-04   -0.14092E-03  8365   0.498E-02    0.688E-02
RMM:   9    -0.355758061498E+03   -0.45262E-04   -0.63264E-04  7401   0.363E-02    0.371E-02
RMM:  10    -0.355758076054E+03   -0.14556E-04   -0.30275E-04  6867   0.261E-02    0.208E-02
RMM:  11    -0.355758080620E+03   -0.45656E-05   -0.13987E-04  5960   0.183E-02    0.137E-02
RMM:  12    -0.355758081026E+03   -0.40628E-06   -0.59937E-05  4761   0.134E-02
   9 F= -.35575808E+03 E0= -.35576385E+03  d E =-.257242E-01
       N       E                     dE             d eps       ncg     rms          rms(c)
DAV:   1    -0.355747649230E+03    0.10431E-01   -0.15754E+01  4936   0.115E+01    0.134E+00
RMM:   2    -0.355787215653E+03   -0.39566E-01   -0.53293E-01  7320   0.201E+00    0.707E-01
RMM:   3    -0.355771234615E+03    0.15981E-01   -0.72829E-02  7437   0.551E-01    0.458E-01
RMM:   4    -0.355768209024E+03    0.30256E-02   -0.15880E-02  7962   0.219E-01    0.259E-01
RMM:   5    -0.355768040199E+03    0.16882E-03   -0.63473E-03  7941   0.137E-01    0.160E-01
RMM:   6    -0.355768014147E+03    0.26052E-04   -0.26336E-03  8377   0.806E-02    0.104E-01
RMM:   7    -0.355768076128E+03   -0.61980E-04   -0.10676E-03  7996   0.484E-02    0.660E-02
RMM:   8    -0.355768105178E+03   -0.29051E-04   -0.45476E-04  7444   0.302E-02    0.360E-02
RMM:   9    -0.355768133384E+03   -0.28206E-04   -0.17954E-04  6054   0.224E-02    0.190E-02
RMM:  10    -0.355768148711E+03   -0.15328E-04   -0.99063E-05  5324   0.167E-02    0.987E-03
RMM:  11    -0.355768152627E+03   -0.39156E-05   -0.36014E-05  4187   0.132E-02
  10 F= -.35576815E+03 E0= -.35577375E+03  d E =-.357958E-01
       N       E                     dE             d eps       ncg     rms          rms(c)
DAV:   1    -0.355790500933E+03   -0.22352E-01   -0.35217E+00  5152   0.571E+00    0.147E+00
RMM:   2    -0.355784063117E+03    0.64378E-02   -0.20212E-01  6896   0.118E+00    0.494E-01
RMM:   3    -0.355780838751E+03    0.32244E-02   -0.36073E-02  7451   0.381E-01    0.360E-01
RMM:   4    -0.355777161813E+03    0.36769E-02   -0.10053E-02  7635   0.185E-01    0.198E-01
RMM:   5    -0.355777032093E+03    0.12972E-03   -0.32717E-03  7576   0.103E-01    0.152E-01
RMM:   6    -0.355777117638E+03   -0.85545E-04   -0.12762E-03  8120   0.580E-02    0.927E-02
RMM:   7    -0.355777189943E+03   -0.72304E-04   -0.54922E-04  6965   0.409E-02    0.485E-02
RMM:   8    -0.355777239363E+03   -0.49421E-04   -0.29224E-04  6593   0.271E-02    0.326E-02
RMM:   9    -0.355777267206E+03   -0.27842E-04   -0.11005E-04  5104   0.190E-02    0.260E-02
RMM:  10    -0.355777298131E+03   -0.30925E-04   -0.60674E-05  4811   0.146E-02    0.124E-02
RMM:  11    -0.355777310057E+03   -0.11926E-04   -0.27802E-05  4057   0.128E-02    0.506E-03
RMM:  12    -0.355777313089E+03   -0.30319E-05   -0.15167E-05  3482   0.109E-02
  11 F= -.35577731E+03 E0= -.35578287E+03  d E =-.916046E-02
       N       E                     dE             d eps       ncg     rms          rms(c)
DAV:   1    -0.355781469152E+03   -0.41591E-02   -0.85850E-01  5344   0.282E+00    0.725E-01
RMM:   2    -0.355779908890E+03    0.15603E-02   -0.49356E-02  6911   0.583E-01    0.243E-01
RMM:   3    -0.355779147153E+03    0.76174E-03   -0.88115E-03  7451   0.189E-01    0.177E-01
RMM:   4    -0.355778266663E+03    0.88049E-03   -0.24910E-03  7636   0.915E-02    0.966E-02
RMM:   5    -0.355778245418E+03    0.21245E-04   -0.80837E-04  7521   0.515E-02    0.748E-02
RMM:   6    -0.355778278547E+03   -0.33129E-04   -0.32143E-04  6956   0.292E-02    0.457E-02
RMM:   7    -0.355778305472E+03   -0.26924E-04   -0.13173E-04  6006   0.223E-02    0.241E-02
RMM:   8    -0.355778323788E+03   -0.18317E-04   -0.82088E-05  4839   0.164E-02    0.155E-02
RMM:   9    -0.355778333798E+03   -0.10010E-04   -0.36473E-05  4134   0.132E-02    0.116E-02
RMM:  10    -0.355778342191E+03   -0.83924E-05   -0.11555E-05  3235   0.107E-02
  12 F= -.35577834E+03 E0= -.35578388E+03  d E =-.101896E-01
       N       E                     dE             d eps       ncg     rms          rms(c)
DAV:   1    -0.355781372102E+03   -0.30383E-02   -0.26464E+00  4944   0.472E+00    0.433E-01
RMM:   2    -0.355787420749E+03   -0.60486E-02   -0.83086E-02  7307   0.819E-01    0.208E-01
RMM:   3    -0.355787031875E+03    0.38887E-03   -0.95967E-03  7412   0.211E-01    0.148E-01
RMM:   4    -0.355786876227E+03    0.15565E-03   -0.23480E-03  8462   0.755E-02    0.102E-01
RMM:   5    -0.355786837736E+03    0.38491E-04   -0.91459E-04  7890   0.498E-02    0.579E-02
RMM:   6    -0.355786797898E+03    0.39837E-04   -0.36591E-04  7618   0.322E-02    0.316E-02
RMM:   7    -0.355786797076E+03    0.82221E-06   -0.10601E-04  5080   0.162E-02    0.180E-02
RMM:   8    -0.355786799612E+03   -0.25361E-05   -0.71967E-05  4480   0.161E-02
  13 F= -.35578680E+03 E0= -.35579257E+03  d E =-.845742E-02
       N       E                     dE             d eps       ncg     rms          rms(c)
DAV:   1    -0.355779592231E+03    0.72048E-02   -0.74106E+00  4928   0.790E+00    0.721E-01
RMM:   2    -0.355796723275E+03   -0.17131E-01   -0.23324E-01  7303   0.137E+00    0.349E-01
RMM:   3    -0.355795728876E+03    0.99440E-03   -0.27037E-02  7466   0.354E-01    0.246E-01
RMM:   4    -0.355795341174E+03    0.38770E-03   -0.65853E-03  8561   0.125E-01    0.172E-01
RMM:   5    -0.355795237231E+03    0.10394E-03   -0.25167E-03  8105   0.836E-02    0.967E-02
RMM:   6    -0.355795138161E+03    0.99070E-04   -0.10501E-03  8331   0.542E-02    0.533E-02
RMM:   7    -0.355795149028E+03   -0.10867E-04   -0.36522E-04  7073   0.276E-02    0.301E-02
RMM:   8    -0.355795158282E+03   -0.92545E-05   -0.19211E-04  6017   0.211E-02    0.196E-02
RMM:   9    -0.355795160369E+03   -0.20870E-05   -0.93052E-05  5109   0.159E-02
  14 F= -.35579516E+03 E0= -.35580132E+03  d E =-.168182E-01
       N       E                     dE             d eps       ncg     rms          rms(c)
DAV:   1    -0.355724903008E+03    0.70255E-01   -0.29626E+01  4928   0.158E+01    0.144E+00
RMM:   2    -0.355795425693E+03   -0.70523E-01   -0.94700E-01  7300   0.278E+00    0.707E-01
RMM:   3    -0.355791792856E+03    0.36328E-02   -0.10987E-01  7567   0.716E-01    0.501E-01
RMM:   4    -0.355790338179E+03    0.14547E-02   -0.26258E-02  8579   0.249E-01    0.362E-01
RMM:   5    -0.355789791615E+03    0.54656E-03   -0.98055E-03  8115   0.171E-01    0.199E-01
RMM:   6    -0.355789383986E+03    0.40763E-03   -0.42139E-03  8345   0.110E-01    0.109E-01
RMM:   7    -0.355789456353E+03   -0.72367E-04   -0.16497E-03  8635   0.560E-02    0.619E-02
RMM:   8    -0.355789494656E+03   -0.38303E-04   -0.70236E-04  7994   0.354E-02    0.421E-02
RMM:   9    -0.355789510662E+03   -0.16006E-04   -0.32085E-04  7444   0.263E-02    0.231E-02
RMM:  10    -0.355789511978E+03   -0.13161E-05   -0.13629E-04  6351   0.188E-02    0.127E-02
RMM:  11    -0.355789514264E+03   -0.22853E-05   -0.66125E-05  4988   0.145E-02
  15 F= -.35578951E+03 E0= -.35579630E+03  d E =-.111721E-01
       N       E                     dE             d eps       ncg     rms          rms(c)
DAV:   1    -0.355768521788E+03    0.20990E-01   -0.14534E+01  4928   0.111E+01    0.984E-01
RMM:   2    -0.355800069122E+03   -0.31547E-01   -0.45029E-01  7279   0.189E+00    0.458E-01
RMM:   3    -0.355797590904E+03    0.24782E-02   -0.50237E-02  7403   0.489E-01    0.328E-01
RMM:   4    -0.355796729570E+03    0.86133E-03   -0.12705E-02  8583   0.176E-01    0.215E-01
RMM:   5    -0.355796625458E+03    0.10411E-03   -0.47978E-03  8460   0.115E-01    0.128E-01
RMM:   6    -0.355796526913E+03    0.98545E-04   -0.18828E-03  8629   0.727E-02    0.708E-02
RMM:   7    -0.355796580774E+03   -0.53861E-04   -0.70320E-04  8116   0.392E-02    0.391E-02
RMM:   8    -0.355796607664E+03   -0.26890E-04   -0.30191E-04  7303   0.252E-02    0.252E-02
RMM:   9    -0.355796625061E+03   -0.17397E-04   -0.14646E-04  6117   0.190E-02    0.148E-02
RMM:  10    -0.355796632519E+03   -0.74573E-05   -0.63783E-05  4891   0.149E-02
  16 F= -.35579663E+03 E0= -.35580300E+03  d E =-.182903E-01
       N       E                     dE             d eps       ncg     rms          rms(c)
DAV:   1    -0.355799683453E+03   -0.30584E-02   -0.16346E+00  5168   0.365E+00    0.367E-01
RMM:   2    -0.355803189625E+03   -0.35062E-02   -0.48051E-02  7176   0.613E-01    0.173E-01
RMM:   3    -0.355802579794E+03    0.60983E-03   -0.64160E-03  7535   0.166E-01    0.135E-01
RMM:   4    -0.355802358793E+03    0.22100E-03   -0.13430E-03  8601   0.610E-02    0.830E-02
RMM:   5    -0.355802354796E+03    0.39964E-05   -0.54789E-04  8002   0.398E-02    0.512E-02
RMM:   6    -0.355802352087E+03    0.27091E-05   -0.22432E-04  7285   0.260E-02    0.285E-02
RMM:   7    -0.355802358348E+03   -0.62611E-05   -0.69090E-05  4761   0.154E-02
  17 F= -.35580236E+03 E0= -.35580885E+03  d E =-.572583E-02
       N       E                     dE             d eps       ncg     rms          rms(c)
DAV:   1    -0.355794033308E+03    0.83188E-02   -0.83311E+00  5152   0.823E+00    0.832E-01
RMM:   2    -0.355811988610E+03   -0.17955E-01   -0.24747E-01  7198   0.139E+00    0.393E-01
RMM:   3    -0.355808910193E+03    0.30784E-02   -0.33932E-02  7535   0.377E-01    0.305E-01
RMM:   4    -0.355807843021E+03    0.10672E-02   -0.74577E-03  8615   0.141E-01    0.186E-01
RMM:   5    -0.355807824005E+03    0.19015E-04   -0.29574E-03  8306   0.918E-02    0.116E-01
RMM:   6    -0.355807808786E+03    0.15219E-04   -0.12423E-03  8508   0.595E-02    0.649E-02
RMM:   7    -0.355807840654E+03   -0.31868E-04   -0.49280E-04  7624   0.333E-02    0.418E-02
RMM:   8    -0.355807859759E+03   -0.19105E-04   -0.21370E-04  6827   0.227E-02    0.218E-02
RMM:   9    -0.355807873246E+03   -0.13487E-04   -0.94289E-05  5246   0.162E-02    0.117E-02
RMM:  10    -0.355807878944E+03   -0.56973E-05   -0.42242E-05  4113   0.133E-02
  18 F= -.35580788E+03 E0= -.35581459E+03  d E =-.112464E-01
       N       E                     dE             d eps       ncg     rms          rms(c)
DAV:   1    -0.355827365068E+03   -0.19492E-01   -0.27988E+00  5424   0.512E+00    0.149E+00
RMM:   2    -0.355816446598E+03    0.10918E-01   -0.16795E-01  7030   0.107E+00    0.491E-01
RMM:   3    -0.355813928703E+03    0.25179E-02   -0.36111E-02  7579   0.375E-01    0.347E-01
RMM:   4    -0.355810280005E+03    0.36487E-02   -0.98228E-03  7625   0.186E-01    0.194E-01
RMM:   5    -0.355810086721E+03    0.19328E-03   -0.31955E-03  7628   0.100E-01    0.151E-01
RMM:   6    -0.355810078870E+03    0.78505E-05   -0.11505E-03  8100   0.565E-02    0.880E-02
RMM:   7    -0.355810103533E+03   -0.24663E-04   -0.50441E-04  6804   0.406E-02    0.413E-02
RMM:   8    -0.355810115305E+03   -0.11772E-04   -0.30129E-04  6662   0.270E-02    0.308E-02
RMM:   9    -0.355810121984E+03   -0.66782E-05   -0.87810E-05  5103   0.189E-02
  19 F= -.35581012E+03 E0= -.35581719E+03  d E =-.224304E-02
       N       E                     dE             d eps       ncg     rms          rms(c)
DAV:   1    -0.355811312982E+03   -0.11977E-02   -0.14277E-01  5600   0.116E+00    0.346E-01
RMM:   2    -0.355810701037E+03    0.61194E-03   -0.88932E-03  7060   0.244E-01    0.117E-01
RMM:   3    -0.355810565189E+03    0.13585E-03   -0.19540E-03  7567   0.863E-02    0.822E-02
RMM:   4    -0.355810362391E+03    0.20280E-03   -0.52383E-04  7529   0.437E-02    0.448E-02
RMM:   5    -0.355810351710E+03    0.10681E-04   -0.16407E-04  6719   0.240E-02    0.338E-02
RMM:   6    -0.355810356909E+03   -0.51990E-05   -0.46526E-05  3660   0.135E-02
  20 F= -.35581036E+03 E0= -.35581735E+03  d E =-.247797E-02
       N       E                     dE             d eps       ncg     rms          rms(c)
DAV:   1    -0.355810046438E+03    0.30527E-03   -0.16239E+00  4984   0.362E+00    0.249E-01
RMM:   2    -0.355813612448E+03   -0.35660E-02   -0.44842E-02  7182   0.596E-01    0.132E-01
RMM:   3    -0.355813320526E+03    0.29192E-03   -0.50779E-03  7347   0.163E-01    0.102E-01
RMM:   4    -0.355813232988E+03    0.87537E-04   -0.11058E-03  8572   0.515E-02    0.654E-02
RMM:   5    -0.359280269645E+03   -0.34670E+01   -0.34671E+01  7813   0.344E-02    0.198E+01
RMM:   6    -0.355531137978E+03    0.37491E+01   -0.16295E-04  5354   0.195E-02    0.937E-02
RMM:   7    -0.355531018550E+03    0.11943E-03   -0.47704E-04  7217   0.345E-02    0.556E-02
RMM:   8    -0.355530991469E+03    0.27081E-04   -0.11757E-04  6203   0.186E-02    0.387E-02
RMM:   9    -0.355530983372E+03    0.80969E-05   -0.87295E-05  6083   0.141E-02
  21 F= -.35553098E+03 E0= -.35553822E+03  d E =0.279374E+00
       N       E                     dE             d eps       ncg     rms          rms(c)
DAV:   1    -0.355768452929E+03   -0.23746E+00   -0.61790E+00  4936   0.707E+00    0.501E-01
RMM:   2    -0.355808806770E+03   -0.40354E-01   -0.43997E-01  7251   0.119E+00    0.264E-01
RMM:   3    -0.355813725438E+03   -0.49187E-02   -0.84345E-02  7384   0.325E-01    0.197E-01
RMM:   4    -0.355814298267E+03   -0.57283E-03   -0.16149E-02  8641   0.105E-01    0.128E-01
RMM:   5    -0.355814798729E+03   -0.50046E-03   -0.74811E-03  8170   0.684E-02    0.739E-02
RMM:   6    -0.355814925261E+03   -0.12653E-03   -0.25161E-03  8398   0.459E-02    0.327E-02
RMM:   7    -0.355815016536E+03   -0.91275E-04   -0.11349E-03  6344   0.230E-02    0.217E-02
RMM:   8    -0.355815050724E+03   -0.34189E-04   -0.44282E-04  5410   0.193E-02    0.128E-02
RMM:   9    -0.355815068882E+03   -0.18158E-04   -0.20268E-04  4274   0.140E-02    0.559E-03
RMM:  10    -0.355815076929E+03   -0.80470E-05   -0.87289E-05  3683   0.122E-02
  22 F= -.35581508E+03 E0= -.35582238E+03  d E =-.472002E-02
       N       E                     dE             d eps       ncg     rms          rms(c)
DAV:   1    -0.355814835242E+03    0.23364E-03   -0.15707E-01  5152   0.113E+00    0.786E-02
RMM:   2    -0.355815177267E+03   -0.34203E-03   -0.43178E-03  6935   0.186E-01    0.407E-02
RMM:   3    -0.355815142207E+03    0.35060E-04   -0.45985E-04  7077   0.530E-02    0.324E-02
RMM:   4    -0.355815132106E+03    0.10101E-04   -0.99737E-05  5753   0.157E-02    0.209E-02
RMM:   5    -0.355815129184E+03    0.29223E-05   -0.31739E-05  3528   0.101E-02
  23 F= -.35581513E+03 E0= -.35582240E+03  d E =-.477227E-02
       N       E                     dE             d eps       ncg     rms          rms(c)
DAV:   1    -0.355816559120E+03   -0.14270E-02   -0.47180E-01  5104   0.204E+00    0.341E-01
RMM:   2    -0.355816921415E+03   -0.36229E-03   -0.19697E-02  7361   0.383E-01    0.133E-01
RMM:   3    -0.355816747909E+03    0.17351E-03   -0.25376E-03  7452   0.102E-01    0.923E-02
RMM:   4    -0.355816562038E+03    0.18587E-03   -0.68975E-04  7599   0.449E-02    0.549E-02
RMM:   5    -0.355816555838E+03    0.61998E-05   -0.26366E-04  7277   0.301E-02    0.374E-02
RMM:   6    -0.355816561708E+03   -0.58693E-05   -0.10404E-04  5876   0.168E-02    0.230E-02
RMM:   7    -0.355816569964E+03   -0.82561E-05   -0.40711E-05  3942   0.132E-02
  24 F= -.35581657E+03 E0= -.35582377E+03  d E =-.144078E-02
       N       E                     dE             d eps       ncg     rms          rms(c)
DAV:   1    -0.355816930337E+03   -0.36863E-03   -0.46143E-01  5056   0.201E+00    0.334E-01
RMM:   2    -0.355817301575E+03   -0.37124E-03   -0.19349E-02  7369   0.378E-01    0.131E-01
RMM:   3    -0.355817140822E+03    0.16075E-03   -0.25523E-03  7448   0.101E-01    0.912E-02
RMM:   4    -0.355816968035E+03    0.17279E-03   -0.71688E-04  7613   0.449E-02    0.546E-02
RMM:   5    -0.355816969326E+03   -0.12915E-05   -0.28367E-04  7302   0.304E-02    0.375E-02
RMM:   6    -0.355816978687E+03   -0.93606E-05   -0.11058E-04  5525   0.172E-02    0.238E-02
RMM:   7    -0.355816988907E+03   -0.10220E-04   -0.50906E-05  4223   0.141E-02    0.123E-02
RMM:   8    -0.355816994212E+03   -0.53049E-05   -0.27997E-05  3725   0.117E-02
  25 F= -.35581699E+03 E0= -.35582413E+03  d E =-.186503E-02
       N       E                     dE             d eps       ncg     rms          rms(c)
DAV:   1    -0.355818277115E+03   -0.12882E-02   -0.17878E-01  5328   0.129E+00    0.313E-01
RMM:   2    -0.355818232993E+03    0.44122E-04   -0.10137E-02  7181   0.265E-01    0.119E-01
RMM:   3    -0.355817965759E+03    0.26723E-03   -0.19844E-03  7529   0.841E-02    0.886E-02
RMM:   4    -0.355817751219E+03    0.21454E-03   -0.52518E-04  7595   0.438E-02    0.450E-02
RMM:   5    -0.355817730637E+03    0.20582E-04   -0.16259E-04  6801   0.257E-02    0.336E-02
RMM:   6    -0.355817721484E+03    0.91536E-05   -0.58186E-05  4396   0.136E-02
  26 F= -.35581772E+03 E0= -.35582487E+03  d E =-.727271E-03
       N       E                     dE             d eps       ncg     rms          rms(c)
DAV:   1    -0.355818970943E+03   -0.12403E-02   -0.33824E-01  5200   0.177E+00    0.421E-01
RMM:   2    -0.355818870473E+03    0.10047E-03   -0.18816E-02  7126   0.362E-01    0.158E-01
RMM:   3    -0.355818337439E+03    0.53303E-03   -0.35139E-03  7515   0.114E-01    0.116E-01
RMM:   4    -0.355817964107E+03    0.37333E-03   -0.93372E-04  7604   0.585E-02    0.608E-02
RMM:   5    -0.355817934335E+03    0.29771E-04   -0.29665E-04  7352   0.346E-02    0.464E-02
RMM:   6    -0.355817927393E+03    0.69422E-05   -0.12352E-04  6162   0.182E-02    0.285E-02
RMM:   7    -0.355817922411E+03    0.49818E-05   -0.48626E-05  4208   0.142E-02
  27 F= -.35581792E+03 E0= -.35582509E+03  d E =-.928199E-03
       N       E                     dE             d eps       ncg     rms          rms(c)
DAV:   1    -0.355817976691E+03   -0.49298E-04   -0.90602E-03  5632   0.290E-01    0.741E-02
RMM:   2    -0.355817968234E+03    0.84577E-05   -0.52819E-04  7177   0.592E-02    0.298E-02
RMM:   3    -0.355817955116E+03    0.13118E-04   -0.10597E-04  5627   0.193E-02    0.225E-02
RMM:   4    -0.355817941538E+03    0.13577E-04   -0.28553E-05  3241   0.140E-02    0.124E-02
RMM:   5    -0.355817939962E+03    0.15766E-05   -0.90962E-06  2756   0.106E-02
  28 F= -.35581794E+03 E0= -.35582510E+03  d E =-.945750E-03
       N       E                     dE             d eps       ncg     rms          rms(c)
DAV:   1    -0.355818064534E+03   -0.12300E-03   -0.59176E-02  5360   0.742E-01    0.176E-01
RMM:   2    -0.355818039352E+03    0.25181E-04   -0.32949E-03  7147   0.151E-01    0.661E-02
RMM:   3    -0.355817950422E+03    0.88930E-04   -0.60845E-04  7490   0.471E-02    0.492E-02
RMM:   4    -0.355817888272E+03    0.62150E-04   -0.15918E-04  6994   0.244E-02    0.257E-02
RMM:   5    -0.355817886385E+03    0.18875E-05   -0.41055E-05  4146   0.151E-02
  29 F= -.35581789E+03 E0= -.35582504E+03  d E =-.892173E-03
       N       E                     dE             d eps       ncg     rms          rms(c)
DAV:   1    -0.355818029909E+03   -0.14164E-03   -0.25635E-02  5456   0.487E-01    0.124E-01
RMM:   2    -0.355818029070E+03    0.83874E-06   -0.14422E-03  6992   0.991E-02    0.463E-02
RMM:   3    -0.355817992799E+03    0.36271E-04   -0.28759E-04  6963   0.327E-02    0.339E-02
RMM:   4    -0.355817959012E+03    0.33787E-04   -0.71142E-05  5834   0.173E-02    0.160E-02
RMM:   5    -0.355817954077E+03    0.49346E-05   -0.15477E-05  2665   0.123E-02
  30 F= -.35581795E+03 E0= -.35582512E+03  d E =-.959865E-03
       N       E                     dE             d eps       ncg     rms          rms(c)
DAV:   1    -0.355817957342E+03    0.16697E-05   -0.94429E-04  5152   0.957E-02    0.200E-02
RMM:   2    -0.355817956964E+03    0.37790E-06   -0.56050E-05  4421   0.193E-02
  31 F= -.35581796E+03 E0= -.35582512E+03  d E =-.962752E-03
       N       E                     dE             d eps       ncg     rms          rms(c)
DAV:   1    -0.355818182263E+03   -0.22492E-03   -0.26665E-02  5136   0.470E-01    0.453E-02
RMM:   2    -0.355818223001E+03   -0.40738E-04   -0.84656E-04  7207   0.818E-02    0.251E-02
RMM:   3    -0.355818210227E+03    0.12774E-04   -0.96517E-05  4785   0.224E-02    0.189E-02
RMM:   4    -0.355818203242E+03    0.69848E-05   -0.46253E-05  4121   0.133E-02
  32 F= -.35581820E+03 E0= -.35582535E+03  d E =-.246278E-03
       N       E                     dE             d eps       ncg     rms          rms(c)
DAV:   1    -0.355818466188E+03   -0.25596E-03   -0.23885E-01  4944   0.141E+00    0.134E-01
RMM:   2    -0.355818809006E+03   -0.34282E-03   -0.74358E-03  7353   0.243E-01    0.699E-02
RMM:   3    -0.355818775918E+03    0.33088E-04   -0.11128E-03  7178   0.680E-02    0.521E-02
RMM:   4    -0.355818723059E+03    0.52859E-04   -0.35915E-04  7938   0.310E-02    0.238E-02
RMM:   5    -0.355818725169E+03   -0.21098E-05   -0.13207E-04  5209   0.177E-02    0.123E-02
RMM:   6    -0.355818725206E+03   -0.36358E-07   -0.46586E-05  4210   0.126E-02
  33 F= -.35581873E+03 E0= -.35582584E+03  d E =-.768242E-03
       N       E                     dE             d eps       ncg     rms          rms(c)
DAV:   1    -0.355817692633E+03    0.10325E-02   -0.95611E-01  4928   0.281E+00    0.267E-01
RMM:   2    -0.355819047271E+03   -0.13546E-02   -0.29544E-02  7347   0.485E-01    0.139E-01
RMM:   3    -0.355818898190E+03    0.14908E-03   -0.43472E-03  7331   0.133E-01    0.103E-01
RMM:   4    -0.355818684112E+03    0.21408E-03   -0.13077E-03  8248   0.597E-02    0.478E-02
RMM:   5    -0.355818695116E+03   -0.11004E-04   -0.54061E-04  7357   0.344E-02    0.258E-02
RMM:   6    -0.355818694613E+03    0.50278E-06   -0.18332E-04  5576   0.201E-02    0.146E-02
RMM:   7    -0.355818699082E+03   -0.44685E-05   -0.79359E-05  5150   0.154E-02
  34 F= -.35581870E+03 E0= -.35582573E+03  d E =-.742118E-03
       N       E                     dE             d eps       ncg     rms          rms(c)
DAV:   1    -0.355818663702E+03    0.30911E-04   -0.28082E-01  4928   0.153E+00    0.145E-01
RMM:   2    -0.355819018468E+03   -0.35477E-03   -0.83034E-03  7207   0.262E-01    0.736E-02
RMM:   3    -0.355818959397E+03    0.59072E-04   -0.10796E-03  7263   0.708E-02    0.545E-02
RMM:   4    -0.355818891349E+03    0.68047E-04   -0.32466E-04  7841   0.309E-02    0.245E-02
RMM:   5    -0.355818890898E+03    0.45132E-06   -0.10446E-04  5219   0.171E-02    0.128E-02
RMM:   6    -0.355818891271E+03   -0.37263E-06   -0.41815E-05  4060   0.117E-02
  35 F= -.35581889E+03 E0= -.35582597E+03  d E =-.934307E-03
       N       E                     dE             d eps       ncg     rms          rms(c)
DAV:   1    -0.355819684573E+03   -0.79368E-03   -0.12611E-01  5328   0.108E+00    0.280E-01
RMM:   2    -0.355819366394E+03    0.31818E-03   -0.67779E-03  6839   0.216E-01    0.949E-02
RMM:   3    -0.355819245619E+03    0.12077E-03   -0.13467E-03  7510   0.735E-02    0.687E-02
RMM:   4    -0.355819111344E+03    0.13428E-03   -0.36134E-04  7509   0.363E-02    0.383E-02
RMM:   5    -0.355819108022E+03    0.33217E-05   -0.11340E-04  6508   0.208E-02    0.294E-02
RMM:   6    -0.355819117073E+03   -0.90511E-05   -0.34994E-05  3431   0.117E-02
  36 F= -.35581912E+03 E0= -.35582614E+03  d E =-.225803E-03
       N       E                     dE             d eps       ncg     rms          rms(c)
DAV:   1    -0.355819250803E+03   -0.14278E-03   -0.29807E-02  5344   0.526E-01    0.133E-01
RMM:   2    -0.355819176781E+03    0.74022E-04   -0.16239E-03  6845   0.108E-01    0.443E-02
RMM:   3    -0.355819149575E+03    0.27206E-04   -0.30263E-04  7372   0.359E-02    0.330E-02
RMM:   4    -0.355819123960E+03    0.25615E-04   -0.85018E-05  5697   0.176E-02    0.202E-02
RMM:   5    -0.355819125190E+03   -0.12303E-05   -0.21503E-05  3066   0.127E-02
  37 F= -.35581913E+03 E0= -.35582613E+03  d E =-.233920E-03
       N       E                     dE             d eps       ncg     rms          rms(c)
DAV:   1    -0.355819208214E+03   -0.84254E-04   -0.49002E-02  5056   0.633E-01    0.473E-02
RMM:   2    -0.355819320296E+03   -0.11208E-03   -0.14283E-03  7296   0.107E-01    0.270E-02
RMM:   3    -0.355819312937E+03    0.73588E-05   -0.14820E-04  5567   0.312E-02    0.201E-02
RMM:   4    -0.355819313718E+03   -0.78101E-06   -0.68880E-05  4675   0.140E-02
  38 F= -.35581931E+03 E0= -.35582631E+03  d E =-.188528E-03
       N       E                     dE             d eps       ncg     rms          rms(c)
DAV:   1    -0.355818771426E+03    0.54151E-03   -0.44091E-01  4928   0.190E+00    0.133E-01
RMM:   2    -0.355819742043E+03   -0.97062E-03   -0.12621E-02  7272   0.317E-01    0.747E-02
RMM:   3    -0.355819677011E+03    0.65032E-04   -0.14453E-03  7288   0.864E-02    0.557E-02
RMM:   4    -0.355819650035E+03    0.26976E-04   -0.35948E-04  8200   0.297E-02    0.345E-02
RMM:   5    -0.355819648406E+03    0.16289E-05   -0.12980E-04  5860   0.203E-02    0.169E-02
RMM:   6    -0.355819645804E+03    0.26017E-05   -0.57873E-05  4504   0.142E-02
  39 F= -.35581965E+03 E0= -.35582664E+03  d E =-.520614E-03
       N       E                     dE             d eps       ncg     rms          rms(c)
DAV:   1    -0.355815984844E+03    0.36636E-02   -0.17643E+00  4928   0.380E+00    0.264E-01
RMM:   2    -0.355819848729E+03   -0.38639E-02   -0.50354E-02  7243   0.634E-01    0.147E-01
RMM:   3    -0.355819563765E+03    0.28496E-03   -0.56283E-03  7358   0.171E-01    0.108E-01
RMM:   4    -0.355819458350E+03    0.10541E-03   -0.13231E-03  8562   0.571E-02    0.682E-02
RMM:   5    -0.355819458325E+03    0.25299E-07   -0.56859E-04  7765   0.389E-02    0.355E-02
RMM:   6    -0.355819443155E+03    0.15170E-04   -0.21252E-04  6506   0.239E-02    0.170E-02
RMM:   7    -0.355819447030E+03   -0.38751E-05   -0.75947E-05  4958   0.148E-02
  40 F= -.35581945E+03 E0= -.35582641E+03  d E =-.321840E-03
       N       E                     dE             d eps       ncg     rms          rms(c)
DAV:   1    -0.355818083627E+03    0.13595E-02   -0.88332E-01  4928   0.269E+00    0.187E-01
RMM:   2    -0.355819949071E+03   -0.18654E-02   -0.24636E-02  7087   0.448E-01    0.100E-01
RMM:   3    -0.355819778422E+03    0.17065E-03   -0.25313E-03  7322   0.121E-01    0.749E-02
RMM:   4    -0.355819711816E+03    0.66605E-04   -0.56474E-04  8471   0.385E-02    0.456E-02
RMM:   5    -0.355819710773E+03    0.10430E-05   -0.23914E-04  7129   0.262E-02    0.239E-02
RMM:   6    -0.355819704410E+03    0.63631E-05   -0.85033E-05  5647   0.164E-02
  41 F= -.35581970E+03 E0= -.35582669E+03  d E =-.579220E-03
       N       E                     dE             d eps       ncg     rms          rms(c)
DAV:   1    -0.355820719323E+03   -0.10085E-02   -0.48713E-02  5584   0.720E-01    0.289E-01
RMM:   2    -0.355820163434E+03    0.55589E-03   -0.43140E-03  7286   0.170E-01    0.918E-02
RMM:   3    -0.355820064429E+03    0.99005E-04   -0.12801E-03  7647   0.625E-02    0.705E-02
RMM:   4    -0.355819896916E+03    0.16751E-03   -0.31938E-04  7422   0.377E-02    0.369E-02
RMM:   5    -0.355819883850E+03    0.13067E-04   -0.10531E-04  6547   0.186E-02    0.288E-02
RMM:   6    -0.355819876743E+03    0.71071E-05   -0.25203E-05  3173   0.110E-02
  42 F= -.35581988E+03 E0= -.35582689E+03  d E =-.172332E-03
       N       E                     dE             d eps       ncg     rms          rms(c)
DAV:   1    -0.355819907473E+03   -0.23623E-04   -0.22449E-03  5368   0.157E-01    0.582E-02
RMM:   2    -0.355819883653E+03    0.23820E-04   -0.20080E-04  7179   0.382E-02    0.184E-02
RMM:   3    -0.355819873952E+03    0.97006E-05   -0.43259E-05  4663   0.129E-02
  43 F= -.35581987E+03 E0= -.35582689E+03  d E =-.169542E-03
       N       E                     dE             d eps       ncg     rms          rms(c)
DAV:   1    -0.355819986386E+03   -0.10273E-03   -0.91303E-03  5600   0.312E-01    0.122E-01
RMM:   2    -0.355819870255E+03    0.11613E-03   -0.87291E-04  7322   0.763E-02    0.381E-02
RMM:   3    -0.355819843008E+03    0.27248E-04   -0.23244E-04  6917   0.271E-02    0.299E-02
RMM:   4    -0.355819816009E+03    0.26999E-04   -0.54683E-05  4654   0.165E-02    0.189E-02
RMM:   5    -0.355819811961E+03    0.40475E-05   -0.16430E-05  2827   0.116E-02
  44 F= -.35581981E+03 E0= -.35582684E+03  d E =-.107551E-03
       N       E                     dE             d eps       ncg     rms          rms(c)
DAV:   1    -0.355819951697E+03   -0.13569E-03   -0.56856E-03  5616   0.244E-01    0.103E-01
RMM:   2    -0.355819879535E+03    0.72162E-04   -0.53353E-04  7153   0.583E-02    0.346E-02
RMM:   3    -0.355819868795E+03    0.10740E-04   -0.16595E-04  6588   0.223E-02    0.262E-02
RMM:   4    -0.355819845313E+03    0.23482E-04   -0.34741E-05  3664   0.143E-02    0.137E-02
RMM:   5    -0.355819843975E+03    0.13374E-05   -0.10652E-05  2547   0.105E-02
  45 F= -.35581984E+03 E0= -.35582687E+03  d E =-.139565E-03
       N       E                     dE             d eps       ncg     rms          rms(c)
DAV:   1    -0.355819855141E+03   -0.98284E-05   -0.23717E-04  5232   0.511E-02    0.174E-02
RMM:   2    -0.355819852747E+03    0.23946E-05   -0.18154E-05  2567   0.118E-02
  46 F= -.35581985E+03 E0= -.35582687E+03  d E =-.148336E-03
       N       E                     dE             d eps       ncg     rms          rms(c)
DAV:   1    -0.355819854249E+03    0.89235E-06   -0.19292E-05  2992   0.168E-02    0.793E-03
RMM:   2    -0.355819855226E+03   -0.97727E-06   -0.60886E-06  2502   0.836E-03
  47 F= -.35581986E+03 E0= -.35582687E+03  d E =-.150816E-03
       N       E                     dE             d eps       ncg     rms          rms(c)
DAV:   1    -0.355819855050E+03   -0.80076E-06   -0.41226E-06  2800   0.955E-03    0.324E-03
RMM:   2    -0.355819855943E+03   -0.89343E-06   -0.15636E-06  2449   0.392E-03
  48 F= -.35581986E+03 E0= -.35582688E+03  d E =-.151533E-03
       N       E                     dE             d eps       ncg     rms          rms(c)
DAV:   1    -0.355819856420E+03   -0.13705E-05   -0.97096E-07  2800   0.444E-03    0.194E-03
RMM:   2    -0.355819857093E+03   -0.67260E-06   -0.54161E-07  1658   0.236E-03
  49 F= -.35581986E+03 E0= -.35582688E+03  d E =-.152683E-03
       N       E                     dE             d eps       ncg     rms          rms(c)
DAV:   1    -0.355819857326E+03   -0.90570E-06   -0.42766E-07  2800   0.274E-03    0.128E-03
RMM:   2    -0.355819857830E+03   -0.50435E-06   -0.18770E-07   868   0.160E-03
  50 F= -.35581986E+03 E0= -.35582688E+03  d E =-.153420E-03
       N       E                     dE             d eps       ncg     rms          rms(c)
DAV:   1    -0.355819858320E+03   -0.99454E-06   -0.32480E-07  2800   0.180E-03    0.109E-03
RMM:   2    -0.355819858548E+03   -0.22751E-06   -0.13298E-07   997   0.169E-03
  51 F= -.35581986E+03 E0= -.35582688E+03  d E =-.154138E-03
       N       E                     dE             d eps       ncg     rms          rms(c)
DAV:   1    -0.355819858680E+03   -0.35958E-06   -0.17045E-07  2800   0.132E-03    0.730E-04
RMM:   2    -0.355819858810E+03   -0.12961E-06   -0.52217E-08   687   0.130E-03
  52 F= -.35581986E+03 E0= -.35582688E+03  d E =-.154399E-03
       N       E                     dE             d eps       ncg     rms          rms(c)
DAV:   1    -0.355819858884E+03   -0.20365E-06   -0.98418E-08  2792   0.110E-03    0.325E-04
RMM:   2    -0.355819858948E+03   -0.64498E-07   -0.50461E-09   355   0.944E-04
  53 F= -.35581986E+03 E0= -.35582688E+03  d E =-.154538E-03
       N       E                     dE             d eps       ncg     rms          rms(c)
DAV:   1    -0.355819858969E+03   -0.84925E-07   -0.67298E-08  2776   0.939E-04    0.237E-04
RMM:   2    -0.355819859012E+03   -0.43256E-07   -0.38159E-10   197   0.755E-04
  54 F= -.35581986E+03 E0= -.35582688E+03  d E =-.154602E-03
       N       E                     dE             d eps       ncg     rms          rms(c)
DAV:   1    -0.355819859046E+03   -0.77187E-07   -0.44857E-08  2776   0.756E-04    0.190E-04
RMM:   2    -0.355819859065E+03   -0.19671E-07    0.10711E-11   115   0.616E-04
  55 F= -.35581986E+03 E0= -.35582688E+03  d E =-.154655E-03
       N       E                     dE             d eps       ncg     rms          rms(c)
DAV:   1    -0.355819859073E+03   -0.27627E-07   -0.30591E-08  2752   0.624E-04    0.124E-04
RMM:   2    -0.355819859090E+03   -0.16829E-07    0.16606E-12    99   0.502E-04
  56 F= -.35581986E+03 E0= -.35582688E+03  d E =-.154680E-03
       N       E                     dE             d eps       ncg     rms          rms(c)
DAV:   1    -0.355819859100E+03   -0.26532E-07   -0.21603E-08  2744   0.502E-04    0.120E-04
RMM:   2    -0.355819859111E+03   -0.10710E-07    0.33696E-18    78   0.425E-04
  57 F= -.35581986E+03 E0= -.35582688E+03  d E =-.154700E-03
       N       E                     dE             d eps       ncg     rms          rms(c)
DAV:   1    -0.355819859116E+03   -0.15913E-07   -0.15346E-08  2728   0.427E-04    0.788E-05
RMM:   2    -0.355819859124E+03   -0.82691E-08    0.50067E-21    63   0.344E-04
  58 F= -.35581986E+03 E0= -.35582688E+03  d E =-.154714E-03
       N       E                     dE             d eps       ncg     rms          rms(c)
DAV:   1    -0.355819859127E+03   -0.11663E-07   -0.11149E-08  2728   0.344E-04    0.768E-05
RMM:   2    -0.355819859134E+03   -0.65957E-08    0.75255E-25    58   0.297E-04
  59 F= -.35581986E+03 E0= -.35582688E+03  d E =-.154724E-03
       N       E                     dE             d eps       ncg     rms          rms(c)
DAV:   1    -0.355820918336E+03   -0.10592E-02   -0.72383E-02  5432   0.879E-01    0.350E-01
RMM:   2    -0.355820048882E+03    0.86945E-03   -0.63742E-03  7249   0.206E-01    0.110E-01
RMM:   3    -0.355819912427E+03    0.13646E-03   -0.18675E-03  7632   0.760E-02    0.856E-02
RMM:   4    -0.355819676211E+03    0.23622E-03   -0.47475E-04  7451   0.455E-02    0.449E-02
RMM:   5    -0.355819670889E+03    0.53216E-05   -0.15442E-04  6734   0.229E-02    0.352E-02
RMM:   6    -0.355819683596E+03   -0.12707E-04   -0.44576E-05  3788   0.130E-02    0.212E-02
RMM:   7    -0.355819694803E+03   -0.11207E-04   -0.25126E-05  3193   0.122E-02    0.108E-02
RMM:   8    -0.355819700076E+03   -0.52732E-05   -0.14845E-05  2996   0.115E-02
  60 F= -.35581970E+03 E0= -.35582669E+03  d E =0.433379E-05
