 vasp.5.4.1 05Feb16 (build Jan 29 2020 16:04:39) complex                        
  
 executed on           IFC91_ompi date 2020.06.15  06:56:02
 running on  160 total cores
 distrk:  each k-point on   20 cores,    8 groups
 distr:  one band on NCORES_PER_BAND=   5 cores,    4 groups


--------------------------------------------------------------------------------------------------------


 INCAR:
 POTCAR:    PAW_PBE Ta 17Jan2003                  
 POTCAR:    PAW_PBE Hf 20Jan2003                  
 POTCAR:    PAW_PBE Nb_sv 25May2007               
 POTCAR:    PAW_PBE Zr_sv 04Jan2005               

 ----------------------------------------------------------------------------- 
|                                                                             |
|           W    W    AA    RRRRR   N    N  II  N    N   GGGG   !!!           |
|           W    W   A  A   R    R  NN   N  II  NN   N  G    G  !!!           |
|           W    W  A    A  R    R  N N  N  II  N N  N  G       !!!           |
|           W WW W  AAAAAA  RRRRR   N  N N  II  N  N N  G  GGG   !            |
|           WW  WW  A    A  R   R   N   NN  II  N   NN  G    G                |
|           W    W  A    A  R    R  N    N  II  N    N   GGGG   !!!           |
|                                                                             |
|      For optimal performance we recommend to set                            |
|        NCORE= 4 - approx SQRT( number of cores)                             |
|      NCORE specifies how many cores store one orbital (NPAR=cpu/NCORE).     |
|      This setting can  greatly improve the performance of VASP for DFT.     |
|      The default, NPAR=number of cores might be grossly inefficient         |
|      on modern multi-core architectures or massively parallel machines.     |
|      Do your own testing !!!!                                               |
|      Unfortunately you need to use the default for GW and RPA calculations. |
|      (for HF NCORE is supported but not extensively tested yet)             |
|                                                                             |
 ----------------------------------------------------------------------------- 


 ----------------------------------------------------------------------------- 
|                                                                             |
|           W    W    AA    RRRRR   N    N  II  N    N   GGGG   !!!           |
|           W    W   A  A   R    R  NN   N  II  NN   N  G    G  !!!           |
|           W    W  A    A  R    R  N N  N  II  N N  N  G       !!!           |
|           W WW W  AAAAAA  RRRRR   N  N N  II  N  N N  G  GGG   !            |
|           WW  WW  A    A  R   R   N   NN  II  N   NN  G    G                |
|           W    W  A    A  R    R  N    N  II  N    N   GGGG   !!!           |
|                                                                             |
|      You have enabled k-point parallelism (KPAR>1).                         |
|      This developmental code was originally  written by Paul Kent at ORNL,  |
|      and carefully double checked in Vienna.                                |
|      GW as well as linear response parallelism added by Martijn Marsman     |
|      and Georg Kresse.                                                      |
|      Carefully verify results versus KPAR=1.                                |
|      Report problems to Paul Kent and Vienna.                               |
|                                                                             |
 ----------------------------------------------------------------------------- 

 POTCAR:    PAW_PBE Ta 17Jan2003                  
   VRHFIN =Ta:  6s5d                                                            
   LEXCH  = PE                                                                  
   EATOM  =   130.6506 eV,    9.6025 Ry                                         
                                                                                
   TITEL  = PAW_PBE Ta 17Jan2003                                                
   LULTRA =        F    use ultrasoft PP ?                                      
   IUNSCR =        1    unscreen: 0-lin 1-nonlin 2-no                           
   RPACOR =    2.330    partial core radius                                     
   POMASS =  180.948; ZVAL   =    5.000    mass and valenz                      
   RCORE  =    2.900    outmost cutoff radius                                   
   RWIGS  =    2.840; RWIGS  =    1.503    wigner-seitz radius (au A)           
   ENMAX  =  223.667; ENMIN  =  167.750 eV                                      
   RCLOC  =    2.205    cutoff for local pot                                    
   LCOR   =        T    correct aug charges                                     
   LPAW   =        T    paw PP                                                  
   EAUG   =  332.075                                                            
   DEXC   =    0.000                                                            
   RMAX   =    2.970    core radius for proj-oper                               
   RAUG   =    1.300    factor for augmentation sphere                          
   RDEP   =    3.060    radius for radial grids                                 
   RDEPT  =    2.354    core radius for aug-charge                              
                                                                                
   Atomic configuration                                                         
   16 entries                                                                   
     n  l   j            E        occ.                                          
     1  0  0.50    -67341.2807   2.0000                                         
     2  0  0.50    -11566.9376   2.0000                                         
     2  1  1.50    -10134.1182   6.0000                                         
     3  0  0.50     -2648.5620   2.0000                                         
     3  1  1.50     -2222.6012   6.0000                                         
     3  2  2.50     -1726.3120  10.0000                                         
     4  0  0.50      -538.6961   2.0000                                         
     4  1  1.50      -399.0129   6.0000                                         
     4  2  2.50      -220.3959  10.0000                                         
     4  3  3.50       -23.0374  14.0000                                         
     5  0  0.50       -71.2901   2.0000                                         
     5  1  1.50       -37.8225   6.0000                                         
     5  2  2.50        -2.6455   4.0000                                         
     6  0  0.50        -4.9623   1.0000                                         
     6  1  1.50        -1.3606   0.0000                                         
     5  3  2.50        -1.3606   0.0000                                         
   Description                                                                  
     l       E           TYP  RCUT    TYP  RCUT                                 
     2     -2.6455043     23  2.500                                             
     2     -0.6258895     23  2.500                                             
     0     -4.9622780     23  2.500                                             
     0      4.7531321     23  2.500                                             
     1     -1.3605826     23  2.900                                             
     1     27.2116520     23  2.900                                             
  local pseudopotential read in
  partial core-charges read in
  partial kinetic energy density read in
  atomic valenz-charges read in
  non local Contribution for L=           2  read in
    real space projection operators read in
  non local Contribution for L=           2  read in
    real space projection operators read in
  non local Contribution for L=           0  read in
    real space projection operators read in
  non local Contribution for L=           0  read in
    real space projection operators read in
  non local Contribution for L=           1  read in
    real space projection operators read in
  non local Contribution for L=           1  read in
    real space projection operators read in
    PAW grid and wavefunctions read in
 
   number of l-projection  operators is LMAX  =           6
   number of lm-projection operators is LMMAX =          18
 
 POTCAR:    PAW_PBE Hf 20Jan2003                  
   VRHFIN =Hf: 6s5d                                                             
   LEXCH  = PE                                                                  
   EATOM  =    75.9011 eV,    5.5786 Ry                                         
                                                                                
   TITEL  = PAW_PBE Hf 20Jan2003                                                
   LULTRA =        F    use ultrasoft PP ?                                      
   IUNSCR =        1    unscreen: 0-lin 1-nonlin 2-no                           
   RPACOR =    2.500    partial core radius                                     
   POMASS =  178.490; ZVAL   =    4.000    mass and valenz                      
   RCORE  =    3.000    outmost cutoff radius                                   
   RWIGS  =    3.050; RWIGS  =    1.614    wigner-seitz radius (au A)           
   ENMAX  =  220.334; ENMIN  =  165.250 eV                                      
   RCLOC  =    2.212    cutoff for local pot                                    
   LCOR   =        T    correct aug charges                                     
   LPAW   =        T    paw PP                                                  
   EAUG   =  335.116                                                            
   DEXC   =    0.000                                                            
   RMAX   =    3.077    core radius for proj-oper                               
   RAUG   =    1.300    factor for augmentation sphere                          
   RDEP   =    3.047    radius for radial grids                                 
   RDEPT  =    2.344    core radius for aug-charge                              
                                                                                
   Atomic configuration                                                         
   16 entries                                                                   
     n  l   j            E        occ.                                          
     1  0  0.50    -65259.4397   2.0000                                         
     2  0  0.50    -11157.9882   2.0000                                         
     2  1  1.50     -9795.2113   6.0000                                         
     3  0  0.50     -2541.4058   2.0000                                         
     3  1  1.50     -2134.4770   6.0000                                         
     3  2  2.50     -1653.5418  10.0000                                         
     4  0  0.50      -510.9575   2.0000                                         
     4  1  1.50      -377.5023   6.0000                                         
     4  2  2.50      -205.2085  10.0000                                         
     4  3  3.50       -15.4905  14.0000                                         
     5  0  0.50       -65.6020   2.0000                                         
     5  1  1.50       -34.2798   6.0000                                         
     5  2  2.50        -1.9877   3.0000                                         
     6  0  0.50        -4.7357   1.0000                                         
     6  1  1.50        -1.3606   0.0000                                         
     5  3  2.50        -1.3606   0.0000                                         
   Description                                                                  
     l       E           TYP  RCUT    TYP  RCUT                                 
     2     -1.9876627     23  2.500                                             
     2      0.0744703     23  2.500                                             
     0     -4.7356889     23  2.600                                             
     0      3.2364747     23  2.600                                             
     1     -1.3605826     23  3.000                                             
     1     27.2116520     23  3.000                                             
  local pseudopotential read in
  partial core-charges read in
  partial kinetic energy density read in
  atomic valenz-charges read in
  non local Contribution for L=           2  read in
    real space projection operators read in
  non local Contribution for L=           2  read in
    real space projection operators read in
  non local Contribution for L=           0  read in
    real space projection operators read in
  non local Contribution for L=           0  read in
    real space projection operators read in
  non local Contribution for L=           1  read in
    real space projection operators read in
  non local Contribution for L=           1  read in
    real space projection operators read in
    PAW grid and wavefunctions read in
 
   number of l-projection  operators is LMAX  =           6
   number of lm-projection operators is LMMAX =          18
 
 POTCAR:    PAW_PBE Nb_sv 25May2007               
   VRHFIN =Nb: 4p5s4d                                                           
   LEXCH  = PE                                                                  
   EATOM  =  1555.1913 eV,  114.3033 Ry                                         
                                                                                
   TITEL  = PAW_PBE Nb_sv 25May2007                                             
   LULTRA =        F    use ultrasoft PP ?                                      
   IUNSCR =        1    unscreen: 0-lin 1-nonlin 2-no                           
   RPACOR =    1.800    partial core radius                                     
   POMASS =   92.910; ZVAL   =   13.000    mass and valenz                      
   RCORE  =    2.400    outmost cutoff radius                                   
   RWIGS  =    2.400; RWIGS  =    1.270    wigner-seitz radius (au A)           
   ENMAX  =  293.235; ENMIN  =  219.927 eV                                      
   ICORE  =        3    local potential                                         
   LCOR   =        T    correct aug charges                                     
   LPAW   =        T    paw PP                                                  
   EAUG   =  455.659                                                            
   DEXC   =    0.000                                                            
   RMAX   =    2.456    core radius for proj-oper                               
   RAUG   =    1.300    factor for augmentation sphere                          
   RDEP   =    2.451    radius for radial grids                                 
   RDEPT  =    1.956    core radius for aug-charge                              
                                                                                
   Atomic configuration                                                         
   11 entries                                                                   
     n  l   j            E        occ.                                          
     1  0  0.50    -18805.2457   2.0000                                         
     2  0  0.50     -2630.2869   2.0000                                         
     2  1  1.50     -2348.4046   6.0000                                         
     3  0  0.50      -438.8757   2.0000                                         
     3  1  1.50      -346.7588   6.0000                                         
     3  2  2.50      -196.2560  10.0000                                         
     4  0  0.50       -58.3859   2.0000                                         
     5  0  0.50        -3.9816   1.0000                                         
     4  1  1.50       -34.5141   6.0000                                         
     4  2  2.50        -3.0408   4.0000                                         
     4  3  2.50        -1.3606   0.0000                                         
   Description                                                                  
     l       E           TYP  RCUT    TYP  RCUT                                 
     0    -58.3859094     23  2.200                                             
     0     -3.9816262     23  2.200                                             
     1    -34.5140738     23  2.200                                             
     1     13.6058260     23  2.200                                             
     2     -3.0408010     23  2.200                                             
     2     -0.1283038     23  2.200                                             
     3     -1.3605826     23  2.400                                             
  local pseudopotential read in
  partial core-charges read in
  partial kinetic energy density read in
  atomic valenz-charges read in
  non local Contribution for L=           0  read in
    real space projection operators read in
  non local Contribution for L=           0  read in
    real space projection operators read in
  non local Contribution for L=           1  read in
    real space projection operators read in
  non local Contribution for L=           1  read in
    real space projection operators read in
  non local Contribution for L=           2  read in
    real space projection operators read in
  non local Contribution for L=           2  read in
    real space projection operators read in
    PAW grid and wavefunctions read in
 
   number of l-projection  operators is LMAX  =           6
   number of lm-projection operators is LMMAX =          18
 
 POTCAR:    PAW_PBE Zr_sv 04Jan2005               
   VRHFIN =Zr: 4s4p5s4d                                                         
   LEXCH  = PE                                                                  
   EATOM  =  1284.2219 eV,   94.3876 Ry                                         
                                                                                
   TITEL  = PAW_PBE Zr_sv 04Jan2005                                             
   LULTRA =        F    use ultrasoft PP ?                                      
   IUNSCR =        1    unscreen: 0-lin 1-nonlin 2-no                           
   RPACOR =    2.200    partial core radius                                     
   POMASS =   91.224; ZVAL   =   12.000    mass and valenz                      
   RCORE  =    2.500    outmost cutoff radius                                   
   RWIGS  =    3.070; RWIGS  =    1.625    wigner-seitz radius (au A)           
   ENMAX  =  229.898; ENMIN  =  172.424 eV                                      
   ICORE  =        3    local potential                                         
   LCOR   =        T    correct aug charges                                     
   LPAW   =        T    paw PP                                                  
   EAUG   =  461.257                                                            
   DEXC   =    0.000                                                            
   RMAX   =    2.561    core radius for proj-oper                               
   RAUG   =    1.300    factor for augmentation sphere                          
   RDEP   =    2.597    radius for radial grids                                 
   RDEPT  =    2.007    core radius for aug-charge                              
                                                                                
   Atomic configuration                                                         
   11 entries                                                                   
     n  l   j            E        occ.                                          
     1  0  0.50    -17820.0161   2.0000                                         
     2  0  0.50     -2467.0882   2.0000                                         
     2  1  1.50     -2199.6095   6.0000                                         
     3  0  0.50      -402.4863   2.0000                                         
     3  1  1.50      -315.3675   6.0000                                         
     3  2  2.50      -172.4472  10.0000                                         
     4  0  0.50       -52.4146   2.0000                                         
     5  0  0.50        -3.8421   1.0000                                         
     4  1  1.50       -30.5054   6.0000                                         
     4  2  2.50        -2.3341   3.0000                                         
     4  3  2.50        -1.3606   0.0000                                         
   Description                                                                  
     l       E           TYP  RCUT    TYP  RCUT                                 
     0    -52.4145962     23  2.200                                             
     0     -3.8421270     23  2.500                                             
     1    -30.5053914     23  2.200                                             
     1     20.4087390     23  2.200                                             
     2     -2.3340816     23  2.500                                             
     2     -0.6120942     23  2.500                                             
     3     -4.0817478     23  2.500                                             
  local pseudopotential read in
  partial core-charges read in
  partial kinetic energy density read in
  atomic valenz-charges read in
  non local Contribution for L=           0  read in
    real space projection operators read in
  non local Contribution for L=           0  read in
    real space projection operators read in
  non local Contribution for L=           1  read in
    real space projection operators read in
  non local Contribution for L=           1  read in
    real space projection operators read in
  non local Contribution for L=           2  read in
    real space projection operators read in
  non local Contribution for L=           2  read in
    real space projection operators read in
    PAW grid and wavefunctions read in
 
   number of l-projection  operators is LMAX  =           6
   number of lm-projection operators is LMMAX =          18
 
 Optimization of the real space projectors (new method)

 maximal supplied QI-value         = 12.85
 optimisation between [QCUT,QGAM] = [  8.87, 17.73] = [ 22.01, 88.06] Ry 
 Optimized for a Real-space Cutoff    1.90 Angstroem

   l    n(q)    QCUT    max X(q) W(low)/X(q) W(high)/X(q)  e(spline) 
   2      9     8.867    62.315    0.23E-03    0.62E-04    0.11E-05
   2      9     8.867    52.185    0.23E-03    0.62E-04    0.11E-05
   0     10     8.867   103.837    0.15E-04    0.23E-04    0.98E-07
   0     10     8.867    59.728    0.12E-04    0.21E-04    0.89E-07
   1     10     8.867    13.958    0.50E-04    0.22E-04    0.14E-06
   1     10     8.867     8.441    0.36E-04    0.19E-04    0.98E-07
 Optimization of the real space projectors (new method)

 maximal supplied QI-value         = 12.47
 optimisation between [QCUT,QGAM] = [  8.86, 17.71] = [ 21.96, 87.83] Ry 
 Optimized for a Real-space Cutoff    1.90 Angstroem

   l    n(q)    QCUT    max X(q) W(low)/X(q) W(high)/X(q)  e(spline) 
   2      9     8.855    48.111    0.22E-03    0.80E-04    0.10E-05
   2      9     8.855    40.545    0.21E-03    0.76E-04    0.95E-06
   0     10     8.855   121.658    0.27E-04    0.12E-04    0.11E-06
   0     10     8.855    71.177    0.22E-04    0.11E-04    0.99E-07
   1     10     8.855    14.183    0.65E-04    0.10E-03    0.98E-07
   1     10     8.855     8.257    0.43E-04    0.73E-04    0.72E-07
 Optimization of the real space projectors (new method)

 maximal supplied QI-value         = 15.68
 optimisation between [QCUT,QGAM] = [  8.78, 17.72] = [ 21.60, 87.97] Ry 
 Optimized for a Real-space Cutoff    1.96 Angstroem

   l    n(q)    QCUT    max X(q) W(low)/X(q) W(high)/X(q)  e(spline) 
   0     10     8.783    10.201    0.29E-04    0.25E-05    0.69E-07
   0     10     8.783     8.174    0.45E-04    0.57E-05    0.14E-06
   1     10     8.783     3.488    0.76E-05    0.24E-04    0.95E-07
   1     10     8.783     4.917    0.78E-04    0.14E-03    0.46E-06
   2      9     8.783   153.744    0.22E-03    0.34E-04    0.15E-05
   2      9     8.783   126.342    0.22E-03    0.35E-04    0.15E-05
 Optimization of the real space projectors (new method)

 maximal supplied QI-value         = 15.12
 optimisation between [QCUT,QGAM] = [  8.77, 17.69] = [ 21.53, 87.61] Ry 
 Optimized for a Real-space Cutoff    1.74 Angstroem

   l    n(q)    QCUT    max X(q) W(low)/X(q) W(high)/X(q)  e(spline) 
   0      9     8.768    12.107    0.28E-04    0.53E-06    0.29E-07
   0      9     8.768     9.948    0.36E-04    0.50E-05    0.64E-07
   1      9     8.768     3.563    0.14E-04    0.16E-04    0.88E-07
   1      9     8.768     4.524    0.21E-03    0.33E-03    0.19E-06
   2      8     8.768    87.261    0.19E-03    0.25E-03    0.24E-06
   2      8     8.768    70.950    0.19E-03    0.24E-03    0.24E-06
  PAW_PBE Ta 17Jan2003                  :
 energy of atom  1       EATOM= -130.6506
 kinetic energy error for atom=    0.0121 (will be added to EATOM!!)
  PAW_PBE Hf 20Jan2003                  :
 energy of atom  2       EATOM=  -75.9011
 kinetic energy error for atom=    0.0071 (will be added to EATOM!!)
  PAW_PBE Nb_sv 25May2007               :
 energy of atom  3       EATOM=-1555.1913
 kinetic energy error for atom=    0.0655 (will be added to EATOM!!)
  PAW_PBE Zr_sv 04Jan2005               :
 energy of atom  4       EATOM=-1284.2219
 kinetic energy error for atom=    0.0483 (will be added to EATOM!!)
 
 
 POSCAR: generated by pypospack                  
  positions in direct lattice
  No initial velocities read in
 exchange correlation table for  LEXCH =        8
   RHO(1)=    0.500       N(1)  =     2000
   RHO(2)=  100.500       N(2)  =     4000
 


--------------------------------------------------------------------------------------------------------


 ion  position               nearest neighbor table
   1  0.762  0.843  0.502-  25 2.82  24 2.89  26 2.92  27 2.94   9 2.96  12 2.98  22 3.02  33 3.04
                            20 3.27  16 3.29  17 3.31   6 3.40   5 3.57  20 3.62
   2  0.239  0.496  0.175-  28 2.81  13 2.89   9 2.90   3 2.93  34 2.94  33 3.01  36 3.03  35 3.05
                            23 3.26  18 3.32  32 3.34   4 3.44  32 3.56
   3  1.000  0.665  0.007-  29 2.82   8 2.84   6 2.85   4 2.89   2 2.93  32 2.98  17 3.01  31 3.04
                             9 3.33  34 3.34   7 3.34  35 3.42  35 3.47
   4  0.225  0.835  0.176-  25 2.75   7 2.76   9 2.83   3 2.89  24 2.91  15 2.94  33 3.02  35 3.08
                             6 3.11  20 3.34  18 3.41   2 3.44  31 3.61
   5  0.759  0.492  0.493-  28 2.77  13 2.82  27 2.87   9 2.91  19 2.96  22 2.96  33 3.01  14 3.02
                            32 3.28  23 3.31  16 3.32   8 3.49   1 3.57
   6  0.774  0.834  0.170-  25 2.76   9 2.83   7 2.85   3 2.85  24 2.90  15 3.00  33 3.02  35 3.07
                             4 3.11  30 3.37   1 3.40  32 3.50  17 3.52
   7  0.015  0.994  0.010-   4 2.76   6 2.85  11 2.91  31 2.95  21 2.96  18 3.00  30 3.01  17 3.03
                            15 3.27  25 3.28   3 3.34  34 3.51  15 3.62
   8  0.765  0.517  0.833-  27 2.75   3 2.84  22 2.90  35 2.97  34 2.97  19 3.02  36 3.05  14 3.11
                            29 3.21  17 3.23  32 3.48   5 3.49  21 3.72
   9  0.994  0.667  0.333-   6 2.83   4 2.83  23 2.89   2 2.90   5 2.91  32 2.95   1 2.96  20 2.99
                            28 3.31  25 3.31   3 3.33  33 3.39  33 3.50
  10  0.257  0.159  0.495-  26 2.82  12 2.84  13 2.86  28 2.92  24 2.99  25 2.99  14 3.02  19 3.03
                            18 3.21  20 3.24  16 3.35  11 3.40  16 3.55
  11  0.246  0.147  0.827-  26 2.72  12 2.79   7 2.91  34 2.97  19 2.99  15 2.99  14 3.03  36 3.03
                            31 3.18  21 3.35  10 3.40  21 3.55  18 3.63
  12  0.497  0.008  0.663-  11 2.79  10 2.84  21 2.92  16 2.93  20 2.97   1 2.98  31 2.99  17 3.04
                            14 3.33  15 3.55  22 3.55
  13  0.483  0.346  0.350-  23 2.74   5 2.82  10 2.86   2 2.89  18 2.94  16 2.95  32 2.99  30 3.18
                            28 3.22  14 3.28  33 3.30  36 3.75
  14  0.494  0.336  0.670-  10 3.02   5 3.02  11 3.03  23 3.04  16 3.05  29 3.09   8 3.11  21 3.13
                            36 3.20  13 3.28  22 3.28  12 3.33  19 3.36  19 3.54
  15  0.489  0.988  0.010-   4 2.94  11 2.99   6 3.00  31 3.01  18 3.02  30 3.04  21 3.05  17 3.08
                            35 3.26   7 3.27  24 3.27  12 3.55  36 3.60   7 3.62
  16  0.743  0.166  0.491-  12 2.93  26 2.93  13 2.95  25 2.97  24 2.98  28 2.99  14 3.05  19 3.07
                            30 3.27   1 3.29   5 3.32  10 3.35  21 3.54  10 3.55
  17  0.763  0.834  0.826-  27 2.94   3 3.01  26 3.02  22 3.03   7 3.03  12 3.04  15 3.08  35 3.08
                            21 3.21   8 3.23  31 3.29   1 3.31   6 3.52  31 3.60
  18  0.254  0.170  0.181-  28 2.94  13 2.94  25 2.96  24 2.98   7 3.00  15 3.02  34 3.09  36 3.10
                            10 3.21   2 3.32   4 3.41  30 3.43  30 3.47  11 3.63
  19  0.007  0.333  0.667-  23 2.94   5 2.96  29 2.97  11 2.99   8 3.02  10 3.03  21 3.06  16 3.07
                            26 3.23  34 3.26  28 3.28  27 3.29  14 3.36  14 3.54
  20  0.237  0.841  0.502-  25 2.87  26 2.88  24 2.94  12 2.97   9 2.99  27 3.00  33 3.04  22 3.09
                            10 3.24   1 3.27  31 3.28   4 3.34  23 3.45   1 3.62
  21  0.759  0.150  0.837-  26 2.84  12 2.92   7 2.96  34 3.03  15 3.05  19 3.06  36 3.10  14 3.13
                            17 3.21  11 3.35  30 3.42  16 3.54  11 3.55   8 3.72
  22  0.508  0.658  0.659-   8 2.90  29 2.93   5 2.96  23 2.97   1 3.02  17 3.03  31 3.07  20 3.09
                            14 3.28  33 3.32  27 3.32  35 3.52  12 3.55
  23  0.239  0.502  0.494-  28 2.70  13 2.74  27 2.87   9 2.89  19 2.94  22 2.97  33 2.97  14 3.04
                             2 3.26   5 3.31  20 3.45
  24  0.504  0.984  0.329-   1 2.89   6 2.90   4 2.91  20 2.94  18 2.98  16 2.98  10 2.99  30 2.99
                            33 3.19  15 3.27
  25  0.996  0.992  0.331-   4 2.75   6 2.76   1 2.82  20 2.87  30 2.94  18 2.96  16 2.97  10 2.99
                             7 3.28   9 3.31
  26  0.006  0.016  0.660-  11 2.72  10 2.82  21 2.84  20 2.88   1 2.92  16 2.93  31 2.96  17 3.02
                            19 3.23
  27  0.990  0.656  0.659-   8 2.75  29 2.77   5 2.87  23 2.87   1 2.94  17 2.94  20 3.00  31 3.01
                            19 3.29  22 3.32
  28  0.016  0.342  0.347-  23 2.70   5 2.77   2 2.81  10 2.92  18 2.94  32 2.95  16 2.99  30 3.13
                            13 3.22  19 3.28   9 3.31
  29  0.231  0.522  0.829-  27 2.77   3 2.82  34 2.87  22 2.93  35 2.94  19 2.97  36 2.99  14 3.09
                            31 3.17   8 3.21
  30  0.751  0.166  0.171-  25 2.94  24 2.99   7 3.01  15 3.04  28 3.13  34 3.17  13 3.18  36 3.21
                            16 3.27  32 3.30   6 3.37  21 3.42  18 3.43  18 3.47
  31  0.240  0.834  0.823-   7 2.95  26 2.96  12 2.99  15 3.01  27 3.01   3 3.04  35 3.06  22 3.07
                            29 3.17  11 3.18  20 3.28  17 3.29  17 3.60   4 3.61
  32  0.754  0.490  0.172-   9 2.95  28 2.95   3 2.98  13 2.99  33 3.03  34 3.05  35 3.07  36 3.08
                             5 3.28  30 3.30   2 3.34   8 3.48   6 3.50   2 3.56
  33  0.502  0.670  0.335-  23 2.97   5 3.01   2 3.01   4 3.02   6 3.02  32 3.03   1 3.04  20 3.04
                            24 3.19  13 3.30  22 3.32   9 3.39  35 3.40   9 3.50
  34  0.019  0.338  0.986-  29 2.87   2 2.94   8 2.97  11 2.97  21 3.03  32 3.05  18 3.09  30 3.17
                            36 3.20  19 3.26   3 3.34   7 3.51  36 3.69
  35  0.496  0.668  0.003-  29 2.94   8 2.97   2 3.05  31 3.06  32 3.07   6 3.07   4 3.08  17 3.08
                            15 3.26  36 3.33  33 3.40   3 3.42   3 3.47  22 3.52
  36  0.484  0.341  0.983-  29 2.99  11 3.03   2 3.03   8 3.05  32 3.08  21 3.10  18 3.10  14 3.20
                            34 3.20  30 3.21  35 3.33  15 3.60  34 3.69  13 3.75
 
  LATTYP: Found a triclinic cell.
 ALAT       =    19.9423577769
 B/A-ratio  =     0.3457461070
 C/A-ratio  =     0.5096419881
 COS(alpha) =     0.0002483995
 COS(beta)  =     0.5094336170
 COS(gamma) =     0.6911351129
  
  Lattice vectors:
  
 A1 = (  13.7861773821, -10.1616164647, -10.2166774304)
 A2 = (   6.8949917313,  -0.0010076386,   0.0032374132)
 A3 = (   0.0010375685, -10.1634621394,   0.0036963377)


Analysis of symmetry for initial positions (statically):
=====================================================================
 Subroutine PRICEL returns:
 Original cell was already a primitive cell.
 

 Routine SETGRP: Setting up the symmetry group for a 
 triclinic supercell.


 Subroutine GETGRP returns: Found  1 space group operations
 (whereof  1 operations were pure point group operations)
 out of a pool of  2 trial point group operations.


The static configuration has the point symmetry C_1 .


Analysis of symmetry for dynamics (positions and initial velocities):
=====================================================================
 Subroutine PRICEL returns:
 Original cell was already a primitive cell.
 

 Routine SETGRP: Setting up the symmetry group for a 
 triclinic supercell.


 Subroutine GETGRP returns: Found  1 space group operations
 (whereof  1 operations were pure point group operations)
 out of a pool of  2 trial point group operations.


The dynamic configuration has the point symmetry C_1 .


 Subroutine INISYM returns: Found  1 space group operations
 (whereof  1 operations are pure point group operations),
 and found     1 'primitive' translations

 
 
 KPOINTS: k-points                                

Automatic generation of k-mesh.
Space group operators:
 irot       det(A)        alpha          n_x          n_y          n_z        tau_x        tau_y        tau_z
    1     1.000000     0.000002     1.000000     0.000000     0.000000     0.000000     0.000000     0.000000
 
 Subroutine IBZKPT returns following result:
 ===========================================
 
 Found     14 irreducible k-points:
 
 Following reciprocal coordinates:
            Coordinates               Weight
  0.000000  0.000000  0.000000      1.000000
  0.333333  0.000000  0.000000      2.000000
  0.000000  0.333333 -0.000000      2.000000
  0.333333  0.333333 -0.000000      2.000000
 -0.333333  0.333333  0.000000      2.000000
 -0.000000 -0.000000  0.333333      2.000000
  0.333333  0.000000  0.333333      2.000000
 -0.333333  0.000000  0.333333      2.000000
  0.000000  0.333333  0.333333      2.000000
  0.333333  0.333333  0.333333      2.000000
 -0.333333  0.333333  0.333333      2.000000
  0.000000 -0.333333  0.333333      2.000000
  0.333333 -0.333333  0.333333      2.000000
 -0.333333 -0.333333  0.333333      2.000000
 
 Following cartesian coordinates:
            Coordinates               Weight
  0.000000  0.000000  0.000000      1.000000
  0.241156  0.000025 -0.000114      2.000000
  0.000024  0.163603  0.000062      2.000000
  0.241180  0.163627 -0.000052      2.000000
 -0.241132  0.163578  0.000176      2.000000
 -0.000076  0.000059  0.162589      2.000000
  0.241080  0.000084  0.162475      2.000000
 -0.241233  0.000035  0.162703      2.000000
 -0.000052  0.163662  0.162651      2.000000
  0.241104  0.163686  0.162536      2.000000
 -0.241209  0.163637  0.162765      2.000000
 -0.000100 -0.163544  0.162527      2.000000
  0.241056 -0.163519  0.162413      2.000000
 -0.241256 -0.163568  0.162641      2.000000
 


--------------------------------------------------------------------------------------------------------




 Dimension of arrays:
   k-points           NKPTS =     14   k-points in BZ     NKDIM =     14   number of bands    NBANDS=    168
   number of dos      NEDOS =    301   number of ions     NIONS =     36
   non local maximal  LDIM  =      6   non local SUM 2l+1 LMDIM =     18
   total plane-waves  NPLWV = 144000
   max r-space proj   IRMAX =   6392   max aug-charges    IRDMAX=  13876
   dimension x,y,z NGX =    40 NGY =   60 NGZ =   60
   dimension x,y,z NGXF=    80 NGYF=  120 NGZF=  120
   support grid    NGXF=    80 NGYF=  120 NGZF=  120
   ions per type =              13   9   7   7
 NGX,Y,Z   is equivalent  to a cutoff of   9.64,  9.81,  9.75 a.u.
 NGXF,Y,Z  is equivalent  to a cutoff of  19.29, 19.63, 19.51 a.u.


 I would recommend the setting:
   dimension x,y,z NGX =    39 NGY =   57 NGZ =   58
 SYSTEM =  automatically generated by mexm         
 POSCAR =  generated by pypospack                  

 Startparameter for this run:
   NWRITE =      2    write-flag & timer
   PREC   = accura    normal or accurate (medium, high low for compatibility)
   ISTART =      0    job   : 0-new  1-cont  2-samecut
   ICHARG =      2    charge: 1-file 2-atom 10-const
   ISPIN  =      1    spin polarized calculation?
   LNONCOLLINEAR =      F non collinear calculations
   LSORBIT =      F    spin-orbit coupling
   INIWAV =      1    electr: 0-lowe 1-rand  2-diag
   LASPH  =      F    aspherical Exc in radial PAW
   METAGGA=      F    non-selfconsistent MetaGGA calc.

 Electronic Relaxation 1
   ENCUT  =  300.0 eV  22.05 Ry    4.70 a.u.   9.74 14.35 14.44*2*pi/ulx,y,z
   ENINI  =  300.0     initial cutoff
   ENAUG  =  461.3 eV  augmentation charge cutoff
   NELM   =     70;   NELMIN=  2; NELMDL= -5     # of ELM steps 
   EDIFF  = 0.1E-04   stopping-criterion for ELM
   LREAL  =      T    real-space projection
   NLSPLINE    = F    spline interpolate recip. space projectors
   LCOMPAT=      F    compatible to vasp.4.4
   GGA_COMPAT  = T    GGA compatible to vasp.4.4-vasp.4.6
   LMAXPAW     = -100 max onsite density
   LMAXMIX     =    2 max onsite mixed and CHGCAR
   VOSKOWN=      0    Vosko Wilk Nusair interpolation
   ROPT   =   -0.00025  -0.00025  -0.00025  -0.00025
 Ionic relaxation
   EDIFFG = -.1E-01   stopping-criterion for IOM
   NSW    =    300    number of steps for IOM
   NBLOCK =      1;   KBLOCK =    300    inner block; outer block 
   IBRION =      2    ionic relax: 0-MD 1-quasi-New 2-CG
   NFREE  =      1    steps in history (QN), initial steepest desc. (CG)
   ISIF   =      3    stress and relaxation
   IWAVPR =     11    prediction:  0-non 1-charg 2-wave 3-comb
   ISYM   =      1    0-nonsym 1-usesym 2-fastsym
   LCORR  =      T    Harris-Foulkes like correction to forces

   POTIM  = 0.1500    time-step for ionic-motion
   TEIN   =    0.0    initial temperature
   TEBEG  =    0.0;   TEEND  =   0.0 temperature during run
   SMASS  =  -3.00    Nose mass-parameter (am)
   estimated Nose-frequenzy (Omega)   =  0.10E-29 period in steps =****** mass=  -0.109E-26a.u.
   SCALEE = 1.0000    scale energy and forces
   NPACO  =    256;   APACO  = 16.0  distance and # of slots for P.C.
   PSTRESS=    0.0 pullay stress

  Mass of Ions in am
   POMASS = 180.95178.49 92.91 91.22
  Ionic Valenz
   ZVAL   =   5.00  4.00 13.00 12.00
  Atomic Wigner-Seitz radii
   RWIGS  =  -1.00 -1.00 -1.00 -1.00
  virtual crystal weights 
   VCA    =   1.00  1.00  1.00  1.00
   NELECT =     276.0000    total number of electrons
   NUPDOWN=      -1.0000    fix difference up-down

 DOS related values:
   EMIN   =  10.00;   EMAX   =-10.00  energy-range for DOS
   EFERMI =   0.00
   ISMEAR =     1;   SIGMA  =   0.15  broadening in eV -4-tet -1-fermi 0-gaus

 Electronic relaxation 2 (details)
   IALGO  =     68    algorithm
   LDIAG  =      T    sub-space diagonalisation (order eigenvalues)
   LSUBROT=      F    optimize rotation matrix (better conditioning)
   TURBO    =      0    0=normal 1=particle mesh
   IRESTART =      0    0=no restart 2=restart with 2 vectors
   NREBOOT  =      0    no. of reboots
   NMIN     =      0    reboot dimension
   EREF     =   0.00    reference energy to select bands
   IMIX   =      4    mixing-type and parameters
     AMIX     =   0.40;   BMIX     =  1.00
     AMIX_MAG =   1.60;   BMIX_MAG =  1.00
     AMIN     =   0.10
     WC   =   100.;   INIMIX=   1;  MIXPRE=   1;  MAXMIX= -45

 Intra band minimization:
   WEIMIN = 0.0010     energy-eigenvalue tresh-hold
   EBREAK =  0.15E-07  absolut break condition
   DEPER  =   0.30     relativ break condition  

   TIME   =   0.40     timestep for ELM

  volume/ion in A,a.u.               =      19.91       134.34
  Fermi-wavevector in a.u.,A,eV,Ry     =   1.191074  2.250804 19.302012  1.418658
  Thomas-Fermi vector in A             =   2.327144
 
 Write flags
   LWAVE  =      F    write WAVECAR
   LCHARG =      F    write CHGCAR
   LVTOT  =      F    write LOCPOT, total local potential
   LVHAR  =      F    write LOCPOT, Hartree potential only
   LELF   =      F    write electronic localiz. function (ELF)
   LORBIT =      0    0 simple, 1 ext, 2 COOP (PROOUT)


 Dipole corrections
   LMONO  =      F    monopole corrections only (constant potential shift)
   LDIPOL =      F    correct potential (dipole corrections)
   IDIPOL =      0    1-x, 2-y, 3-z, 4-all directions 
   EPSILON=  1.0000000 bulk dielectric constant

 Exchange correlation treatment:
   GGA     =    --    GGA type
   LEXCH   =     8    internal setting for exchange type
   VOSKOWN=      0    Vosko Wilk Nusair interpolation
   LHFCALC =     F    Hartree Fock is set to
   LHFONE  =     F    Hartree Fock one center treatment
   AEXX    =    0.0000 exact exchange contribution

 Linear response parameters
   LEPSILON=     F    determine dielectric tensor
   LRPA    =     F    only Hartree local field effects (RPA)
   LNABLA  =     F    use nabla operator in PAW spheres
   LVEL    =     F    velocity operator in full k-point grid
   LINTERFAST=   F  fast interpolation
   KINTER  =     0    interpolate to denser k-point grid
   CSHIFT  =0.1000    complex shift for real part using Kramers Kronig
   OMEGAMAX=  -1.0    maximum frequency
   DEG_THRESHOLD= 0.2000000E-02 threshold for treating states as degnerate
   RTIME   =    0.100 relaxation time in fs

 Orbital magnetization related:
   ORBITALMAG=     F  switch on orbital magnetization
   LCHIMAG   =     F  perturbation theory with respect to B field
   DQ        =  0.001000  dq finite difference perturbation B field



--------------------------------------------------------------------------------------------------------


 conjugate gradient relaxation of ions
 charge density and potential will be updated during run
 non-spin polarized calculation
 RMM-DIIS sequential band-by-band and
  variant of blocked Davidson during initial phase
 perform sub-space diagonalisation
    before iterative eigenvector-optimisation
 modified Broyden-mixing scheme, WC =      100.0
 initial mixing is a Kerker type mixing with AMIX =  0.4000 and BMIX =      1.0000
 Hartree-type preconditioning will be used
 using additional bands           30
 real space projection scheme for non local part
 use partial core corrections
 calculate Harris-corrections to forces 
   (improved forces if not selfconsistent)
 use gradient corrections 
 use of overlap-Matrix (Vanderbilt PP)
 Methfessel and Paxton  Order N= 1 SIGMA  =   0.15


--------------------------------------------------------------------------------------------------------


  energy-cutoff  :      300.00
  volume of cell :      716.67
      direct lattice vectors                 reciprocal lattice vectors
     6.894991731 -0.001007639  0.003237413     0.145032841  0.000014781 -0.000068685
    -0.001037568 10.163462139 -0.003696338     0.000014362  0.098391684  0.000037139
     0.004843649 -0.003860952 10.226848595    -0.000045906  0.000035557  0.097781868

  length of vectors
     6.894992565 10.163462864 10.226850470     0.145032858  0.098391692  0.097781885


 
 k-points in units of 2pi/SCALE and weight: k-points                                
   0.00000000  0.00000000  0.00000000       0.037
   0.24115626  0.00002458 -0.00011421       0.074
   0.00002388  0.16360274  0.00006175       0.074
   0.24118014  0.16362732 -0.00005245       0.074
  -0.24113238  0.16357816  0.00017596       0.074
  -0.00007633  0.00005912  0.16258876       0.074
   0.24107992  0.00008370  0.16247455       0.074
  -0.24123259  0.00003455  0.16270296       0.074
  -0.00005245  0.16366186  0.16265051       0.074
   0.24110380  0.16368644  0.16253630       0.074
  -0.24120871  0.16363729  0.16276472       0.074
  -0.00010021 -0.16354362  0.16252700       0.074
   0.24105604 -0.16351904  0.16241280       0.074
  -0.24125647 -0.16356819  0.16264121       0.074
 
 k-points in reciprocal lattice and weights: k-points                                
   0.00000000  0.00000000  0.00000000       0.037
   0.33333333  0.00000000  0.00000000       0.074
   0.00000000  0.33333333 -0.00000000       0.074
   0.33333333  0.33333333 -0.00000000       0.074
  -0.33333333  0.33333333  0.00000000       0.074
  -0.00000000 -0.00000000  0.33333333       0.074
   0.33333333  0.00000000  0.33333333       0.074
  -0.33333333  0.00000000  0.33333333       0.074
   0.00000000  0.33333333  0.33333333       0.074
   0.33333333  0.33333333  0.33333333       0.074
  -0.33333333  0.33333333  0.33333333       0.074
   0.00000000 -0.33333333  0.33333333       0.074
   0.33333333 -0.33333333  0.33333333       0.074
  -0.33333333 -0.33333333  0.33333333       0.074
 
 position of ions in fractional coordinates (direct lattice) 
   0.76230800  0.84289800  0.50246500
   0.23850700  0.49641400  0.17532300
   0.99984300  0.66525800  0.00745300
   0.22471600  0.83461500  0.17591500
   0.75885300  0.49174800  0.49260700
   0.77354000  0.83384600  0.17011700
   0.01495300  0.99388800  0.00989000
   0.76536100  0.51681800  0.83298800
   0.99399800  0.66658100  0.33321800
   0.25738000  0.15947100  0.49488000
   0.24550700  0.14702100  0.82663100
   0.49690500  0.00796800  0.66329600
   0.48277100  0.34567900  0.34970400
   0.49417500  0.33564600  0.67041100
   0.48941000  0.98800300  0.00968000
   0.74329700  0.16571800  0.49108400
   0.76255900  0.83431300  0.82606400
   0.25393500  0.16985100  0.18107500
   0.00718700  0.33309300  0.66732900
   0.23698000  0.84105100  0.50211900
   0.75943600  0.15044400  0.83714800
   0.50821100  0.65847400  0.65899100
   0.23921000  0.50207600  0.49395800
   0.50419000  0.98399300  0.32942700
   0.99573600  0.99219100  0.33064100
   0.00639500  0.01559100  0.65982700
   0.99025200  0.65603100  0.65863600
   0.01578400  0.34192800  0.34679000
   0.23127000  0.52248100  0.82941000
   0.75126000  0.16552900  0.17090700
   0.24002700  0.83427300  0.82298100
   0.75441800  0.48999200  0.17177000
   0.50178500  0.67010600  0.33503500
   0.01944400  0.33803100  0.98597400
   0.49627500  0.66776900  0.00293900
   0.48412000  0.34122200  0.98330800
 
 position of ions in cartesian coordinates  (Angst):
   5.25766656  8.56405379  5.13798575
   1.64483793  5.04436765  1.79193901
   6.89325507  6.76028824  0.07699859
   1.54940106  8.48167232  1.79669855
   5.23416095  4.99519560  5.03845626
   5.33351072  8.47332599  1.73918289
   0.10211749 10.10128981  0.09751820
   5.28065623  5.24867284  8.51940961
   6.85453036  6.77248263  3.40852411
   1.77686453  1.61860742  5.06130662
   1.69662010  1.49080340  8.45408145
   3.42936037  0.07792081  6.78500700
   3.33003723  3.51145878  3.57665504
   3.41023152  3.40823904  6.85655098
   3.37349967 10.04100056  0.09692832
   5.12723336  1.68162359  5.02403553
   5.26097351  8.47555081  8.44741627
   1.75158056  1.72531921  1.85202088
   0.05244101  3.38279433  6.82346469
   1.63553458  8.54581255  5.13275338
   5.24020370  1.52503447  8.56328836
   3.50661935  6.68931914  6.73861253
   1.65122259  5.10068223  5.05055226
   3.47696055  9.99899566  3.36699515
   6.86616353 10.08181573  3.38097158
   0.04727327  0.15590453  6.74791390
   6.83028888  6.66400545  6.73655159
   0.11015550  3.47381744  3.54535604
   1.59808000  5.30678051  8.48106794
   5.18058755  1.68093086  1.74966030
   1.65810480  8.47568270  8.41419540
   5.20202947  4.97859176  1.75729697
   3.46073094  6.80879779  3.42549977
   0.13849120  3.43173888 10.08222029
   3.42113340  6.78633354  0.02919506
   3.34241215  3.46371256 10.05644806
 


--------------------------------------------------------------------------------------------------------


 k-point  1 :   0.0000 0.0000 0.0000  plane waves:    8509
 k-point  2 :   0.3333 0.0000 0.0000  plane waves:    8451
 k-point  3 :   0.0000 0.3333-0.0000  plane waves:    8451
 k-point  4 :   0.3333 0.3333-0.0000  plane waves:    8449
 k-point  5 :  -0.3333 0.3333 0.0000  plane waves:    8449
 k-point  6 :  -0.0000-0.0000 0.3333  plane waves:    8450
 k-point  7 :   0.3333 0.0000 0.3333  plane waves:    8460
 k-point  8 :  -0.3333 0.0000 0.3333  plane waves:    8458
 k-point  9 :   0.0000 0.3333 0.3333  plane waves:    8450
 k-point 10 :   0.3333 0.3333 0.3333  plane waves:    8456
 k-point 11 :  -0.3333 0.3333 0.3333  plane waves:    8453
 k-point 12 :   0.0000-0.3333 0.3333  plane waves:    8445
 k-point 13 :   0.3333-0.3333 0.3333  plane waves:    8458
 k-point 14 :  -0.3333-0.3333 0.3333  plane waves:    8458

 maximum and minimum number of plane-waves per node :      1714     1671

 maximum number of plane-waves:      8509
 maximum index in each direction: 
   IXMAX=   10   IYMAX=   14   IZMAX=   14
   IXMIN=  -10   IYMIN=  -14   IZMIN=  -14

 WARNING: aliasing errors must be expected set NGX to  42 to avoid them
 NGY is ok and might be reduce to  58
 NGZ is ok and might be reduce to  58
 aliasing errors are usually negligible using standard VASP settings
 and one can safely disregard these warnings

 real space projection operators:
  total allocation   :      27743.20 KBytes
  max/ min on nodes  :       5598.70       5501.39


 parallel 3D FFT for wavefunctions:
    minimum data exchange during FFTs selected (reduces bandwidth)
 parallel 3D FFT for charge:
    minimum data exchange during FFTs selected (reduces bandwidth)


 total amount of memory used by VASP on root node    66271. kBytes
========================================================================

   base      :      30000. kBytes
   nonlr-proj:      10663. kBytes
   fftplans  :       2814. kBytes
   grid      :       5360. kBytes
   one-center:        124. kBytes
   wavefun   :      17310. kBytes
 
     INWAV:  cpu time    0.0000: real time    0.0000
 Broyden mixing: mesh for mixing (old mesh)
   NGX = 19   NGY = 29   NGZ = 29
  (NGX  = 80   NGY  =120   NGZ  =120)
  gives a total of  15979 points

 initial charge density was supplied:
 charge density of overlapping atoms calculated
 number of electron     276.0000000 magnetization 
 keeping initial charge density in first step


--------------------------------------------------------------------------------------------------------


 Maximum index for non-local projection operator         1244
 Maximum index for augmentation-charges          686 (set IRDMAX)


--------------------------------------------------------------------------------------------------------


 First call to EWALD:  gamma=   0.198
 Maximum number of real-space cells 3x 2x 2
 Maximum number of reciprocal cells 2x 3x 3

 FEWALD executed in parallel
    FEWALD:  cpu time    0.0620: real time    0.0643


----------------------------------------- Iteration    1(   1)  ---------------------------------------


    POTLOK:  cpu time    0.0500: real time    0.0630
    SETDIJ:  cpu time    0.0107: real time    0.0108
     EDDAV:  cpu time    0.9479: real time    0.9694
       DOS:  cpu time    0.0018: real time    0.0018
    --------------------------------------------
      LOOP:  cpu time    1.0188: real time    1.3841

 eigenvalue-minimisations  :  5184
 total energy-change (2. order) : 0.1577221E+04  (-0.1013761E+05)
 number of electron     276.0000000 magnetization 
 augmentation part      276.0000000 magnetization 

 Free energy of the ion-electron system (eV)
  ---------------------------------------------------
  alpha Z        PSCENC =      1448.93674852
  Ewald energy   TEWEN  =    -17541.86027143
  -Hartree energ DENC   =     -5803.27877806
  -exchange      EXHF   =         0.00000000
  -V(xc)+E(xc)   XCENC  =      -597.02656756
  PAW double counting   =     19237.57048494   -17479.79446061
  entropy T*S    EENTRO =        -0.00946477
  eigenvalues    EBANDS =        56.24033034
  atomic energy  EATOM  =     22256.44259433
  Solvation  Ediel_sol  =         0.00000000
  ---------------------------------------------------
  free energy    TOTEN  =      1577.22061569 eV

  energy without entropy =     1577.23008046  energy(sigma->0) =     1577.22377062


--------------------------------------------------------------------------------------------------------




----------------------------------------- Iteration    1(   2)  ---------------------------------------


     EDDAV:  cpu time    0.9712: real time    0.9792
       DOS:  cpu time    0.0010: real time    0.0010
    --------------------------------------------
      LOOP:  cpu time    0.9737: real time    1.1546

 eigenvalue-minimisations  :  5376
 total energy-change (2. order) :-0.1708152E+04  (-0.1644185E+04)
 number of electron     276.0000000 magnetization 
 augmentation part      276.0000000 magnetization 

 Free energy of the ion-electron system (eV)
  ---------------------------------------------------
  alpha Z        PSCENC =      1448.93674852
  Ewald energy   TEWEN  =    -17541.86027143
  -Hartree energ DENC   =     -5803.27877806
  -exchange      EXHF   =         0.00000000
  -V(xc)+E(xc)   XCENC  =      -597.02656756
  PAW double counting   =     19237.57048494   -17479.79446061
  entropy T*S    EENTRO =        -0.00227857
  eigenvalues    EBANDS =     -1651.91908650
  atomic energy  EATOM  =     22256.44259433
  Solvation  Ediel_sol  =         0.00000000
  ---------------------------------------------------
  free energy    TOTEN  =      -130.93161495 eV

  energy without entropy =     -130.92933638  energy(sigma->0) =     -130.93085542


--------------------------------------------------------------------------------------------------------




----------------------------------------- Iteration    1(   3)  ---------------------------------------


     EDDAV:  cpu time    1.3731: real time    1.4041
       DOS:  cpu time    0.0009: real time    0.0009
    --------------------------------------------
      LOOP:  cpu time    1.3759: real time    1.4507

 eigenvalue-minimisations  :  8024
 total energy-change (2. order) :-0.2270629E+03  (-0.2150743E+03)
 number of electron     276.0000000 magnetization 
 augmentation part      276.0000000 magnetization 

 Free energy of the ion-electron system (eV)
  ---------------------------------------------------
  alpha Z        PSCENC =      1448.93674852
  Ewald energy   TEWEN  =    -17541.86027143
  -Hartree energ DENC   =     -5803.27877806
  -exchange      EXHF   =         0.00000000
  -V(xc)+E(xc)   XCENC  =      -597.02656756
  PAW double counting   =     19237.57048494   -17479.79446061
  entropy T*S    EENTRO =         0.01116314
  eigenvalues    EBANDS =     -1878.99538934
  atomic energy  EATOM  =     22256.44259433
  Solvation  Ediel_sol  =         0.00000000
  ---------------------------------------------------
  free energy    TOTEN  =      -357.99447607 eV

  energy without entropy =     -358.00563922  energy(sigma->0) =     -357.99819712


--------------------------------------------------------------------------------------------------------




----------------------------------------- Iteration    1(   4)  ---------------------------------------


     EDDAV:  cpu time    1.3816: real time    1.3975
       DOS:  cpu time    0.0010: real time    0.0010
    --------------------------------------------
      LOOP:  cpu time    1.3832: real time    1.4360

 eigenvalue-minimisations  :  7768
 total energy-change (2. order) :-0.2618821E+02  (-0.2489980E+02)
 number of electron     276.0000000 magnetization 
 augmentation part      276.0000000 magnetization 

 Free energy of the ion-electron system (eV)
  ---------------------------------------------------
  alpha Z        PSCENC =      1448.93674852
  Ewald energy   TEWEN  =    -17541.86027143
  -Hartree energ DENC   =     -5803.27877806
  -exchange      EXHF   =         0.00000000
  -V(xc)+E(xc)   XCENC  =      -597.02656756
  PAW double counting   =     19237.57048494   -17479.79446061
  entropy T*S    EENTRO =         0.01928100
  eigenvalues    EBANDS =     -1905.19171395
  atomic energy  EATOM  =     22256.44259433
  Solvation  Ediel_sol  =         0.00000000
  ---------------------------------------------------
  free energy    TOTEN  =      -384.18268283 eV

  energy without entropy =     -384.20196383  energy(sigma->0) =     -384.18910983


--------------------------------------------------------------------------------------------------------




----------------------------------------- Iteration    1(   5)  ---------------------------------------


     EDDAV:  cpu time    1.2869: real time    1.3000
       DOS:  cpu time    0.0010: real time    0.0010
    CHARGE:  cpu time    0.0297: real time    0.0298
    MIXING:  cpu time    0.0015: real time    0.0015
    --------------------------------------------
      LOOP:  cpu time    1.3194: real time    1.3860

 eigenvalue-minimisations  :  7664
 total energy-change (2. order) :-0.2622986E+01  (-0.2569652E+01)
 number of electron     275.9999990 magnetization 
 augmentation part       16.0547228 magnetization 

 Broyden mixing:
  rms(total) = 0.66826E+01    rms(broyden)= 0.66822E+01
  rms(prec ) = 0.69501E+01
  weight for this iteration     100.00

 Free energy of the ion-electron system (eV)
  ---------------------------------------------------
  alpha Z        PSCENC =      1448.93674852
  Ewald energy   TEWEN  =    -17541.86027143
  -Hartree energ DENC   =     -5803.27877806
  -exchange      EXHF   =         0.00000000
  -V(xc)+E(xc)   XCENC  =      -597.02656756
  PAW double counting   =     19237.57048494   -17479.79446061
  entropy T*S    EENTRO =         0.01948062
  eigenvalues    EBANDS =     -1907.81489923
  atomic energy  EATOM  =     22256.44259433
  Solvation  Ediel_sol  =         0.00000000
  ---------------------------------------------------
  free energy    TOTEN  =      -386.80566849 eV

  energy without entropy =     -386.82514911  energy(sigma->0) =     -386.81216203


--------------------------------------------------------------------------------------------------------




----------------------------------------- Iteration    1(   6)  ---------------------------------------


    POTLOK:  cpu time    0.0304: real time    0.0305
    SETDIJ:  cpu time    0.0038: real time    0.0038
    EDDIAG:  cpu time    0.0721: real time    0.0726
  RMM-DIIS:  cpu time    0.6880: real time    0.6947
    ORTHCH:  cpu time    0.0109: real time    0.0109
       DOS:  cpu time    0.0010: real time    0.0010
    CHARGE:  cpu time    0.0285: real time    0.0286
    MIXING:  cpu time    0.0018: real time    0.0097
    --------------------------------------------
      LOOP:  cpu time    0.8370: real time    0.8905

 eigenvalue-minimisations  :  6680
 total energy-change (2. order) : 0.1036602E+02  (-0.2254138E+01)
 number of electron     275.9999990 magnetization 
 augmentation part       16.6910891 magnetization 

 Broyden mixing:
  rms(total) = 0.32582E+01    rms(broyden)= 0.32581E+01
  rms(prec ) = 0.35402E+01
  weight for this iteration     100.00

 eigenvalues of (default mixing * dielectric matrix)
  average eigenvalue GAMMA=   1.8786
  1.8786

 Free energy of the ion-electron system (eV)
  ---------------------------------------------------
  alpha Z        PSCENC =      1448.93674852
  Ewald energy   TEWEN  =    -17541.86027143
  -Hartree energ DENC   =     -5652.94964250
  -exchange      EXHF   =         0.00000000
  -V(xc)+E(xc)   XCENC  =      -598.32987224
  PAW double counting   =     24491.11600765   -22742.53779652
  entropy T*S    EENTRO =         0.02287651
  eigenvalues    EBANDS =     -2037.28029162
  atomic energy  EATOM  =     22256.44259433
  Solvation  Ediel_sol  =         0.00000000
  ---------------------------------------------------
  free energy    TOTEN  =      -376.43964730 eV

  energy without entropy =     -376.46252381  energy(sigma->0) =     -376.44727281


--------------------------------------------------------------------------------------------------------




----------------------------------------- Iteration    1(   7)  ---------------------------------------


    POTLOK:  cpu time    0.0289: real time    0.0290
    SETDIJ:  cpu time    0.0039: real time    0.0039
    EDDIAG:  cpu time    0.0705: real time    0.0708
  RMM-DIIS:  cpu time    0.7305: real time    0.7366
    ORTHCH:  cpu time    0.0108: real time    0.0109
       DOS:  cpu time    0.0009: real time    0.0009
    CHARGE:  cpu time    0.0286: real time    0.0287
    MIXING:  cpu time    0.0012: real time    0.0012
    --------------------------------------------
      LOOP:  cpu time    0.8760: real time    0.9187

 eigenvalue-minimisations  :  7084
 total energy-change (2. order) :-0.1989793E+01  (-0.2721988E+01)
 number of electron     275.9999991 magnetization 
 augmentation part       17.1689536 magnetization 

 Broyden mixing:
  rms(total) = 0.12024E+01    rms(broyden)= 0.12021E+01
  rms(prec ) = 0.35198E+01
  weight for this iteration     100.00

 eigenvalues of (default mixing * dielectric matrix)
  average eigenvalue GAMMA=   1.1733
  1.8734  0.4731

 Free energy of the ion-electron system (eV)
  ---------------------------------------------------
  alpha Z        PSCENC =      1448.93674852
  Ewald energy   TEWEN  =    -17541.86027143
  -Hartree energ DENC   =     -5602.42692020
  -exchange      EXHF   =         0.00000000
  -V(xc)+E(xc)   XCENC  =      -595.42703737
  PAW double counting   =     29966.69011622   -28213.14997789
  entropy T*S    EENTRO =         0.00214779
  eigenvalues    EBANDS =     -2097.63683993
  atomic energy  EATOM  =     22256.44259433
  Solvation  Ediel_sol  =         0.00000000
  ---------------------------------------------------
  free energy    TOTEN  =      -378.42943996 eV

  energy without entropy =     -378.43158775  energy(sigma->0) =     -378.43015589


--------------------------------------------------------------------------------------------------------




----------------------------------------- Iteration    1(   8)  ---------------------------------------


    POTLOK:  cpu time    0.0290: real time    0.0292
    SETDIJ:  cpu time    0.0038: real time    0.0038
    EDDIAG:  cpu time    0.0706: real time    0.0710
  RMM-DIIS:  cpu time    0.7331: real time    0.7394
    ORTHCH:  cpu time    0.0108: real time    0.0108
       DOS:  cpu time    0.0010: real time    0.0010
    CHARGE:  cpu time    0.0286: real time    0.0288
    MIXING:  cpu time    0.0012: real time    0.0012
    --------------------------------------------
      LOOP:  cpu time    0.8787: real time    0.9215

 eigenvalue-minimisations  :  7115
 total energy-change (2. order) : 0.6622498E+01  (-0.6876225E+00)
 number of electron     275.9999990 magnetization 
 augmentation part       17.0666346 magnetization 

 Broyden mixing:
  rms(total) = 0.37835E+00    rms(broyden)= 0.37787E+00
  rms(prec ) = 0.59226E+00
  weight for this iteration     100.00

 eigenvalues of (default mixing * dielectric matrix)
  average eigenvalue GAMMA=   1.1534
  1.8419  1.2250  0.3933

 Free energy of the ion-electron system (eV)
  ---------------------------------------------------
  alpha Z        PSCENC =      1448.93674852
  Ewald energy   TEWEN  =    -17541.86027143
  -Hartree energ DENC   =     -5579.84412401
  -exchange      EXHF   =         0.00000000
  -V(xc)+E(xc)   XCENC  =      -594.95829717
  PAW double counting   =     30962.47560008   -29208.15228686
  entropy T*S    EENTRO =         0.02670026
  eigenvalues    EBANDS =     -2114.87360603
  atomic energy  EATOM  =     22256.44259433
  Solvation  Ediel_sol  =         0.00000000
  ---------------------------------------------------
  free energy    TOTEN  =      -371.80694232 eV

  energy without entropy =     -371.83364258  energy(sigma->0) =     -371.81584241


--------------------------------------------------------------------------------------------------------




----------------------------------------- Iteration    1(   9)  ---------------------------------------


    POTLOK:  cpu time    0.0292: real time    0.0294
    SETDIJ:  cpu time    0.0038: real time    0.0038
    EDDIAG:  cpu time    0.0713: real time    0.0717
  RMM-DIIS:  cpu time    0.8389: real time    0.8463
    ORTHCH:  cpu time    0.0107: real time    0.0108
       DOS:  cpu time    0.0020: real time    0.0020
    CHARGE:  cpu time    0.0285: real time    0.0286
    MIXING:  cpu time    0.0013: real time    0.0013
    --------------------------------------------
      LOOP:  cpu time    0.9863: real time    1.0380

 eigenvalue-minimisations  :  7333
 total energy-change (2. order) : 0.1117973E+00  (-0.2176526E+00)
 number of electron     275.9999990 magnetization 
 augmentation part       16.9381366 magnetization 

 Broyden mixing:
  rms(total) = 0.27361E+00    rms(broyden)= 0.27352E+00
  rms(prec ) = 0.40495E+00
  weight for this iteration     100.00

 eigenvalues of (default mixing * dielectric matrix)
  average eigenvalue GAMMA=   1.1469
  1.8614  1.8614  0.4721  0.3927

 Free energy of the ion-electron system (eV)
  ---------------------------------------------------
  alpha Z        PSCENC =      1448.93674852
  Ewald energy   TEWEN  =    -17541.86027143
  -Hartree energ DENC   =     -5580.34952953
  -exchange      EXHF   =         0.00000000
  -V(xc)+E(xc)   XCENC  =      -594.60548831
  PAW double counting   =     31158.57143895   -29401.05564710
  entropy T*S    EENTRO =         0.02427803
  eigenvalues    EBANDS =     -2117.79926852
  atomic energy  EATOM  =     22256.44259433
  Solvation  Ediel_sol  =         0.00000000
  ---------------------------------------------------
  free energy    TOTEN  =      -371.69514504 eV

  energy without entropy =     -371.71942308  energy(sigma->0) =     -371.70323772


--------------------------------------------------------------------------------------------------------




----------------------------------------- Iteration    1(  10)  ---------------------------------------


    POTLOK:  cpu time    0.0280: real time    0.0283
    SETDIJ:  cpu time    0.0037: real time    0.0037
    EDDIAG:  cpu time    0.0722: real time    0.0730
  RMM-DIIS:  cpu time    0.7519: real time    0.7604
    ORTHCH:  cpu time    0.0120: real time    0.0120
       DOS:  cpu time    0.0009: real time    0.0010
    CHARGE:  cpu time    0.0289: real time    0.0291
    MIXING:  cpu time    0.0014: real time    0.0014
    --------------------------------------------
      LOOP:  cpu time    0.8997: real time    0.9565

 eigenvalue-minimisations  :  7347
 total energy-change (2. order) : 0.5274679E-01  (-0.4205016E-01)
 number of electron     275.9999990 magnetization 
 augmentation part       16.8559205 magnetization 

 Broyden mixing:
  rms(total) = 0.14524E+00    rms(broyden)= 0.14519E+00
  rms(prec ) = 0.26924E+00
  weight for this iteration     100.00

 eigenvalues of (default mixing * dielectric matrix)
  average eigenvalue GAMMA=   1.1158
  2.0092  2.0092  0.7082  0.3771  0.4754

 Free energy of the ion-electron system (eV)
  ---------------------------------------------------
  alpha Z        PSCENC =      1448.93674852
  Ewald energy   TEWEN  =    -17541.86027143
  -Hartree energ DENC   =     -5589.92836812
  -exchange      EXHF   =         0.00000000
  -V(xc)+E(xc)   XCENC  =      -593.86529070
  PAW double counting   =     31356.54892780   -29593.84742730
  entropy T*S    EENTRO =         0.02740186
  eigenvalues    EBANDS =     -2114.09671320
  atomic energy  EATOM  =     22256.44259433
  Solvation  Ediel_sol  =         0.00000000
  ---------------------------------------------------
  free energy    TOTEN  =      -371.64239826 eV

  energy without entropy =     -371.66980011  energy(sigma->0) =     -371.65153221


--------------------------------------------------------------------------------------------------------




----------------------------------------- Iteration    1(  11)  ---------------------------------------


    POTLOK:  cpu time    0.0295: real time    0.0302
    SETDIJ:  cpu time    0.0044: real time    0.0044
    EDDIAG:  cpu time    0.0701: real time    0.0706
  RMM-DIIS:  cpu time    0.7783: real time    0.7862
    ORTHCH:  cpu time    0.0107: real time    0.0108
       DOS:  cpu time    0.0012: real time    0.0012
    CHARGE:  cpu time    0.0283: real time    0.0284
    MIXING:  cpu time    0.0014: real time    0.0014
    --------------------------------------------
      LOOP:  cpu time    0.9246: real time    0.9729

 eigenvalue-minimisations  :  7319
 total energy-change (2. order) : 0.3012300E-01  (-0.1310311E-01)
 number of electron     275.9999990 magnetization 
 augmentation part       16.8339265 magnetization 

 Broyden mixing:
  rms(total) = 0.66962E-01    rms(broyden)= 0.66919E-01
  rms(prec ) = 0.12582E+00
  weight for this iteration     100.00

 eigenvalues of (default mixing * dielectric matrix)
  average eigenvalue GAMMA=   1.0722
  2.1692  1.9296  1.0296  0.5206  0.3688  0.4156

 Free energy of the ion-electron system (eV)
  ---------------------------------------------------
  alpha Z        PSCENC =      1448.93674852
  Ewald energy   TEWEN  =    -17541.86027143
  -Hartree energ DENC   =     -5595.67742817
  -exchange      EXHF   =         0.00000000
  -V(xc)+E(xc)   XCENC  =      -593.36369549
  PAW double counting   =     31533.07161175   -29766.67439187
  entropy T*S    EENTRO =         0.02664049
  eigenvalues    EBANDS =     -2112.51408338
  atomic energy  EATOM  =     22256.44259433
  Solvation  Ediel_sol  =         0.00000000
  ---------------------------------------------------
  free energy    TOTEN  =      -371.61227526 eV

  energy without entropy =     -371.63891574  energy(sigma->0) =     -371.62115542


--------------------------------------------------------------------------------------------------------




----------------------------------------- Iteration    1(  12)  ---------------------------------------


    POTLOK:  cpu time    0.0292: real time    0.0293
    SETDIJ:  cpu time    0.0038: real time    0.0038
    EDDIAG:  cpu time    0.1287: real time    0.1294
  RMM-DIIS:  cpu time    0.8288: real time    0.8672
    ORTHCH:  cpu time    0.0109: real time    0.0113
       DOS:  cpu time    0.0009: real time    0.0009
    CHARGE:  cpu time    0.0343: real time    0.0346
    MIXING:  cpu time    0.0014: real time    0.0015
    --------------------------------------------
      LOOP:  cpu time    1.0386: real time    1.1192

 eigenvalue-minimisations  :  7407
 total energy-change (2. order) : 0.5079420E-02  (-0.4383088E-02)
 number of electron     275.9999990 magnetization 
 augmentation part       16.8313972 magnetization 

 Broyden mixing:
  rms(total) = 0.36313E-01    rms(broyden)= 0.36295E-01
  rms(prec ) = 0.53156E-01
  weight for this iteration     100.00

 eigenvalues of (default mixing * dielectric matrix)
  average eigenvalue GAMMA=   1.0494
  2.2889  1.8756  1.3116  0.5943  0.5281  0.3956  0.3516

 Free energy of the ion-electron system (eV)
  ---------------------------------------------------
  alpha Z        PSCENC =      1448.93674852
  Ewald energy   TEWEN  =    -17541.86027143
  -Hartree energ DENC   =     -5597.52066319
  -exchange      EXHF   =         0.00000000
  -V(xc)+E(xc)   XCENC  =      -593.21399526
  PAW double counting   =     31642.36668489   -29874.53222202
  entropy T*S    EENTRO =         0.02667652
  eigenvalues    EBANDS =     -2112.25274820
  atomic energy  EATOM  =     22256.44259433
  Solvation  Ediel_sol  =         0.00000000
  ---------------------------------------------------
  free energy    TOTEN  =      -371.60719584 eV

  energy without entropy =     -371.63387236  energy(sigma->0) =     -371.61608801


--------------------------------------------------------------------------------------------------------




----------------------------------------- Iteration    1(  13)  ---------------------------------------


    POTLOK:  cpu time    0.0355: real time    0.0404
    SETDIJ:  cpu time    0.0045: real time    0.0051
    EDDIAG:  cpu time    0.0755: real time    0.0858
  RMM-DIIS:  cpu time    0.6955: real time    0.7833
    ORTHCH:  cpu time    0.0109: real time    0.0110
       DOS:  cpu time    0.0018: real time    0.0019
    CHARGE:  cpu time    0.0285: real time    0.0286
    MIXING:  cpu time    0.0015: real time    0.0015
    --------------------------------------------
      LOOP:  cpu time    0.8547: real time    1.0181

 eigenvalue-minimisations  :  7369
 total energy-change (2. order) : 0.6775774E-03  (-0.1278504E-02)
 number of electron     275.9999990 magnetization 
 augmentation part       16.8318088 magnetization 

 Broyden mixing:
  rms(total) = 0.21389E-01    rms(broyden)= 0.21384E-01
  rms(prec ) = 0.30262E-01
  weight for this iteration     100.00

 eigenvalues of (default mixing * dielectric matrix)
  average eigenvalue GAMMA=   1.0735
  2.3768  1.9763  1.3678  1.0652  0.5859  0.4855  0.3731  0.3577

 Free energy of the ion-electron system (eV)
  ---------------------------------------------------
  alpha Z        PSCENC =      1448.93674852
  Ewald energy   TEWEN  =    -17541.86027143
  -Hartree energ DENC   =     -5597.64518547
  -exchange      EXHF   =         0.00000000
  -V(xc)+E(xc)   XCENC  =      -593.18680801
  PAW double counting   =     31717.05346521   -29948.39097414
  entropy T*S    EENTRO =         0.02679150
  eigenvalues    EBANDS =     -2112.98287876
  atomic energy  EATOM  =     22256.44259433
  Solvation  Ediel_sol  =         0.00000000
  ---------------------------------------------------
  free energy    TOTEN  =      -371.60651826 eV

  energy without entropy =     -371.63330976  energy(sigma->0) =     -371.61544876


--------------------------------------------------------------------------------------------------------




----------------------------------------- Iteration    1(  14)  ---------------------------------------


    POTLOK:  cpu time    0.0278: real time    0.0420
    SETDIJ:  cpu time    0.0038: real time    0.0057
    EDDIAG:  cpu time    0.0737: real time    0.1207
  RMM-DIIS:  cpu time    0.8014: real time    0.8210
    ORTHCH:  cpu time    0.0108: real time    0.0109
       DOS:  cpu time    0.0010: real time    0.0010
    CHARGE:  cpu time    0.0407: real time    0.0438
    MIXING:  cpu time    0.0015: real time    0.0016
    --------------------------------------------
      LOOP:  cpu time    0.9615: real time    1.0936

 eigenvalue-minimisations  :  7530
 total energy-change (2. order) :-0.4196505E-04  (-0.5370607E-03)
 number of electron     275.9999990 magnetization 
 augmentation part       16.8313144 magnetization 

 Broyden mixing:
  rms(total) = 0.12907E-01    rms(broyden)= 0.12904E-01
  rms(prec ) = 0.19252E-01
  weight for this iteration     100.00

 eigenvalues of (default mixing * dielectric matrix)
  average eigenvalue GAMMA=   1.0758
  2.5164  2.0679  1.5586  1.1939  0.6373  0.5302  0.4325  0.3960  0.3496

 Free energy of the ion-electron system (eV)
  ---------------------------------------------------
  alpha Z        PSCENC =      1448.93674852
  Ewald energy   TEWEN  =    -17541.86027143
  -Hartree energ DENC   =     -5597.80215461
  -exchange      EXHF   =         0.00000000
  -V(xc)+E(xc)   XCENC  =      -593.18152487
  PAW double counting   =     31743.05956257   -29974.01417147
  entropy T*S    EENTRO =         0.02686317
  eigenvalues    EBANDS =     -2113.21420643
  atomic energy  EATOM  =     22256.44259433
  Solvation  Ediel_sol  =         0.00000000
  ---------------------------------------------------
  free energy    TOTEN  =      -371.60656023 eV

  energy without entropy =     -371.63342339  energy(sigma->0) =     -371.61551461


--------------------------------------------------------------------------------------------------------




----------------------------------------- Iteration    1(  15)  ---------------------------------------


    POTLOK:  cpu time    0.0291: real time    0.0293
    SETDIJ:  cpu time    0.0037: real time    0.0037
    EDDIAG:  cpu time    0.0757: real time    0.0759
  RMM-DIIS:  cpu time    0.7905: real time    0.7969
    ORTHCH:  cpu time    0.0108: real time    0.0108
       DOS:  cpu time    0.0026: real time    0.0026
    CHARGE:  cpu time    0.0287: real time    0.0288
    MIXING:  cpu time    0.0017: real time    0.0017
    --------------------------------------------
      LOOP:  cpu time    0.9434: real time    0.9887

 eigenvalue-minimisations  :  7535
 total energy-change (2. order) :-0.1155162E-03  (-0.2441687E-03)
 number of electron     275.9999990 magnetization 
 augmentation part       16.8302786 magnetization 

 Broyden mixing:
  rms(total) = 0.64915E-02    rms(broyden)= 0.64892E-02
  rms(prec ) = 0.12514E-01
  weight for this iteration     100.00

 eigenvalues of (default mixing * dielectric matrix)
  average eigenvalue GAMMA=   1.0537
  2.5900  2.0924  1.6157  1.2646  0.7217  0.6196  0.4532  0.4532  0.3533  0.3728

 Free energy of the ion-electron system (eV)
  ---------------------------------------------------
  alpha Z        PSCENC =      1448.93674852
  Ewald energy   TEWEN  =    -17541.86027143
  -Hartree energ DENC   =     -5598.20808311
  -exchange      EXHF   =         0.00000000
  -V(xc)+E(xc)   XCENC  =      -593.17329161
  PAW double counting   =     31764.52094990   -29995.14474528
  entropy T*S    EENTRO =         0.02679497
  eigenvalues    EBANDS =     -2113.14737202
  atomic energy  EATOM  =     22256.44259433
  Solvation  Ediel_sol  =         0.00000000
  ---------------------------------------------------
  free energy    TOTEN  =      -371.60667574 eV

  energy without entropy =     -371.63347071  energy(sigma->0) =     -371.61560740


--------------------------------------------------------------------------------------------------------




----------------------------------------- Iteration    1(  16)  ---------------------------------------


    POTLOK:  cpu time    0.0287: real time    0.0287
    SETDIJ:  cpu time    0.0076: real time    0.0076
    EDDIAG:  cpu time    0.0750: real time    0.0754
  RMM-DIIS:  cpu time    0.6922: real time    0.6975
    ORTHCH:  cpu time    0.0107: real time    0.0108
       DOS:  cpu time    0.0013: real time    0.0013
    CHARGE:  cpu time    0.0294: real time    0.0296
    MIXING:  cpu time    0.0017: real time    0.0017
    --------------------------------------------
      LOOP:  cpu time    0.8472: real time    0.8934

 eigenvalue-minimisations  :  6564
 total energy-change (2. order) :-0.3305606E-05  (-0.9589746E-04)
 number of electron     275.9999990 magnetization 
 augmentation part       16.8298347 magnetization 

 Broyden mixing:
  rms(total) = 0.32790E-02    rms(broyden)= 0.32774E-02
  rms(prec ) = 0.61017E-02
  weight for this iteration     100.00

 eigenvalues of (default mixing * dielectric matrix)
  average eigenvalue GAMMA=   1.0379
  2.6585  2.0754  1.6904  1.3150  0.9067  0.6611  0.5030  0.5030  0.3456  0.3790
  0.3790

 Free energy of the ion-electron system (eV)
  ---------------------------------------------------
  alpha Z        PSCENC =      1448.93674852
[...]
     90       5.1093      2.00000
     91       5.1618      2.00000
     92       5.2356      2.00000
     93       5.2897      2.00000
     94       5.3603      2.00000
     95       5.4156      2.00000
     96       5.4436      2.00000
     97       5.5069      2.00000
     98       5.7685      2.00000
     99       5.7941      2.00000
    100       5.8040      2.00000
    101       5.8563      2.00000
    102       5.8914      2.00000
    103       5.9316      2.00000
    104       5.9417      2.00000
    105       5.9787      2.00000
    106       6.0169      2.00000
    107       6.0632      2.00000
    108       6.0844      2.00000
    109       6.1187      2.00000
    110       6.1569      2.00000
    111       6.1730      2.00000
    112       6.2119      2.00000
    113       6.2428      2.00000
    114       6.2701      2.00000
    115       6.3085      2.00000
    116       6.3570      2.00000
    117       6.3809      2.00000
    118       6.4137      2.00000
    119       6.4834      2.00000
    120       6.5231      2.00000
    121       6.5542      2.00000
    122       6.5911      2.00000
    123       6.6656      2.00000
    124       6.6871      2.00000
    125       6.7045      2.00000
    126       6.7764      2.00006
    127       6.8097      2.00020
    128       6.8569      2.00103
    129       6.9001      2.00381
    130       6.9330      2.00904
    131       6.9575      2.01590
    132       7.0104      2.04158
    133       7.0529      2.06590
    134       7.0664      2.07017
    135       7.1156      2.03776
    136       7.1373      1.98163
    137       7.1685      1.83561
    138       7.2015      1.58829
    139       7.2186      1.42611
    140       7.2587      0.98958
    141       7.3104      0.44500
    142       7.3546      0.12139
    143       7.3808      0.01008
    144       7.4306     -0.06912
    145       7.4356     -0.07041
    146       7.4978     -0.04615
    147       7.5018     -0.04369
    148       7.5323     -0.02660
    149       7.5560     -0.01662
    150       7.5823     -0.00911
    151       7.6175     -0.00361
    152       7.6613     -0.00095
    153       7.7042     -0.00021
    154       7.7775     -0.00001
    155       7.8005     -0.00000
    156       7.9034     -0.00000
    157       7.9518     -0.00000
    158       8.0193     -0.00000
    159       8.0421     -0.00000
    160       8.0907     -0.00000
    161       8.3830     -0.00000
    162       8.5006     -0.00000
    163       8.5926     -0.00000
    164       9.2359     -0.00000
    165       9.2657     -0.00000
    166       9.3281     -0.00000
    167       9.3436     -0.00000
    168       9.3898     -0.00000


--------------------------------------------------------------------------------------------------------


 soft charge-density along one line, spin component           1
         0         1         2         3         4         5         6         7         8         9
 total charge-density along one line
 
 pseudopotential strength for first ion, spin component:           1
 -6.435  -0.003   0.001  -0.002   0.000  -7.647  -0.004   0.001
 -0.003  -6.435  -0.001  -0.002   0.000  -0.004  -7.646  -0.001
  0.001  -0.001  -6.441  -0.001  -0.000   0.001  -0.001  -7.653
 -0.002  -0.002  -0.001  -6.434  -0.002  -0.002  -0.003  -0.002
  0.000   0.000  -0.000  -0.002  -6.444   0.000   0.000  -0.000
 -7.647  -0.004   0.001  -0.002   0.000  -9.064  -0.005   0.001
 -0.004  -7.646  -0.001  -0.003   0.000  -0.005  -9.063  -0.002
  0.001  -0.001  -7.653  -0.002  -0.000   0.001  -0.002  -9.072
 -0.002  -0.003  -0.002  -7.645  -0.002  -0.003  -0.003  -0.002
  0.000   0.000  -0.000  -0.002  -7.658   0.000   0.001  -0.000
  0.001   0.002  -0.001   0.003  -0.000   0.001   0.002  -0.001
  0.002   0.003  -0.001   0.005  -0.001   0.002   0.004  -0.001
 -0.004  -0.002   0.004  -0.000   0.005  -0.004  -0.002   0.004
 -0.000  -0.005  -0.001  -0.002   0.001  -0.000  -0.005  -0.001
 -0.005  -0.000   0.003  -0.001  -0.003  -0.006  -0.000   0.003
  0.004   0.004  -0.004   0.000  -0.006   0.005   0.004  -0.005
  0.000   0.005   0.002   0.002  -0.001   0.000   0.006   0.002
  0.006   0.000  -0.003   0.002   0.003   0.007   0.000  -0.004
 total augmentation occupancy for first ion, spin component:           1
  4.810  -0.159  -0.052  -0.080   0.020  -2.451   0.079   0.021   0.033  -0.011  -0.040   0.024   0.053  -0.005   0.052   0.004
 -0.159   4.749  -0.094  -0.099   0.052   0.079  -2.430   0.052   0.058  -0.041  -0.108   0.024   0.000   0.034  -0.001   0.001
 -0.052  -0.094   4.505  -0.048   0.005   0.022   0.051  -2.443   0.025  -0.004   0.042  -0.016  -0.027  -0.022  -0.030  -0.003
 -0.080  -0.099  -0.048   4.788  -0.022   0.033   0.058   0.026  -2.450   0.021  -0.110   0.040   0.004   0.017  -0.068   0.000
  0.020   0.052   0.005  -0.022   4.368  -0.011  -0.041  -0.004   0.020  -2.367   0.015  -0.003  -0.035  -0.024   0.032  -0.004
 -2.451   0.079   0.022   0.033  -0.011   1.274  -0.040  -0.008  -0.015   0.006   0.027  -0.013  -0.028   0.001  -0.028  -0.002
  0.079  -2.430   0.051   0.058  -0.041  -0.040   1.268  -0.028  -0.032   0.028   0.053  -0.012   0.002  -0.017  -0.001  -0.000
  0.021   0.052  -2.443   0.026  -0.004  -0.008  -0.028   1.340  -0.014   0.003  -0.025   0.009   0.013   0.022   0.015   0.001
  0.033   0.058   0.025  -2.450   0.020  -0.015  -0.032  -0.014   1.279  -0.015   0.062  -0.021  -0.002  -0.014   0.033   0.000
 -0.011  -0.041  -0.004   0.021  -2.367   0.006   0.028   0.003  -0.015   1.297  -0.006   0.001   0.017   0.011  -0.019   0.002
 -0.040  -0.108   0.042  -0.110   0.015   0.027   0.053  -0.025   0.062  -0.006   2.196  -0.234   0.026  -0.009   0.024   0.002
  0.024   0.024  -0.016   0.040  -0.003  -0.013  -0.012   0.009  -0.021   0.001  -0.234   0.027   0.002   0.001  -0.001  -0.000
  0.053   0.000  -0.027   0.004  -0.035  -0.028   0.002   0.013  -0.002   0.017   0.026   0.002   0.288   0.004  -0.008   0.008
 -0.005   0.034  -0.022   0.017  -0.024   0.001  -0.017   0.022  -0.014   0.011  -0.009   0.001   0.004   0.303  -0.003   0.000
  0.052  -0.001  -0.030  -0.068   0.032  -0.028  -0.001   0.015   0.033  -0.019   0.024  -0.001  -0.008  -0.003   0.288  -0.000
  0.004   0.001  -0.003   0.000  -0.004  -0.002  -0.000   0.001   0.000   0.002   0.002  -0.000   0.008   0.000  -0.000   0.000
 -0.000   0.004  -0.001   0.002  -0.001   0.000  -0.002   0.001  -0.001   0.000   0.000   0.000   0.000   0.008  -0.000   0.000
  0.005  -0.000  -0.002  -0.001   0.002  -0.002   0.000   0.001   0.001  -0.001   0.001  -0.000  -0.000  -0.000   0.007  -0.000


------------------------ aborting loop because EDIFF is reached ----------------------------------------


    CHARGE:  cpu time    0.0273: real time    0.0275
    FORLOC:  cpu time    0.0132: real time    0.0133
    FORNL :  cpu time    0.2936: real time    0.2983
    STRESS:  cpu time    0.9525: real time    0.9606
    FORCOR:  cpu time    0.0432: real time    0.0434
    FORHAR:  cpu time    0.0181: real time    0.0182
    MIXING:  cpu time    0.0012: real time    0.0012
    OFIELD:  cpu time    0.0000: real time    0.0000

  FORCE on cell =-STRESS in cart. coord.  units (eV):
  Direction    XX          YY          ZZ          XY          YZ          ZX
  --------------------------------------------------------------------------------------
  Alpha Z  1447.63379  1447.63379  1447.63379
  Ewald   -5801.60742 -5777.64023 -5951.99107   -48.41487  -265.80999   440.11494
  Hartree  1914.22977  1918.24220  1772.90981   -40.72650  -254.07057   383.09923
  E(xc)   -1206.19306 -1206.43891 -1206.74895     0.18515     0.34457    -0.17429
  Local    -761.06997  -790.93714  -471.28853    88.36632   520.13255  -821.98888
  n-local  -281.15377  -284.34417  -284.79893    -0.71913    -1.65052     0.41221
  augment   195.28808   195.73861   195.91630     0.13766     0.22753    -0.14559
  Kinetic  4492.86746  4497.75722  4498.39000     1.20882     0.80156    -1.36347
  Fock        0.00000     0.00000     0.00000     0.00000     0.00000     0.00000
  -------------------------------------------------------------------------------------
  Total      -0.00513     0.01136     0.02241     0.03745    -0.02486    -0.04585
  in kB      -0.01145     0.02538     0.05005     0.08365    -0.05552    -0.10242
  external pressure =        0.02 kB  Pullay stress =        0.00 kB


 VOLUME and BASIS-vectors are now :
 -----------------------------------------------------------------------------
  energy-cutoff  :      300.00
  volume of cell :      717.31
      direct lattice vectors                 reciprocal lattice vectors
     6.901618553 -0.001876159  0.002244307     0.144893573  0.000033079 -0.000047878
    -0.002320476 10.166171075  0.001353962     0.000026744  0.098365458 -0.000011732
     0.003377935  0.001218401 10.223498013    -0.000031811 -0.000013034  0.097813891

  length of vectors
     6.901619173 10.166171430 10.223498644     0.144893584  0.098365463  0.097813897


 FORCES acting on ions
    electron-ion (+dipol)            ewald-force                    non-local-force                 convergence-correction
 -----------------------------------------------------------------------------------------------
   0.488E+02 0.415E+01 -.648E+02   -.484E+02 -.356E+01 0.648E+02   -.383E+00 -.602E+00 0.504E-01   0.211E-02 0.145E-01 0.227E-02
   -.881E+01 -.240E+02 0.613E+01   0.827E+01 0.239E+02 -.553E+01   0.546E+00 0.115E+00 -.608E+00   -.274E-02 0.400E-02 0.108E-01
   0.367E+02 -.860E+02 -.229E+02   -.367E+02 0.857E+02 0.232E+02   -.150E-01 0.345E+00 -.324E+00   0.966E-03 0.206E-01 0.107E-03
   0.901E+01 -.129E+02 0.584E+02   -.101E+02 0.133E+02 -.581E+02   0.112E+01 -.408E+00 -.293E+00   -.214E-02 0.143E-01 0.104E-01
   0.656E+02 0.357E+02 -.821E+02   -.651E+02 -.360E+02 0.817E+02   -.492E+00 0.289E+00 0.451E+00   0.337E-02 0.785E-02 -.411E-02
   -.113E+02 -.423E+01 0.843E+02   0.125E+02 0.449E+01 -.842E+02   -.119E+01 -.278E+00 -.888E-01   0.211E-02 0.138E-01 0.103E-01
   0.967E+01 -.750E+00 0.457E+02   -.937E+01 0.660E+00 -.452E+02   -.304E+00 0.957E-01 -.565E+00   0.568E-03 -.550E-02 -.217E-03
   0.468E+02 0.305E+02 0.602E+02   -.461E+02 -.298E+02 -.600E+02   -.705E+00 -.799E+00 -.123E+00   0.359E-02 0.131E-01 -.644E-02
   0.732E+01 -.608E+02 0.154E+02   -.735E+01 0.608E+02 -.154E+02   0.314E-01 0.108E-01 0.117E-01   0.128E-02 0.182E-01 0.107E-01
   -.657E+02 -.147E+02 -.727E+02   0.659E+02 0.143E+02 0.725E+02   -.285E+00 0.495E+00 0.194E+00   -.269E-02 -.237E-01 -.209E-02
   -.514E+02 0.118E+02 0.689E+01   0.512E+02 -.128E+02 -.708E+01   0.189E+00 0.103E+01 0.197E+00   -.340E-02 -.249E-01 -.875E-02
   -.450E+02 -.381E+02 -.355E+02   0.447E+02 0.385E+02 0.353E+02   0.263E+00 -.383E+00 0.190E+00   -.170E-02 -.126E-01 -.859E-02
   -.276E+02 0.728E+02 -.465E+02   0.268E+02 -.720E+02 0.472E+02   0.767E+00 -.769E+00 -.666E+00   -.113E-02 -.110E-01 0.433E-02
   -.497E+02 0.649E+02 0.113E+01   0.495E+02 -.647E+02 -.165E+01   0.225E+00 -.110E+00 0.534E+00   -.249E-02 -.103E-01 -.818E-02
   -.108E+02 -.169E+02 0.511E+02   0.104E+02 0.168E+02 -.508E+02   0.416E+00 0.123E+00 -.353E+00   -.110E-02 -.371E-02 -.766E-03
   0.489E+02 -.300E+02 -.895E+02   -.491E+02 0.296E+02 0.897E+02   0.232E+00 0.361E+00 -.157E+00   0.186E-02 -.186E-01 -.297E-02
   0.437E+02 -.541E+02 -.187E+02   -.433E+02 0.541E+02 0.185E+02   -.430E+00 -.203E-01 0.221E+00   0.276E-02 0.113E-01 -.100E-01
   -.288E+02 0.326E+02 0.428E+02   0.287E+02 -.330E+02 -.422E+02   0.145E+00 0.366E+00 -.635E+00   -.306E-02 -.146E-01 0.791E-02
   0.493E+02 0.720E+02 -.152E+02   -.490E+02 -.718E+02 0.150E+02   -.291E+00 -.156E+00 0.180E+00   0.240E-02 -.101E-01 -.838E-02
   -.376E+02 -.102E+02 -.206E+02   0.371E+02 0.108E+02 0.204E+02   0.518E+00 -.580E+00 0.148E+00   -.148E-02 0.963E-02 0.274E-02
   0.399E+02 0.220E+02 0.312E+02   -.396E+02 -.230E+02 -.316E+02   -.277E+00 0.103E+01 0.442E+00   0.242E-02 -.190E-01 -.604E-02
   -.556E+02 -.324E+02 0.343E+01   0.562E+02 0.318E+02 -.350E+01   -.552E+00 0.576E+00 0.702E-01   -.322E-02 0.199E-01 -.754E-02
   -.146E+03 0.562E+02 -.108E+03   0.145E+03 -.562E+02 0.108E+03   0.688E+00 0.111E-01 0.707E+00   -.828E-02 0.239E-01 -.111E-01
   0.637E+02 -.425E+02 -.614E+02   -.635E+02 0.418E+02 0.610E+02   -.230E+00 0.735E+00 0.365E+00   -.132E-02 -.144E-01 0.403E-01
   -.628E+02 0.391E+02 -.136E+02   0.626E+02 -.401E+02 0.133E+02   0.218E+00 0.100E+01 0.295E+00   0.408E-02 -.279E-03 0.306E-01
   0.103E+03 -.129E+03 -.920E+02   -.102E+03 0.130E+03 0.916E+02   -.512E+00 -.769E+00 0.397E+00   0.523E-02 -.404E-01 -.901E-02
   0.222E+03 -.105E+03 0.293E+02   -.223E+03 0.104E+03 -.294E+02   0.580E+00 0.983E+00 0.419E-01   0.211E-01 0.655E-01 -.222E-01
   0.182E+02 0.149E+03 -.935E+02   -.171E+02 -.148E+03 0.943E+02   -.109E+01 -.109E+01 -.722E+00   -.101E-01 -.312E-01 0.441E-02
   -.801E+02 0.105E+03 0.824E+02   0.789E+02 -.104E+03 -.824E+02   0.115E+01 -.913E+00 0.115E+00   -.820E-02 0.357E-01 -.240E-01
   0.808E+02 0.942E+02 0.144E+03   -.806E+02 -.949E+02 -.143E+03   -.168E+00 0.729E+00 -.157E+00   0.114E-01 -.417E-01 0.297E-01
   -.106E+03 -.204E+03 -.591E+02   0.105E+03 0.204E+03 0.587E+02   0.550E+00 -.431E+00 0.404E+00   -.106E-01 0.323E-01 -.361E-01
   0.754E+01 -.679E+02 0.401E+01   -.681E+01 0.682E+02 -.339E+01   -.737E+00 -.314E+00 -.640E+00   0.673E-02 0.576E-02 0.244E-01
   -.205E+02 -.892E+02 -.680E+02   0.206E+02 0.888E+02 0.683E+02   -.921E-01 0.266E+00 -.346E+00   -.318E-02 0.472E-01 0.249E-01
   0.348E+02 0.202E+03 0.126E+03   -.341E+02 -.202E+03 -.127E+03   -.722E+00 -.729E+00 0.558E+00   0.325E-03 -.351E-01 0.160E-01
   -.884E+02 -.201E+03 0.359E+02   0.884E+02 0.201E+03 -.362E+02   0.763E-02 0.242E+00 0.243E+00   -.372E-02 0.496E-01 -.585E-03
   -.397E+02 0.232E+03 0.135E+03   0.389E+02 -.232E+03 -.136E+03   0.810E+00 -.489E+00 0.573E+00   -.244E-02 -.318E-01 0.132E-01
 -----------------------------------------------------------------------------------------------
   0.225E-01 -.255E-01 -.775E+00   -.107E-12 -.284E-13 0.142E-12   -.237E-01 -.315E-01 0.712E+00   -.679E-03 0.582E-01 0.660E-01
 
 
 POSITION                                       TOTAL-FORCE (eV/Angst)
 -----------------------------------------------------------------------------------
      5.25318      8.56762      5.13512        -0.000108      0.001134     -0.001020
      1.64515      5.04422      1.79063         0.003203      0.000368     -0.001117
     -0.00160      6.77006      0.07876        -0.001907     -0.000016      0.002475
      1.55532      8.48367      1.80363         0.002971     -0.002590     -0.003119
      5.24451      4.99575      5.03859         0.003961     -0.000430      0.003729
      5.33086      8.47286      1.74812        -0.001815     -0.000273     -0.001767
      0.09578     10.09433      0.10436        -0.002169      0.000095      0.001210
      5.28310      5.25599      8.51901         0.003676     -0.000498      0.000461
      6.85884      6.78058      3.40857        -0.002537     -0.002336      0.000616
      1.77440      1.61640      5.06282        -0.002263      0.003704      0.003558
      1.69239      1.49875      8.45055        -0.007290      0.000501      0.000423
      3.43123      0.08243      6.78906        -0.000902      0.005896      0.000905
      3.31145      3.53058      3.59404        -0.000607     -0.001846     -0.004537
      3.41163      3.41367      6.83175        -0.000103     -0.003228     -0.000714
      3.37580     10.04664      0.09872         0.000064      0.001215     -0.001782
      5.13613      1.68401      5.02085        -0.000158      0.000948      0.001125
      5.26298      8.48390      8.44594        -0.002901     -0.000864     -0.000600
      1.75000      1.72129      1.84406        -0.000192     -0.001152     -0.001223
      0.04951      3.38632      6.82829        -0.000149      0.003857     -0.004018
      1.64621      8.55077      5.12926         0.002821      0.002330      0.002836
      5.24709      1.53153      8.55826         0.003346     -0.000184      0.002294
      3.50971      6.69618      6.74365        -0.003634     -0.002515     -0.000681
      1.63459      5.12117      5.06473         0.004810      0.001797      0.007965
      3.47998     10.00957      3.36409         0.001382      0.003834     -0.000981
      6.86861     10.07992      3.38171        -0.002454     -0.000529     -0.002811
      0.04737      0.15711      6.74566         0.001939     -0.002519     -0.007712
      6.83358      6.67576      6.73863         0.000083     -0.001320     -0.002907
      0.13126      3.47095      3.54680        -0.007205     -0.001615      0.000743
      1.59850      5.31223      8.47967         0.000178      0.005689     -0.000370
      5.18464      1.68072      1.74963         0.001217     -0.000362      0.000408
      1.65905      8.48285      8.41455         0.003207     -0.002318     -0.000776
      5.21710      4.96904      1.75745        -0.000633     -0.003108      0.002964
      3.46348      6.78648      3.42804         0.000675     -0.002090     -0.000518
      0.13933      3.44015     10.07390        -0.000131      0.001752      0.003047
      3.42464      6.78418      0.03162         0.001024     -0.001422     -0.001302
      3.34423      3.46945     10.06162         0.002599     -0.001905      0.003197
 -----------------------------------------------------------------------------------
    total drift:                               -0.001891      0.001281      0.003033


--------------------------------------------------------------------------------------------------------



  FREE ENERGIE OF THE ION-ELECTRON SYSTEM (eV)
  ---------------------------------------------------
  free  energy   TOTEN  =      -371.61748950 eV

  energy  without entropy=     -371.64577691  energy(sigma->0) =     -371.62691863
 
 d Force = 0.5993421E-04[ 0.411E-04, 0.788E-04]  d Energy = 0.7478464E-04-0.149E-04
 d Force =-0.1319449E+00[-0.132E+00,-0.132E+00]  d Ewald  = 0.6518215E+00-0.784E+00


--------------------------------------------------------------------------------------------------------


    POTLOK:  cpu time    0.0445: real time    0.0447


--------------------------------------------------------------------------------------------------------


 Conjugate gradient step on ions:
 trial-energy change:   -0.000075  1 .order   -0.000084   -0.000112   -0.000055
  (g-gl).g = 0.311E-04      g.g   = 0.320E-04  gl.gl    = 0.721E-04
 g(Force)  = 0.185E-04   g(Stress)= 0.135E-04 ortho     =-0.199E-06
 gamma     =   0.43092
 trial     =   3.52830
 opt step  =   6.95516  (harmonic =   6.95516) maximal distance =0.00144820
 next E    =  -371.617526   (d E  =  -0.00011)


--------------------------------------------------------------------------------------------------------


  
 reached required accuracy - stopping structural energy minimisation
     LOOP+:  cpu time    4.8165: real time    5.4664
    4ORBIT:  cpu time    0.0000: real time    0.0000

 total amount of memory used by VASP on root node    66271. kBytes
========================================================================

   base      :      30000. kBytes
   nonlr-proj:      10663. kBytes
   fftplans  :       2814. kBytes
   grid      :       5360. kBytes
   one-center:        124. kBytes
   wavefun   :      17310. kBytes
 
  
  
 General timing and accounting informations for this job:
 ========================================================
  
                  Total CPU time used (sec):      142.717
                            User time (sec):      141.915
                          System time (sec):        0.802
                         Elapsed time (sec):      164.679
  
                   Maximum memory used (kb):      256236.
                   Average memory used (kb):           0.
  
                          Minor page faults:       106433
                          Major page faults:           36
                 Voluntary context switches:         6775
