<?xml version="1.0" encoding="ISO-8859-1"?>
<modeling>
 <generator>
  <i name="program" type="string">vasp </i>
  <i name="version" type="string">5.4.1  </i>
  <i name="subversion" type="string">05Feb16 (build Jan 29 2020 16:04:39) complex                          parallel </i>
  <i name="platform" type="string">IFC91_ompi </i>
  <i name="date" type="string">2020 06 15 </i>
  <i name="time" type="string">05:57:27 </i>
 </generator>
 <incar>
  <i type="string" name="SYSTEM"> automatically generated by mexm</i>
  <i type="int" name="ISTART">     0</i>
  <i type="string" name="PREC">accurate               ! avoid wrap aro</i>
  <i type="string" name="ALGO"> Fast                   ! blocked Davids</i>
  <i type="int" name="ISPIN">     1</i>
  <i type="int" name="ICHARG">     2</i>
  <i type="int" name="NELM">    70</i>
  <i type="int" name="IBRION">     2</i>
  <i name="EDIFF">      0.00001000</i>
  <i name="EDIFFG">     -0.01000000</i>
  <i type="int" name="NSW">   300</i>
  <i type="int" name="ISIF">     3</i>
  <i type="int" name="ISYM">     1</i>
  <i name="ENCUT">    300.00000000</i>
  <i name="POTIM">      0.15000000</i>
  <i type="string" name="LREAL"> Auto                  ! unpublished met</i>
  <i type="int" name="ISMEAR">     1</i>
  <i name="SIGMA">      0.15000000</i>
  <i type="logical" name="LWAVE"> F  </i>
  <i type="logical" name="LCHARG"> F  </i>
  <i type="logical" name="LVTOT"> F  </i>
  <v type="int" name="KPOINT_BSE">    -1     0     0     0</v>
  <i type="int" name="NELM">    70</i>
 </incar>
 <kpoints>
  <generation param="Gamma">
   <v type="int" name="divisions">       3        3        3 </v>
   <v name="usershift">      0.00000000       0.00000000       0.00000000 </v>
   <v name="genvec1">      0.33333333      -0.00000000      -0.00000000 </v>
   <v name="genvec2">      0.00000000       0.33333333      -0.00000000 </v>
   <v name="genvec3">     -0.00000000       0.00000000       0.33333333 </v>
   <v name="shift">      0.00000000       0.00000000       0.00000000 </v>
  </generation>
  <varray name="kpointlist" >
   <v>       0.00000000       0.00000000       0.00000000 </v>
   <v>       0.33333333       0.00000000       0.00000000 </v>
   <v>       0.00000000       0.33333333      -0.00000000 </v>
   <v>       0.33333333       0.33333333      -0.00000000 </v>
   <v>      -0.33333333       0.33333333      -0.00000000 </v>
   <v>       0.00000000       0.00000000       0.33333333 </v>
   <v>       0.33333333       0.00000000       0.33333333 </v>
   <v>      -0.33333333      -0.00000000       0.33333333 </v>
   <v>      -0.00000000       0.33333333       0.33333333 </v>
   <v>       0.33333333       0.33333333       0.33333333 </v>
   <v>      -0.33333333       0.33333333       0.33333333 </v>
   <v>      -0.00000000      -0.33333333       0.33333333 </v>
   <v>       0.33333333      -0.33333333       0.33333333 </v>
   <v>      -0.33333333      -0.33333333       0.33333333 </v>
  </varray>
  <varray name="weights" >
   <v>       0.03703704 </v>
   <v>       0.07407407 </v>
   <v>       0.07407407 </v>
   <v>       0.07407407 </v>
   <v>       0.07407407 </v>
   <v>       0.07407407 </v>
   <v>       0.07407407 </v>
   <v>       0.07407407 </v>
   <v>       0.07407407 </v>
   <v>       0.07407407 </v>
   <v>       0.07407407 </v>
   <v>       0.07407407 </v>
   <v>       0.07407407 </v>
   <v>       0.07407407 </v>
  </varray>
 </kpoints>
 <parameters>
  <separator name="general" >
   <i type="string" name="SYSTEM">automatically generated by mexm</i>
   <i type="logical" name="LCOMPAT"> F  </i>
  </separator>
  <separator name="electronic" >
   <i type="string" name="PREC">accura</i>
   <i name="ENMAX">    300.00000000</i>
   <i name="ENAUG">    461.25700000</i>
   <i name="EDIFF">      0.00001000</i>
   <i type="int" name="IALGO">    68</i>
   <i type="int" name="IWAVPR">    11</i>
   <i type="int" name="NBANDS">   192</i>
   <i name="NELECT">    321.00000000</i>
   <i type="int" name="TURBO">     0</i>
   <i type="int" name="IRESTART">     0</i>
   <i type="int" name="NREBOOT">     0</i>
   <i type="int" name="NMIN">     0</i>
   <i name="EREF">      0.00000000</i>
   <separator name="electronic smearing" >
    <i type="int" name="ISMEAR">     1</i>
    <i name="SIGMA">      0.15000000</i>
    <i name="KSPACING">      0.50000000</i>
    <i type="logical" name="KGAMMA"> T  </i>
   </separator>
   <separator name="electronic projectors" >
    <i type="logical" name="LREAL"> T  </i>
    <v name="ROPT">     -0.00025000     -0.00025000     -0.00025000     -0.00025000</v>
    <i type="int" name="LMAXPAW">  -100</i>
    <i type="int" name="LMAXMIX">     2</i>
    <i type="logical" name="NLSPLINE"> F  </i>
   </separator>
   <separator name="electronic startup" >
    <i type="int" name="ISTART">     0</i>
    <i type="int" name="ICHARG">     2</i>
    <i type="int" name="INIWAV">     1</i>
   </separator>
   <separator name="electronic spin" >
    <i type="int" name="ISPIN">     1</i>
    <i type="logical" name="LNONCOLLINEAR"> F  </i>
    <v name="MAGMOM">      1.00000000      1.00000000      1.00000000      1.00000000      1.00000000      1.00000000      1.00000000      1.00000000      1.00000000      1.00000000      1.00000000      1.00000000      1.00000000      1.00000000      1.00000000      1.00000000      1.00000000      1.00000000      1.00000000      1.00000000
      1.00000000      1.00000000      1.00000000      1.00000000      1.00000000      1.00000000      1.00000000      1.00000000      1.00000000      1.00000000      1.00000000      1.00000000      1.00000000      1.00000000      1.00000000      1.00000000</v>
    <i name="NUPDOWN">     -1.00000000</i>
    <i type="logical" name="LSORBIT"> F  </i>
    <v name="SAXIS">      0.00000000      0.00000000      1.00000000</v>
    <i type="logical" name="LSPIRAL"> F  </i>
    <v name="QSPIRAL">      0.00000000      0.00000000      0.00000000</v>
    <i type="logical" name="LZEROZ"> F  </i>
   </separator>
   <separator name="electronic exchange-correlation" >
    <i type="logical" name="LASPH"> F  </i>
    <i type="logical" name="LMETAGGA"> F  </i>
   </separator>
   <separator name="electronic convergence" >
    <i type="int" name="NELM">    70</i>
    <i type="int" name="NELMDL">    -5</i>
    <i type="int" name="NELMIN">     2</i>
    <i name="ENINI">    300.00000000</i>
    <separator name="electronic convergence detail" >
     <i type="logical" name="LDIAG"> T  </i>
     <i type="logical" name="LSUBROT"> F  </i>
     <i name="WEIMIN">      0.00100000</i>
     <i name="EBREAK">      0.00000001</i>
     <i name="DEPER">      0.30000000</i>
     <i type="int" name="NRMM">     4</i>
     <i name="TIME">      0.40000000</i>
    </separator>
   </separator>
   <separator name="electronic mixer" >
    <i name="AMIX">      0.40000000</i>
    <i name="BMIX">      1.00000000</i>
    <i name="AMIN">      0.10000000</i>
    <i name="AMIX_MAG">      1.60000000</i>
    <i name="BMIX_MAG">      1.00000000</i>
    <separator name="electronic mixer details" >
     <i type="int" name="IMIX">     4</i>
     <i type="logical" name="MIXFIRST"> F  </i>
     <i type="int" name="MAXMIX">   -45</i>
     <i name="WC">    100.00000000</i>
     <i type="int" name="INIMIX">     1</i>
     <i type="int" name="MIXPRE">     1</i>
     <i type="int" name="MREMOVE">     5</i>
    </separator>
   </separator>
   <separator name="electronic dipolcorrection" >
    <i type="logical" name="LDIPOL"> F  </i>
    <i type="logical" name="LMONO"> F  </i>
    <i type="int" name="IDIPOL">     0</i>
    <i name="EPSILON">      1.00000000</i>
    <v name="DIPOL">   -100.00000000   -100.00000000   -100.00000000</v>
    <i name="EFIELD">      0.00000000</i>
   </separator>
  </separator>
  <separator name="grids" >
   <i type="int" name="NGX">    40</i>
   <i type="int" name="NGY">    60</i>
   <i type="int" name="NGZ">    60</i>
   <i type="int" name="NGXF">    80</i>
   <i type="int" name="NGYF">   120</i>
   <i type="int" name="NGZF">   120</i>
   <i type="logical" name="ADDGRID"> F  </i>
  </separator>
  <separator name="ionic" >
   <i type="int" name="NSW">   300</i>
   <i type="int" name="IBRION">     2</i>
   <i type="int" name="ISIF">     3</i>
   <i name="PSTRESS">      0.00000000</i>
   <i name="EDIFFG">     -0.01000000</i>
   <i type="int" name="NFREE">     1</i>
   <i name="POTIM">      0.15000000</i>
   <i name="SMASS">     -3.00000000</i>
   <i name="SCALEE">      1.00000000</i>
  </separator>
  <separator name="ionic md" >
   <i name="TEBEG">      0.00010000</i>
   <i name="TEEND">      0.00010000</i>
   <i type="int" name="NBLOCK">     1</i>
   <i type="int" name="KBLOCK">   300</i>
   <i type="int" name="NPACO">   256</i>
   <i name="APACO">     16.00000000</i>
  </separator>
  <separator name="symmetry" >
   <i type="int" name="ISYM">     1</i>
   <i name="SYMPREC">      0.00001000</i>
  </separator>
  <separator name="dos" >
   <i type="logical" name="LORBIT"> F  </i>
   <v name="RWIGS">     -1.00000000     -1.00000000     -1.00000000     -1.00000000</v>
   <i type="int" name="NEDOS">   301</i>
   <i name="EMIN">     10.00000000</i>
   <i name="EMAX">    -10.00000000</i>
   <i name="EFERMI">      0.00000000</i>
  </separator>
  <separator name="writing" >
   <i type="int" name="NWRITE">     2</i>
   <i type="logical" name="LWAVE"> F  </i>
   <i type="logical" name="LCHARG"> F  </i>
   <i type="logical" name="LPARD"> F  </i>
   <i type="logical" name="LVTOT"> F  </i>
   <i type="logical" name="LVHAR"> F  </i>
   <i type="logical" name="LELF"> F  </i>
   <i type="logical" name="LOPTICS"> F  </i>
   <v name="STM">      0.00000000      0.00000000      0.00000000      0.00000000      0.00000000      0.00000000      0.00000000</v>
  </separator>
  <separator name="performance" >
   <i type="int" name="NPAR">     4</i>
   <i type="int" name="NSIM">     4</i>
   <i type="int" name="NBLK">    -1</i>
   <i type="logical" name="LPLANE"> T  </i>
   <i type="logical" name="LSCALAPACK"> T  </i>
   <i type="logical" name="LSCAAWARE"> F  </i>
   <i type="logical" name="LSCALU"> F  </i>
   <i type="logical" name="LASYNC"> F  </i>
   <i type="logical" name="LORBITALREAL"> F  </i>
  </separator>
  <separator name="miscellaneous" >
   <i type="int" name="IDIOT">     3</i>
   <i type="logical" name="LMUSIC"> F  </i>
   <v name="POMASS">     92.91000000     91.22400000    180.94800000    178.49000000</v>
   <v name="DARWINR">      0.00000000      0.00000000      0.00000000      0.00000000</v>
   <v name="DARWINV">      1.00000000      1.00000000      1.00000000      1.00000000</v>
   <i type="logical" name="LCORR"> T  </i>
  </separator>
  <i type="logical" name="GGA_COMPAT"> T  </i>
  <i type="logical" name="LBERRY"> F  </i>
  <i type="int" name="ICORELEVEL">     0</i>
  <i type="logical" name="LDAU"> F  </i>
  <i type="int" name="I_CONSTRAINED_M">     0</i>
  <separator name="electronic exchange-correlation" >
   <i type="string" name="GGA">--</i>
   <i type="int" name="VOSKOWN">     0</i>
   <i type="logical" name="LHFCALC"> F  </i>
   <i type="string" name="PRECFOCK"></i>
   <i type="logical" name="LSYMGRAD"> F  </i>
   <i type="logical" name="LHFONE"> F  </i>
   <i type="logical" name="LRHFCALC"> F  </i>
   <i type="logical" name="LTHOMAS"> F  </i>
   <i type="logical" name="LMODELHF"> F  </i>
   <i name="ENCUT4O">     -1.00000000</i>
   <i type="int" name="EXXOEP">     0</i>
   <i type="int" name="FOURORBIT">     0</i>
   <i name="AEXX">      0.00000000</i>
   <i name="HFALPHA">      0.00000000</i>
   <i name="MCALPHA">      0.00000000</i>
   <i name="ALDAX">      1.00000000</i>
   <i name="AGGAX">      1.00000000</i>
   <i name="ALDAC">      1.00000000</i>
   <i name="AGGAC">      1.00000000</i>
   <i type="int" name="NKREDX">     1</i>
   <i type="int" name="NKREDY">     1</i>
   <i type="int" name="NKREDZ">     1</i>
   <i type="logical" name="SHIFTRED"> F  </i>
   <i type="logical" name="ODDONLY"> F  </i>
   <i type="logical" name="EVENONLY"> F  </i>
   <i type="int" name="LMAXFOCK">     0</i>
   <i type="int" name="NMAXFOCKAE">     0</i>
   <i type="logical" name="LFOCKAEDFT"> F  </i>
   <i name="HFSCREEN">      0.00000000</i>
   <i name="HFSCREENC">      0.00000000</i>
   <i type="int" name="NBANDSGWLOW">     0</i>
  </separator>
  <separator name="vdW DFT" >
   <i type="logical" name="LUSE_VDW"> F  </i>
   <i name="Zab_VDW">     -0.84910000</i>
   <i name="PARAM1">      0.12340000</i>
   <i name="PARAM2">      1.00000000</i>
   <i name="PARAM3">      0.00000000</i>
  </separator>
  <separator name="model GW" >
   <i type="int" name="MODEL_GW">     0</i>
   <i name="MODEL_EPS0">     12.18954346</i>
   <i name="MODEL_ALPHA">      1.00000000</i>
  </separator>
  <separator name="linear response parameters" >
   <i type="logical" name="LEPSILON"> F  </i>
   <i type="logical" name="LRPA"> F  </i>
   <i type="logical" name="LNABLA"> F  </i>
   <i type="logical" name="LVEL"> F  </i>
   <i type="int" name="KINTER">     0</i>
   <i name="CSHIFT">      0.10000000</i>
   <i name="OMEGAMAX">     -1.00000000</i>
   <i name="DEG_THRESHOLD">      0.00200000</i>
  </separator>
  <separator name="orbital magnetization" >
   <i type="logical" name="NUCIND"> F  </i>
   <v name="MAGPOS">      0.00000000      0.00000000      0.00000000</v>
   <i type="logical" name="LNICSALL"> T  </i>
   <i type="logical" name="ORBITALMAG"> F  </i>
   <i type="logical" name="LMAGBLOCH"> F  </i>
   <i type="logical" name="LCHIMAG"> F  </i>
   <i type="logical" name="LGAUGE"> T  </i>
   <i type="int" name="MAGATOM">     0</i>
   <v name="MAGDIPOL">      0.00000000      0.00000000      0.00000000</v>
   <v name="AVECCONST">      0.00000000      0.00000000      0.00000000</v>
  </separator>
  <separator name="response functions" >
   <i type="logical" name="LADDER"> F  </i>
   <i type="logical" name="LFXC"> F  </i>
   <i type="logical" name="LHARTREE"> T  </i>
   <i type="int" name="IBSE">     0</i>
   <v type="int" name="KPOINT">    -1     0     0     0</v>
   <i type="logical" name="LTCTE"> F  </i>
   <i type="logical" name="LTETE"> F  </i>
   <i type="logical" name="LTRIPLET"> F  </i>
   <i type="logical" name="LFXCEPS"> F  </i>
   <i type="logical" name="LFXHEG"> F  </i>
   <i type="int" name="NATURALO">     0</i>
   <i type="logical" name="L2ORDER"> F  </i>
   <i type="logical" name="LUSEW"> F  </i>
   <i name="ENCUTGW">     -2.00000000</i>
   <i name="ENCUTGWSOFT">     -2.00000000</i>
   <i name="ENCUTLF">     -1.00000000</i>
   <i type="int" name="LMAXMP2">    -1</i>
   <i name="SCISSOR">      0.00000000</i>
   <i type="int" name="NOMEGA">     0</i>
   <i type="int" name="NOMEGAR">     0</i>
   <i type="int" name="NBANDSGW">    -1</i>
   <i type="int" name="NBANDSO">    -1</i>
   <i type="int" name="NBANDSV">    -1</i>
   <i type="int" name="NELM">    70</i>
   <i type="int" name="NELMHF">     1</i>
   <i type="int" name="DIM">     3</i>
   <i type="int" name="ANTIRES">     0</i>
   <i name="OMEGAMAX">    -30.00000000</i>
   <i name="OMEGAMIN">    -30.00000000</i>
   <i name="OMEGATL">   -200.00000000</i>
   <i type="int" name="OMEGAGRID">     0</i>
   <i name="CSHIFT">     -0.10000000</i>
   <i type="logical" name="SELFENERGY"> F  </i>
   <i type="logical" name="LSPECTRAL"> F  </i>
   <i type="logical" name="LSPECTRALGW"> F  </i>
   <i type="logical" name="LSINGLES"> F  </i>
   <i type="logical" name="LFERMIGW"> F  </i>
   <i type="logical" name="ODDONLYGW"> F  </i>
   <i type="logical" name="EVENONLYGW"> F  </i>
   <i type="int" name="NKREDLFX">     1</i>
   <i type="int" name="NKREDLFY">     1</i>
   <i type="int" name="NKREDLFZ">     1</i>
   <i type="int" name="MAXMEM">  1800</i>
   <i type="int" name="TELESCOPE">     0</i>
   <i type="int" name="TAUPAR">     1</i>
   <i type="int" name="OMEGAPAR">    -1</i>
   <i name="LAMBDA">      1.00000000</i>
  </separator>
  <separator name="External order field" >
   <i name="OFIELD_KAPPA">      0.00000000</i>
   <v name="OFIELD_K">      0.00000000      0.00000000      0.00000000</v>
   <i name="OFIELD_Q6_NEAR">      0.00000000</i>
   <i name="OFIELD_Q6_FAR">      0.00000000</i>
   <i name="OFIELD_A">      0.00000000</i>
  </separator>
 </parameters>
 <atominfo>
  <atoms>      36 </atoms>
  <types>       4 </types>
  <array name="atoms" >
   <dimension dim="1">ion</dimension>
   <field type="string">element</field>
   <field type="int">atomtype</field>
   <set>
    <rc><c>Nb</c><c>   1</c></rc>
    <rc><c>Nb</c><c>   1</c></rc>
    <rc><c>Nb</c><c>   1</c></rc>
    <rc><c>Nb</c><c>   1</c></rc>
    <rc><c>Nb</c><c>   1</c></rc>
    <rc><c>Nb</c><c>   1</c></rc>
    <rc><c>Nb</c><c>   1</c></rc>
    <rc><c>Nb</c><c>   1</c></rc>
    <rc><c>Nb</c><c>   1</c></rc>
    <rc><c>Nb</c><c>   1</c></rc>
    <rc><c>Zr</c><c>   2</c></rc>
    <rc><c>Zr</c><c>   2</c></rc>
    <rc><c>Zr</c><c>   2</c></rc>
    <rc><c>Zr</c><c>   2</c></rc>
    <rc><c>Zr</c><c>   2</c></rc>
    <rc><c>Zr</c><c>   2</c></rc>
    <rc><c>Zr</c><c>   2</c></rc>
    <rc><c>Zr</c><c>   2</c></rc>
    <rc><c>Zr</c><c>   2</c></rc>
    <rc><c>Zr</c><c>   2</c></rc>
    <rc><c>Ta</c><c>   3</c></rc>
    <rc><c>Ta</c><c>   3</c></rc>
    <rc><c>Ta</c><c>   3</c></rc>
    <rc><c>Ta</c><c>   3</c></rc>
    <rc><c>Ta</c><c>   3</c></rc>
    <rc><c>Ta</c><c>   3</c></rc>
    <rc><c>Ta</c><c>   3</c></rc>
    <rc><c>Hf</c><c>   4</c></rc>
    <rc><c>Hf</c><c>   4</c></rc>
    <rc><c>Hf</c><c>   4</c></rc>
    <rc><c>Hf</c><c>   4</c></rc>
    <rc><c>Hf</c><c>   4</c></rc>
    <rc><c>Hf</c><c>   4</c></rc>
    <rc><c>Hf</c><c>   4</c></rc>
    <rc><c>Hf</c><c>   4</c></rc>
    <rc><c>Hf</c><c>   4</c></rc>
   </set>
  </array>
  <array name="atomtypes" >
   <dimension dim="1">type</dimension>
   <field type="int">atomspertype</field>
   <field type="string">element</field>
   <field>mass</field>
   <field>valence</field>
   <field type="string">pseudopotential</field>
   <set>
    <rc><c>  10</c><c>Nb</c><c>     92.91000000</c><c>     13.00000000</c><c>  PAW_PBE Nb_sv 25May2007               </c></rc>
    <rc><c>  10</c><c>Zr</c><c>     91.22400000</c><c>     12.00000000</c><c>  PAW_PBE Zr_sv 04Jan2005               </c></rc>
    <rc><c>   7</c><c>Ta</c><c>    180.94800000</c><c>      5.00000000</c><c>  PAW_PBE Ta 17Jan2003                  </c></rc>
    <rc><c>   9</c><c>Hf</c><c>    178.49000000</c><c>      4.00000000</c><c>  PAW_PBE Hf 20Jan2003                  </c></rc>
   </set>
  </array>
 </atominfo>
 <structure name="initialpos" >
  <crystal>
   <varray name="basis" >
    <v>       6.97959347       0.01832206      -0.00914357 </v>
    <v>       0.02685706      10.23144283       0.02027748 </v>
    <v>      -0.01347841       0.01960406      10.24181851 </v>
   </varray>
   <i name="volume">    731.37260751 </i>
   <varray name="rec_basis" >
    <v>       0.14327606      -0.00037647       0.00018927 </v>
    <v>      -0.00025682       0.09773897      -0.00018742 </v>
    <v>       0.00012842      -0.00019385       0.09763945 </v>
   </varray>
  </crystal>
  <varray name="positions" >
   <v>       0.00559600       0.99394600       0.33244300 </v>
   <v>       0.49135000       0.98973500       0.34628200 </v>
   <v>       0.74359500       0.83033400       0.18684400 </v>
   <v>       0.23456300       0.16946700       0.49007000 </v>
   <v>       0.50500600       0.33928500       0.34902200 </v>
   <v>       0.26554800       0.49931900       0.84793700 </v>
   <v>       0.98501600       0.33807400       0.32347900 </v>
   <v>       0.01827000       0.33929200       0.66916800 </v>
   <v>       0.24214200       0.83431800       0.48423800 </v>
   <v>       0.48070500       0.33547500       0.98900000 </v>
   <v>       0.26091500       0.16826000       0.17588700 </v>
   <v>       0.98393000       0.00505100       0.01116600 </v>
   <v>       0.76165000       0.16365800       0.50164500 </v>
   <v>       0.76441800       0.17115900       0.82033500 </v>
   <v>       0.51849000       0.99714300       0.99591300 </v>
   <v>       0.72492100       0.17771600       0.17776500 </v>
   <v>       0.73823800       0.49144100       0.82908300 </v>
   <v>       0.48826500       0.66264200       0.65140100 </v>
   <v>       0.48123700       0.33171700       0.65942900 </v>
   <v>       0.76512500       0.83752500       0.81296800 </v>
   <v>       0.23525400       0.17135900       0.83335900 </v>
   <v>       0.72984100       0.49684300       0.17644700 </v>
   <v>       0.53152100       0.66787900       0.01220100 </v>
   <v>       0.04290300       0.00493200       0.66124200 </v>
   <v>       0.51395500       0.66953500       0.33901300 </v>
   <v>       0.76538500       0.49850900       0.48854100 </v>
   <v>       0.98477700       0.66953400       0.32618800 </v>
   <v>       0.26336400       0.50483300       0.17037600 </v>
   <v>       0.00386400       0.33773600       0.00376300 </v>
   <v>       0.97126400       0.66075200       0.00795500 </v>
   <v>       0.25747900       0.82658500       0.16914900 </v>
   <v>       0.46794200       0.00289900       0.66114700 </v>
   <v>       0.76457100       0.83866000       0.50310600 </v>
   <v>       0.23149500       0.49635900       0.47437300 </v>
   <v>       0.02555500       0.65270600       0.66778500 </v>
   <v>       0.25185300       0.82532400       0.85127500 </v>
  </varray>
 </structure>
 <calculation>
  <scstep>
   <time name="dav">    1.14    1.17</time>
   <time name="total">    1.20    1.59</time>
   <energy>
    <i name="alphaZ">   1655.97343475 </i>
    <i name="ewald"> -22319.53605448 </i>
    <i name="hartreedc">  -8342.29516400 </i>
    <i name="XCdc">    123.25864769 </i>
    <i name="pawpsdc">  24815.49741299 </i>
    <i name="pawaedc"> -23389.33410035 </i>
    <i name="eentropy">      0.00892855 </i>
    <i name="bandstr">   -285.09077699 </i>
    <i name="atom">  29990.50946633 </i>
    <i name="e_fr_energy">   2248.99179448 </i>
    <i name="e_wo_entrp">   2248.98286593 </i>
    <i name="e_0_energy">   2248.98881830 </i>
   </energy>
  </scstep>
  <scstep>
   <time name="dav">    1.12    1.22</time>
   <time name="total">    1.12    1.41</time>
   <energy>
    <i name="e_fr_energy">    -46.05887688 </i>
    <i name="e_wo_entrp">    -46.05409974 </i>
    <i name="e_0_energy">    -46.05728450 </i>
   </energy>
  </scstep>
  <scstep>
   <time name="dav">    1.55    1.56</time>
   <time name="total">    1.55    1.59</time>
   <energy>
    <i name="e_fr_energy">   -332.53583373 </i>
    <i name="e_wo_entrp">   -332.53316287 </i>
    <i name="e_0_energy">   -332.53494344 </i>
   </energy>
  </scstep>
  <scstep>
   <time name="dav">    1.60    1.62</time>
   <time name="total">    1.62    1.67</time>
   <energy>
    <i name="e_fr_energy">   -367.28865966 </i>
    <i name="e_wo_entrp">   -367.28764520 </i>
    <i name="e_0_energy">   -367.28832151 </i>
   </energy>
  </scstep>
  <scstep>
   <time name="dav">    1.45    1.46</time>
   <time name="total">    1.49    1.54</time>
   <energy>
    <i name="e_fr_energy">   -370.82807818 </i>
    <i name="e_wo_entrp">   -370.82689294 </i>
    <i name="e_0_energy">   -370.82768310 </i>
   </energy>
  </scstep>
  <scstep>
   <time name="diag">    0.08    0.08</time>
   <time name="diis">    0.70    0.85</time>
   <time name="orth">    0.01    0.01</time>
   <time name="total">    0.88    1.08</time>
   <energy>
    <i name="e_fr_energy">   -360.49092293 </i>
    <i name="e_wo_entrp">   -360.50278331 </i>
    <i name="e_0_energy">   -360.49487639 </i>
   </energy>
  </scstep>
  <scstep>
   <time name="diag">    0.09    0.09</time>
   <time name="diis">    0.83    0.83</time>
   <time name="orth">    0.01    0.01</time>
   <time name="total">    0.99    1.04</time>
   <energy>
    <i name="e_fr_energy">   -361.56239613 </i>
    <i name="e_wo_entrp">   -361.56496074 </i>
    <i name="e_0_energy">   -361.56325100 </i>
   </energy>
  </scstep>
  <scstep>
   <time name="diag">    0.08    0.09</time>
   <time name="diis">    0.81    0.82</time>
   <time name="orth">    0.02    0.02</time>
   <time name="total">    0.98    1.03</time>
   <energy>
    <i name="e_fr_energy">   -356.61416962 </i>
    <i name="e_wo_entrp">   -356.62767914 </i>
    <i name="e_0_energy">   -356.61867279 </i>
   </energy>
  </scstep>
  <scstep>
   <time name="diag">    0.10    0.10</time>
   <time name="diis">    0.88    0.89</time>
   <time name="orth">    0.01    0.01</time>
   <time name="total">    1.12    1.18</time>
   <energy>
    <i name="e_fr_energy">   -356.56622401 </i>
    <i name="e_wo_entrp">   -356.58181001 </i>
    <i name="e_0_energy">   -356.57141934 </i>
   </energy>
  </scstep>
  <scstep>
   <time name="diag">    0.09    0.10</time>
   <time name="diis">    0.76    0.84</time>
   <time name="orth">    0.01    0.01</time>
   <time name="total">    0.93    1.20</time>
   <energy>
    <i name="e_fr_energy">   -356.48991259 </i>
    <i name="e_wo_entrp">   -356.50557158 </i>
    <i name="e_0_energy">   -356.49513225 </i>
   </energy>
  </scstep>
  <scstep>
   <time name="diag">    0.08    0.08</time>
   <time name="diis">    0.90    0.90</time>
   <time name="orth">    0.01    0.01</time>
   <time name="total">    1.06    1.11</time>
   <energy>
    <i name="e_fr_energy">   -356.46211128 </i>
    <i name="e_wo_entrp">   -356.47609489 </i>
    <i name="e_0_energy">   -356.46677248 </i>
   </energy>
  </scstep>
  <scstep>
   <time name="diag">    0.08    0.08</time>
   <time name="diis">    0.80    0.82</time>
   <time name="orth">    0.01    0.01</time>
   <time name="total">    0.97    1.03</time>
   <energy>
    <i name="e_fr_energy">   -356.45685785 </i>
    <i name="e_wo_entrp">   -356.47150978 </i>
    <i name="e_0_energy">   -356.46174182 </i>
   </energy>
  </scstep>
  <scstep>
   <time name="diag">    0.14    0.14</time>
   <time name="diis">    0.85    0.87</time>
   <time name="orth">    0.01    0.01</time>
   <time name="total">    1.07    1.14</time>
   <energy>
    <i name="e_fr_energy">   -356.45599198 </i>
    <i name="e_wo_entrp">   -356.47032022 </i>
    <i name="e_0_energy">   -356.46076806 </i>
   </energy>
  </scstep>
  <scstep>
   <time name="diag">    0.09    0.11</time>
   <time name="diis">    0.87    0.89</time>
   <time name="orth">    0.02    0.02</time>
   <time name="total">    1.08    1.19</time>
   <energy>
    <i name="e_fr_energy">   -356.45609224 </i>
    <i name="e_wo_entrp">   -356.47058330 </i>
    <i name="e_0_energy">   -356.46092260 </i>
   </energy>
  </scstep>
  <scstep>
   <time name="diag">    0.09    0.14</time>
   <time name="diis">    0.79    0.91</time>
   <time name="orth">    0.01    0.01</time>
   <time name="total">    0.96    1.21</time>
   <energy>
    <i name="e_fr_energy">   -356.45623052 </i>
    <i name="e_wo_entrp">   -356.47081386 </i>
    <i name="e_0_energy">   -356.46109163 </i>
   </energy>
  </scstep>
  <scstep>
   <time name="diag">    0.09    0.10</time>
   <time name="diis">    0.74    0.76</time>
   <time name="orth">    0.01    0.01</time>
   <time name="total">    0.91    0.99</time>
   <energy>
    <i name="e_fr_energy">   -356.45628565 </i>
    <i name="e_wo_entrp">   -356.47082298 </i>
    <i name="e_0_energy">   -356.46113143 </i>
   </energy>
  </scstep>
  <scstep>
   <time name="diag">    0.08    0.08</time>
   <time name="diis">    0.67    0.67</time>
   <time name="orth">    0.01    0.01</time>
   <time name="total">    0.83    0.88</time>
   <energy>
    <i name="e_fr_energy">   -356.45632672 </i>
    <i name="e_wo_entrp">   -356.47085173 </i>
    <i name="e_0_energy">   -356.46116839 </i>
   </energy>
  </scstep>
  <scstep>
   <time name="diag">    0.11    0.12</time>
   <time name="diis">    0.65    0.65</time>
   <time name="orth">    0.01    0.01</time>
   <time name="total">    0.85    0.90</time>
   <energy>
    <i name="e_fr_energy">   -356.45635067 </i>
    <i name="e_wo_entrp">   -356.47087512 </i>
    <i name="e_0_energy">   -356.46119215 </i>
   </energy>
  </scstep>
  <scstep>
   <time name="diag">    0.09    0.09</time>
   <time name="diis">    0.57    0.57</time>
   <time name="orth">    0.01    0.01</time>
   <time name="total">    0.82    0.86</time>
   <energy>
    <i name="e_fr_energy">   -356.45636150 </i>
    <i name="e_wo_entrp">   -356.47089085 </i>
    <i name="e_0_energy">   -356.46120462 </i>
   </energy>
  </scstep>
  <scstep>
   <time name="diag">    0.08    0.08</time>
   <time name="diis">    0.50    0.51</time>
   <time name="orth">    0.01    0.01</time>
   <time name="total">    0.63    0.69</time>
   <energy>
    <i name="alphaZ">   1655.97343475 </i>
    <i name="ewald"> -22319.53605448 </i>
    <i name="hartreedc">  -8064.17091040 </i>
    <i name="XCdc">    118.37308514 </i>
    <i name="pawpsdc">  37397.40740642 </i>
    <i name="pawaedc"> -35942.91896604 </i>
    <i name="eentropy">      0.01453043 </i>
    <i name="bandstr">  -3192.10835682 </i>
    <i name="atom">  29990.50946633 </i>
    <i name="e_fr_energy">   -356.45636468 </i>
    <i name="e_wo_entrp">   -356.47089511 </i>
    <i name="e_0_energy">   -356.46120815 </i>
   </energy>
  </scstep>
  <structure>
   <crystal>
    <varray name="basis" >
     <v>       6.97959347       0.01832206      -0.00914357 </v>
     <v>       0.02685706      10.23144283       0.02027748 </v>
     <v>      -0.01347841       0.01960406      10.24181851 </v>
    </varray>
    <i name="volume">    731.37260751 </i>
    <varray name="rec_basis" >
     <v>       0.14327606      -0.00037647       0.00018927 </v>
     <v>      -0.00025682       0.09773897      -0.00018742 </v>
     <v>       0.00012842      -0.00019385       0.09763945 </v>
    </varray>
   </crystal>
   <varray name="positions" >
    <v>       0.00559600       0.99394600       0.33244300 </v>
    <v>       0.49135000       0.98973500       0.34628200 </v>
    <v>       0.74359500       0.83033400       0.18684400 </v>
    <v>       0.23456300       0.16946700       0.49007000 </v>
    <v>       0.50500600       0.33928500       0.34902200 </v>
    <v>       0.26554800       0.49931900       0.84793700 </v>
    <v>       0.98501600       0.33807400       0.32347900 </v>
    <v>       0.01827000       0.33929200       0.66916800 </v>
    <v>       0.24214200       0.83431800       0.48423800 </v>
    <v>       0.48070500       0.33547500       0.98900000 </v>
    <v>       0.26091500       0.16826000       0.17588700 </v>
    <v>       0.98393000       0.00505100       0.01116600 </v>
    <v>       0.76165000       0.16365800       0.50164500 </v>
    <v>       0.76441800       0.17115900       0.82033500 </v>
    <v>       0.51849000       0.99714300       0.99591300 </v>
    <v>       0.72492100       0.17771600       0.17776500 </v>
    <v>       0.73823800       0.49144100       0.82908300 </v>
    <v>       0.48826500       0.66264200       0.65140100 </v>
    <v>       0.48123700       0.33171700       0.65942900 </v>
    <v>       0.76512500       0.83752500       0.81296800 </v>
    <v>       0.23525400       0.17135900       0.83335900 </v>
    <v>       0.72984100       0.49684300       0.17644700 </v>
    <v>       0.53152100       0.66787900       0.01220100 </v>
    <v>       0.04290300       0.00493200       0.66124200 </v>
    <v>       0.51395500       0.66953500       0.33901300 </v>
    <v>       0.76538500       0.49850900       0.48854100 </v>
    <v>       0.98477700       0.66953400       0.32618800 </v>
    <v>       0.26336400       0.50483300       0.17037600 </v>
    <v>       0.00386400       0.33773600       0.00376300 </v>
    <v>       0.97126400       0.66075200       0.00795500 </v>
    <v>       0.25747900       0.82658500       0.16914900 </v>
    <v>       0.46794200       0.00289900       0.66114700 </v>
    <v>       0.76457100       0.83866000       0.50310600 </v>
    <v>       0.23149500       0.49635900       0.47437300 </v>
    <v>       0.02555500       0.65270600       0.66778500 </v>
    <v>       0.25185300       0.82532400       0.85127500 </v>
   </varray>
  </structure>
  <varray name="forces" >
   <v>      -0.00306703      -0.12327853       0.00048192 </v>
   <v>      -0.00413534       0.01477541      -0.00012809 </v>
   <v>      -0.06630318       0.06444994      -0.05607821 </v>
   <v>      -0.01333334       0.00172773      -0.00314898 </v>
   <v>      -0.00072915      -0.01485182      -0.00892064 </v>
   <v>       0.00612655      -0.00182062      -0.00045344 </v>
   <v>       0.00959606       0.08790573       0.00678530 </v>
   <v>      -0.01112159      -0.01265294       0.00653559 </v>
   <v>       0.00175173       0.00460640       0.00112132 </v>
   <v>      -0.00398736       0.00286366      -0.01239750 </v>
   <v>      -0.00671715      -0.00324390       0.00662071 </v>
   <v>       0.00131363       0.02253553      -0.01631533 </v>
   <v>       0.00756125      -0.00219267      -0.01022077 </v>
   <v>       0.01507805       0.00310751       0.00813868 </v>
   <v>       0.01183044      -0.00749545       0.00591480 </v>
   <v>       0.00176416       0.00278143       0.00578776 </v>
   <v>      -0.00108227      -0.00992152      -0.00266242 </v>
   <v>      -0.00232082       0.00156388       0.02766024 </v>
   <v>       0.00864440       0.00233750       0.00218735 </v>
   <v>      -0.00668629      -0.00103877      -0.00676712 </v>
   <v>      -0.01289550      -0.00295918      -0.00044463 </v>
   <v>       0.00758053       0.02331659       0.00675913 </v>
   <v>      -0.01546730      -0.00490034      -0.02059120 </v>
   <v>       0.00029707       0.00588752       0.01282521 </v>
   <v>       0.07858138      -0.00024052      -0.00221864 </v>
   <v>       0.00136619       0.00389099       0.01328266 </v>
   <v>      -0.09283096      -0.04870665      -0.01605879 </v>
   <v>       0.00840211       0.01651490       0.01284658 </v>
   <v>       0.00102988      -0.01575495      -0.00984448 </v>
   <v>       0.01591414       0.01445205       0.11272278 </v>
   <v>       0.01812034      -0.00398920      -0.02174301 </v>
   <v>      -0.00441230       0.00553092       0.00238066 </v>
   <v>      -0.00924647       0.00300491       0.00832797 </v>
   <v>       0.05223568      -0.03606083       0.03180187 </v>
   <v>       0.00796294       0.00244090      -0.09118426 </v>
   <v>      -0.00082046       0.00541439       0.00699700 </v>
  </varray>
  <varray name="stress" >
   <v>       0.05707984      -0.33677668       0.23224119 </v>
   <v>      -0.33677668      -0.45040410      -0.45108379 </v>
   <v>       0.23224120      -0.45108389       0.00180200 </v>
  </varray>
  <energy>
   <i name="e_fr_energy">   -356.45636468 </i>
   <i name="e_wo_entrp">   -356.46120815 </i>
   <i name="e_0_energy">      0.01453043 </i>
  </energy>
  <time name="totalsc">   22.80   25.18</time>
 </calculation>
 <calculation>
  <scstep>
   <time name="dav">    1.09    1.10</time>
   <time name="total">    1.17    1.36</time>
   <energy>
    <i name="alphaZ">   1656.09244927 </i>
    <i name="ewald"> -22320.70352713 </i>
    <i name="hartreedc">  -8063.74433343 </i>
    <i name="XCdc">    118.39719451 </i>
    <i name="pawpsdc">  37397.43429797 </i>
    <i name="pawaedc"> -35942.94512756 </i>
    <i name="eentropy">      0.01456983 </i>
    <i name="bandstr">  -3191.51246364 </i>
    <i name="atom">  29990.50946633 </i>
    <i name="e_fr_energy">   -356.45747386 </i>
    <i name="e_wo_entrp">   -356.47204369 </i>
    <i name="e_0_energy">   -356.46233047 </i>
   </energy>
  </scstep>
  <scstep>
   <time name="diag">    0.11    0.11</time>
   <time name="diis">    0.79    0.80</time>
   <time name="orth">    0.01    0.01</time>
   <time name="total">    0.98    1.02</time>
   <energy>
    <i name="e_fr_energy">   -356.45766187 </i>
    <i name="e_wo_entrp">   -356.47222476 </i>
    <i name="e_0_energy">   -356.46251616 </i>
   </energy>
  </scstep>
  <scstep>
   <time name="diag">    0.09    0.09</time>
   <time name="diis">    0.72    0.73</time>
   <time name="orth">    0.02    0.02</time>
   <time name="total">    0.92    0.97</time>
   <energy>
    <i name="e_fr_energy">   -356.45765310 </i>
    <i name="e_wo_entrp">   -356.47222124 </i>
    <i name="e_0_energy">   -356.46250915 </i>
   </energy>
  </scstep>
  <scstep>
   <time name="diag">    0.09    0.10</time>
   <time name="diis">    0.61    0.61</time>
   <time name="orth">    0.01    0.01</time>
   <time name="total">    0.74    0.83</time>
   <energy>
    <i name="alphaZ">   1656.09244927 </i>
    <i name="ewald"> -22320.70352713 </i>
    <i name="hartreedc">  -8063.37186126 </i>
    <i name="XCdc">    118.38101167 </i>
    <i name="pawpsdc">  37400.59081661 </i>
    <i name="pawaedc"> -35946.10456701 </i>
    <i name="eentropy">      0.01455447 </i>
    <i name="bandstr">  -3191.86599010 </i>
    <i name="atom">  29990.50946633 </i>
    <i name="e_fr_energy">   -356.45764716 </i>
    <i name="e_wo_entrp">   -356.47220163 </i>
    <i name="e_0_energy">   -356.46249865 </i>
   </energy>
  </scstep>
  <structure>
   <crystal>
    <varray name="basis" >
     <v>       6.97966506       0.01788993      -0.00884762 </v>
     <v>       0.02622586      10.23059379       0.01943165 </v>
     <v>      -0.01304326       0.01875543      10.24181970 </v>
    </varray>
    <i name="volume">    731.32004767 </i>
    <varray name="rec_basis" >
     <v>       0.14327453      -0.00036763       0.00018314 </v>
     <v>      -0.00025077       0.09774702      -0.00017932 </v>
     <v>       0.00012425      -0.00018577       0.09763940 </v>
    </varray>
   </crystal>
   <varray name="positions" >
    <v>       0.00559031       0.99377163       0.33244402 </v>
    <v>       0.49134134       0.98975592       0.34628177 </v>
    <v>       0.74345701       0.83042557       0.18676445 </v>
    <v>       0.23453533       0.16946950       0.49006552 </v>
    <v>       0.50500454       0.33926402       0.34900943 </v>
    <v>       0.26556071       0.49931640       0.84793638 </v>
    <v>       0.98503544       0.33819829       0.32348836 </v>
    <v>       0.01824703       0.33927413       0.66917725 </v>
    <v>       0.24214561       0.83432451       0.48423957 </v>
    <v>       0.48069668       0.33547910       0.98898247 </v>
    <v>       0.26090111       0.16825542       0.17589635 </v>
    <v>       0.98393256       0.00508292       0.01114288 </v>
    <v>       0.76166566       0.16365490       0.50163058 </v>
    <v>       0.76444927       0.17116332       0.82034652 </v>
    <v>       0.51851459       0.99713234       0.99592140 </v>
    <v>       0.72492466       0.17771991       0.17777317 </v>
    <v>       0.73823580       0.49142698       0.82907926 </v>
    <v>       0.48826025       0.66264415       0.65144008 </v>
    <v>       0.48125492       0.33172027       0.65943210 </v>
    <v>       0.76511112       0.83752357       0.81295843 </v>
    <v>       0.23522727       0.17135486       0.83335836 </v>
    <v>       0.72985661       0.49687594       0.17645650 </v>
    <v>       0.53148890       0.66787218       0.01217189 </v>
    <v>       0.04290362       0.00494029       0.66126011 </v>
    <v>       0.51411794       0.66953437       0.33901001 </v>
    <v>       0.76538785       0.49851446       0.48855976 </v>
    <v>       0.98458473       0.66946549       0.32616527 </v>
    <v>       0.26338137       0.50485630       0.17039412 </v>
    <v>       0.00386619       0.33771374       0.00374913 </v>
    <v>       0.97129723       0.66077208       0.00811428 </v>
    <v>       0.25751654       0.82657935       0.16911832 </v>
    <v>       0.46793283       0.00290683       0.66115034 </v>
    <v>       0.76455183       0.83866426       0.50311774 </v>
    <v>       0.23160360       0.49630771       0.47441814 </v>
    <v>       0.02557125       0.65270967       0.66765615 </v>
    <v>       0.25185129       0.82533164       0.85128487 </v>
   </varray>
  </structure>
  <varray name="forces" >
   <v>      -0.00387302      -0.11111752      -0.00065091 </v>
   <v>      -0.00464248       0.01474386      -0.00094056 </v>
   <v>      -0.06021268       0.05724966      -0.04810552 </v>
   <v>      -0.01147027       0.00053882      -0.00172431 </v>
   <v>      -0.00020909      -0.01587112      -0.01016152 </v>
   <v>       0.00511871      -0.00047360      -0.00244014 </v>
   <v>       0.00749052       0.08018036       0.00584296 </v>
   <v>      -0.01093818      -0.01225242       0.00659339 </v>
   <v>       0.00163930       0.00282821      -0.00046507 </v>
   <v>      -0.00348293       0.00171829      -0.01071101 </v>
   <v>      -0.00824999      -0.00346103       0.00684413 </v>
   <v>       0.00147871       0.02248539      -0.01640654 </v>
   <v>       0.00850678      -0.00240750      -0.00970438 </v>
   <v>       0.01344545       0.00360237       0.00665308 </v>
   <v>       0.01068715      -0.00496295       0.00539616 </v>
   <v>       0.00177483       0.00151427       0.00512632 </v>
   <v>       0.00125846      -0.00811388      -0.00179188 </v>
   <v>      -0.00284599       0.00187538       0.02826602 </v>
   <v>       0.00953961       0.00090925       0.00346038 </v>
   <v>      -0.00610821      -0.00257183      -0.00422101 </v>
   <v>      -0.01164729      -0.00165827      -0.00061792 </v>
   <v>       0.00521569       0.01870181       0.00532686 </v>
   <v>      -0.01334867      -0.00410812      -0.02192223 </v>
   <v>       0.00009348       0.00560145       0.01152374 </v>
   <v>       0.07199388       0.00025676      -0.00346916 </v>
   <v>      -0.00169043       0.00175201       0.01317587 </v>
   <v>      -0.08498044      -0.04231451      -0.01537053 </v>
   <v>       0.00941316       0.01460219       0.01302829 </v>
   <v>       0.00123215      -0.01576070      -0.00772727 </v>
   <v>       0.01167143       0.01560990       0.10269346 </v>
   <v>       0.01805375      -0.00407725      -0.01712797 </v>
   <v>      -0.00351557       0.00681457       0.00149445 </v>
   <v>      -0.00889800       0.00393689       0.00882302 </v>
   <v>       0.05075222      -0.03234507       0.02741006 </v>
   <v>       0.00874914       0.00267388      -0.08428519 </v>
   <v>      -0.00200115       0.00390043       0.00618492 </v>
  </varray>
  <varray name="stress" >
   <v>       0.18567979      -0.34885642       0.25622560 </v>
   <v>      -0.34885641      -0.34781851      -0.48648935 </v>
   <v>       0.25622553      -0.48648943       0.13678210 </v>
  </varray>
  <energy>
   <i name="e_fr_energy">   -356.45764716 </i>
   <i name="e_wo_entrp">   -356.46249865 </i>
   <i name="e_0_energy">      0.01455447 </i>
  </energy>
  <time name="totalsc">    5.49    6.00</time>
 </calculation>
 <calculation>
  <scstep>
   <time name="dav">    1.08    1.09</time>
   <time name="total">    1.16    1.36</time>
   <energy>
    <i name="alphaZ">   1656.44986145 </i>
    <i name="ewald"> -22324.19357535 </i>
    <i name="hartreedc">  -8062.11296613 </i>
    <i name="XCdc">    118.45442390 </i>
    <i name="pawpsdc">  37400.70995744 </i>
    <i name="pawaedc"> -35946.22429073 </i>
    <i name="eentropy">      0.01465243 </i>
    <i name="bandstr">  -3190.06692000 </i>
    <i name="atom">  29990.50946633 </i>
    <i name="e_fr_energy">   -356.45939066 </i>
    <i name="e_wo_entrp">   -356.47404308 </i>
    <i name="e_0_energy">   -356.46427480 </i>
   </energy>
  </scstep>
  <scstep>
   <time name="diag">    0.08    0.08</time>
   <time name="diis">    0.79    0.79</time>
   <time name="orth">    0.01    0.01</time>
   <time name="total">    0.95    1.00</time>
   <energy>
    <i name="e_fr_energy">   -356.46094249 </i>
    <i name="e_wo_entrp">   -356.47555114 </i>
    <i name="e_0_energy">   -356.46581204 </i>
   </energy>
  </scstep>
  <scstep>
   <time name="diag">    0.08    0.08</time>
   <time name="diis">    0.87    0.88</time>
   <time name="orth">    0.01    0.01</time>
   <time name="total">    1.04    1.10</time>
   <energy>
    <i name="e_fr_energy">   -356.46088264 </i>
    <i name="e_wo_entrp">   -356.47554314 </i>
    <i name="e_0_energy">   -356.46576947 </i>
   </energy>
  </scstep>
  <scstep>
   <time name="diag">    0.08    0.08</time>
   <time name="diis">    0.91    0.92</time>
   <time name="orth">    0.02    0.02</time>
   <time name="total">    1.13    1.17</time>
   <energy>
    <i name="e_fr_energy">   -356.46080748 </i>
    <i name="e_wo_entrp">   -356.47540674 </i>
    <i name="e_0_energy">   -356.46567390 </i>
   </energy>
  </scstep>
  <scstep>
   <time name="diag">    0.09    0.09</time>
   <time name="diis">    0.73    0.74</time>
   <time name="orth">    0.01    0.01</time>
   <time name="total">    0.90    0.95</time>
   <energy>
    <i name="e_fr_energy">   -356.46080331 </i>
    <i name="e_wo_entrp">   -356.47544123 </i>
    <i name="e_0_energy">   -356.46568261 </i>
   </energy>
  </scstep>
  <scstep>
   <time name="diag">    0.08    0.09</time>
   <time name="diis">    0.68    0.68</time>
   <time name="orth">    0.01    0.01</time>
   <time name="total">    0.84    0.90</time>
   <energy>
    <i name="e_fr_energy">   -356.46080257 </i>
    <i name="e_wo_entrp">   -356.47541531 </i>
    <i name="e_0_energy">   -356.46567349 </i>
   </energy>
  </scstep>
  <scstep>
   <time name="diag">    0.08    0.08</time>
   <time name="diis">    0.50    0.51</time>
   <time name="orth">    0.01    0.01</time>
   <time name="total">    0.63    0.68</time>
   <energy>
    <i name="alphaZ">   1656.44986145 </i>
    <i name="ewald"> -22324.19357535 </i>
    <i name="hartreedc">  -8060.97765315 </i>
    <i name="XCdc">    118.40486945 </i>
    <i name="pawpsdc">  37409.81755715 </i>
    <i name="pawaedc"> -35955.35051507 </i>
    <i name="eentropy">      0.01462298 </i>
    <i name="bandstr">  -3191.13543794 </i>
    <i name="atom">  29990.50946633 </i>
    <i name="e_fr_energy">   -356.46080415 </i>
    <i name="e_wo_entrp">   -356.47542713 </i>
    <i name="e_0_energy">   -356.46567847 </i>
   </energy>
  </scstep>
  <structure>
   <crystal>
    <varray name="basis" >
     <v>       6.97987983       0.01659355      -0.00795976 </v>
     <v>       0.02433225      10.22804667       0.01689417 </v>
     <v>      -0.01173778       0.01620956      10.24182327 </v>
    </varray>
    <i name="volume">    731.16225074 </i>
    <varray name="rec_basis" >
     <v>       0.14326994      -0.00034111       0.00016474 </v>
     <v>      -0.00023261       0.09777119      -0.00015501 </v>
     <v>       0.00011173      -0.00016154       0.09763925 </v>
    </varray>
   </crystal>
   <varray name="positions" >
    <v>       0.00557321       0.99324846       0.33244704 </v>
    <v>       0.49131538       0.98981867       0.34628109 </v>
    <v>       0.74304308       0.83070025       0.18652584 </v>
    <v>       0.23445234       0.16947700       0.49005209 </v>
    <v>       0.50500017       0.33920106       0.34897173 </v>
    <v>       0.26559885       0.49930861       0.84793450 </v>
    <v>       0.98509378       0.33857121       0.32351647 </v>
    <v>       0.01817809       0.33922050       0.66920500 </v>
    <v>       0.24215644       0.83434403       0.48424430 </v>
    <v>       0.48067173       0.33549139       0.98892986 </v>
    <v>       0.26085943       0.16824167       0.17592441 </v>
    <v>       0.98394024       0.00517867       0.01107354 </v>
    <v>       0.76171265       0.16364559       0.50158731 </v>
    <v>       0.76454308       0.17117628       0.82038108 </v>
    <v>       0.51858835       0.99710035       0.99594660 </v>
    <v>       0.72493563       0.17773165       0.17779770 </v>
    <v>       0.73822921       0.49138490       0.82906805 </v>
    <v>       0.48824601       0.66265059       0.65155731 </v>
    <v>       0.48130867       0.33173008       0.65944140 </v>
    <v>       0.76506949       0.83751929       0.81292971 </v>
    <v>       0.23514710       0.17134245       0.83335643 </v>
    <v>       0.72990345       0.49697476       0.17648501 </v>
    <v>       0.53139259       0.66785171       0.01208455 </v>
    <v>       0.04290548       0.00496518       0.66131443 </v>
    <v>       0.51460676       0.66953251       0.33900103 </v>
    <v>       0.76539639       0.49853086       0.48861605 </v>
    <v>       0.98400790       0.66925991       0.32609708 </v>
    <v>       0.26343347       0.50492619       0.17044850 </v>
    <v>       0.00387277       0.33764694       0.00370753 </v>
    <v>       0.97139689       0.66083236       0.00859212 </v>
    <v>       0.25762915       0.82656239       0.16902627 </v>
    <v>       0.46790531       0.00293034       0.66116036 </v>
    <v>       0.76449433       0.83867705       0.50315297 </v>
    <v>       0.23192937       0.49615385       0.47455353 </v>
    <v>       0.02562002       0.65272065       0.66726962 </v>
    <v>       0.25184615       0.82535458       0.85131449 </v>
   </varray>
  </structure>
  <varray name="forces" >
   <v>      -0.00309667      -0.08955312      -0.00423319 </v>
   <v>      -0.00920146       0.01252667       0.00004393 </v>
   <v>      -0.04723883       0.03849163      -0.03302946 </v>
   <v>      -0.01092241      -0.00355069       0.00097745 </v>
   <v>       0.00192550      -0.01445343      -0.01136607 </v>
   <v>      -0.00102357       0.00248826      -0.00665878 </v>
   <v>       0.00418253       0.06456161       0.00274929 </v>
   <v>      -0.00976521      -0.00863298       0.00756759 </v>
   <v>       0.00333221      -0.00468593      -0.00245569 </v>
   <v>      -0.00437295       0.00115809      -0.00736707 </v>
   <v>      -0.01477681      -0.00301826       0.00792629 </v>
   <v>       0.00233404       0.01996104      -0.01747426 </v>
   <v>       0.01346900      -0.00315755      -0.00991774 </v>
   <v>       0.00684373       0.00321099       0.00346079 </v>
   <v>       0.00707760       0.00071308       0.00108946 </v>
   <v>       0.00430707       0.00077016       0.00350598 </v>
   <v>       0.01194378       0.00034618       0.00260479 </v>
   <v>      -0.00704624       0.00403690       0.02997268 </v>
   <v>       0.01124357      -0.00333581       0.00792144 </v>
   <v>      -0.00195157      -0.00932784       0.00312195 </v>
   <v>      -0.00749025       0.00134091      -0.00101250 </v>
   <v>      -0.00013391       0.00764590       0.00065158 </v>
   <v>      -0.00834049      -0.00189352      -0.02798887 </v>
   <v>       0.00041089       0.00215535       0.00845547 </v>
   <v>       0.05276088       0.00196101      -0.00653159 </v>
   <v>      -0.00817629      -0.00094864       0.01518045 </v>
   <v>      -0.06240290      -0.02501541      -0.01423968 </v>
   <v>       0.01190370       0.01122063       0.01295137 </v>
   <v>       0.00246722      -0.01352989      -0.00378090 </v>
   <v>       0.00133832       0.01986639       0.07294263 </v>
   <v>       0.01661335      -0.00727609      -0.00607291 </v>
   <v>      -0.00093264       0.00761141       0.00056136 </v>
   <v>      -0.00785981       0.00402791       0.01362361 </v>
   <v>       0.04636116      -0.01918841       0.01805631 </v>
   <v>       0.01257095       0.00492110      -0.06389899 </v>
   <v>      -0.00635349      -0.00144762       0.00266328 </v>
  </varray>
  <varray name="stress" >
   <v>       0.44906066       0.00295290       0.08544787 </v>
   <v>       0.00295289       0.11451274      -0.10510957 </v>
   <v>       0.08544787      -0.10510953       0.43704836 </v>
  </varray>
  <energy>
   <i name="e_fr_energy">   -356.46080415 </i>
   <i name="e_wo_entrp">   -356.46567847 </i>
   <i name="e_0_energy">      0.01462298 </i>
  </energy>
  <time name="totalsc">    8.43    9.09</time>
 </calculation>
 <calculation>
  <scstep>
   <time name="dav">    1.14    1.15</time>
   <time name="total">    1.21    1.40</time>
   <energy>
    <i name="alphaZ">   1657.16634624 </i>
    <i name="ewald"> -22331.11885840 </i>
    <i name="hartreedc">  -8058.52546623 </i>
    <i name="XCdc">    118.55481105 </i>
    <i name="pawpsdc">  37409.58774615 </i>
    <i name="pawaedc"> -35955.11238736 </i>
    <i name="eentropy">      0.01476641 </i>
    <i name="bandstr">  -3187.53499483 </i>
    <i name="atom">  29990.50946633 </i>
    <i name="e_fr_energy">   -356.45857064 </i>
    <i name="e_wo_entrp">   -356.47333705 </i>
    <i name="e_0_energy">   -356.46349277 </i>
   </energy>
  </scstep>
  <scstep>
   <time name="diag">    0.12    0.12</time>
   <time name="diis">    0.79    0.79</time>
   <time name="orth">    0.01    0.01</time>
   <time name="total">    0.99    1.03</time>
   <energy>
    <i name="e_fr_energy">   -356.46472626 </i>
    <i name="e_wo_entrp">   -356.47940466 </i>
    <i name="e_0_energy">   -356.46961906 </i>
   </energy>
  </scstep>
  <scstep>
   <time name="diag">    0.09    0.09</time>
   <time name="diis">    0.81    0.81</time>
   <time name="orth">    0.01    0.01</time>
   <time name="total">    0.99    1.05</time>
   <energy>
    <i name="e_fr_energy">   -356.46439580 </i>
    <i name="e_wo_entrp">   -356.47917321 </i>
    <i name="e_0_energy">   -356.46932160 </i>
   </energy>
  </scstep>
  <scstep>
   <time name="diag">    0.11    0.11</time>
   <time name="diis">    0.92    0.92</time>
   <time name="orth">    0.01    0.01</time>
   <time name="total">    1.11    1.17</time>
   <energy>
    <i name="e_fr_energy">   -356.46413053 </i>
    <i name="e_wo_entrp">   -356.47879883 </i>
    <i name="e_0_energy">   -356.46901996 </i>
   </energy>
  </scstep>
  <scstep>
   <time name="diag">    0.11    0.11</time>
   <time name="diis">    0.85    0.85</time>
   <time name="orth">    0.01    0.01</time>
   <time name="total">    1.04    1.09</time>
   <energy>
    <i name="e_fr_energy">   -356.46412282 </i>
    <i name="e_wo_entrp">   -356.47887012 </i>
    <i name="e_0_energy">   -356.46903858 </i>
   </energy>
  </scstep>
  <scstep>
   <time name="diag">    0.09    0.09</time>
   <time name="diis">    0.78    0.83</time>
   <time name="orth">    0.01    0.01</time>
   <time name="total">    0.95    1.05</time>
   <energy>
    <i name="e_fr_energy">   -356.46411177 </i>
    <i name="e_wo_entrp">   -356.47880301 </i>
    <i name="e_0_energy">   -356.46900885 </i>
   </energy>
  </scstep>
  <scstep>
   <time name="diag">    0.09    0.09</time>
   <time name="diis">    0.64    0.64</time>
   <time name="orth">    0.01    0.02</time>
   <time name="total">    0.81    0.86</time>
   <energy>
    <i name="e_fr_energy">   -356.46411635 </i>
    <i name="e_wo_entrp">   -356.47883325 </i>
    <i name="e_0_energy">   -356.46902199 </i>
   </energy>
  </scstep>
  <scstep>
   <time name="diag">    0.09    0.09</time>
   <time name="diis">    0.66    0.66</time>
   <time name="orth">    0.01    0.01</time>
   <time name="total">    0.80    0.85</time>
   <energy>
    <i name="alphaZ">   1657.16634624 </i>
    <i name="ewald"> -22331.11885840 </i>
    <i name="hartreedc">  -8056.31297103 </i>
    <i name="XCdc">    118.45755968 </i>
    <i name="pawpsdc">  37428.79384439 </i>
    <i name="pawaedc"> -35974.32972482 </i>
    <i name="eentropy">      0.01471132 </i>
    <i name="bandstr">  -3189.64449979 </i>
    <i name="atom">  29990.50946633 </i>
    <i name="e_fr_energy">   -356.46412608 </i>
    <i name="e_wo_entrp">   -356.47883740 </i>
    <i name="e_0_energy">   -356.46902986 </i>
   </energy>
  </scstep>
  <structure>
   <crystal>
    <varray name="basis" >
     <v>       6.98030937       0.01400078      -0.00618404 </v>
     <v>       0.02054503      10.22295242       0.01181921 </v>
     <v>      -0.00912684       0.01111781      10.24183041 </v>
    </varray>
    <i name="volume">    730.84612881 </i>
    <varray name="rec_basis" >
     <v>       0.14326082      -0.00028806       0.00012798 </v>
     <v>      -0.00019630       0.09781962      -0.00010636 </v>
     <v>       0.00008673      -0.00011306       0.09763900 </v>
    </varray>
   </crystal>
   <varray name="positions" >
    <v>       0.00553871       0.99220186       0.33245283 </v>
    <v>       0.49126349       0.98994420       0.34627975 </v>
    <v>       0.74221548       0.83124953       0.18604882 </v>
    <v>       0.23428636       0.16949198       0.49002523 </v>
    <v>       0.50499142       0.33907510       0.34889630 </v>
    <v>       0.26567512       0.49929304       0.84793074 </v>
    <v>       0.98521066       0.33931726       0.32357286 </v>
    <v>       0.01804020       0.33911321       0.66926048 </v>
    <v>       0.24217812       0.83438309       0.48425376 </v>
    <v>       0.48062186       0.33551595       0.98882467 </v>
    <v>       0.26077605       0.16821418       0.17598053 </v>
    <v>       0.98395568       0.00537019       0.01093491 </v>
    <v>       0.76180664       0.16362696       0.50150075 </v>
    <v>       0.76473070       0.17120225       0.82045019 </v>
    <v>       0.51873584       0.99703640       0.99599697 </v>
    <v>       0.72495758       0.17775515       0.17784675 </v>
    <v>       0.73821600       0.49130072       0.82904561 </v>
    <v>       0.48821749       0.66266354       0.65179179 </v>
    <v>       0.48141618       0.33174972       0.65946000 </v>
    <v>       0.76498624       0.83751070       0.81287229 </v>
    <v>       0.23498675       0.17131759       0.83335257 </v>
    <v>       0.72999716       0.49717247       0.17654206 </v>
    <v>       0.53120001       0.66781070       0.01190988 </v>
    <v>       0.04290918       0.00501498       0.66142309 </v>
    <v>       0.51558438       0.66952892       0.33898299 </v>
    <v>       0.76541346       0.49856369       0.48872863 </v>
    <v>       0.98285419       0.66884848       0.32596071 </v>
    <v>       0.26353770       0.50506606       0.17055727 </v>
    <v>       0.00388591       0.33751329       0.00362430 </v>
    <v>       0.97159607       0.66095322       0.00954781 </v>
    <v>       0.25785439       0.82652845       0.16884215 </v>
    <v>       0.46785029       0.00297735       0.66118043 </v>
    <v>       0.76437933       0.83870264       0.50322345 </v>
    <v>       0.23258077       0.49584621       0.47482418 </v>
    <v>       0.02571771       0.65274244       0.66649654 </v>
    <v>       0.25183589       0.82540047       0.85137373 </v>
   </varray>
  </structure>
  <varray name="forces" >
   <v>      -0.00270460      -0.03903712      -0.01004188 </v>
   <v>      -0.01564288       0.00865166      -0.00015960 </v>
   <v>      -0.01925821      -0.00047948       0.00136920 </v>
   <v>      -0.00651814      -0.01407837       0.00669449 </v>
   <v>       0.00754524      -0.01110135      -0.01426722 </v>
   <v>      -0.01165094       0.00948662      -0.01552193 </v>
   <v>      -0.00526150       0.02868306      -0.00460640 </v>
   <v>      -0.00579206      -0.00153163       0.00922745 </v>
   <v>       0.00569773      -0.01755960      -0.00808797 </v>
   <v>      -0.00570578      -0.00143747       0.00189786 </v>
   <v>      -0.02741133      -0.00292214       0.01035501 </v>
   <v>       0.00366643       0.01615118      -0.01959088 </v>
   <v>       0.02234860      -0.00601596      -0.01066888 </v>
   <v>      -0.00545240       0.00354956      -0.00354170 </v>
   <v>      -0.00077280       0.01351097      -0.00558457 </v>
   <v>       0.00850823      -0.00233824       0.00081462 </v>
   <v>       0.03067833       0.01677326       0.01080581 </v>
   <v>      -0.01363113       0.00721404       0.03251026 </v>
   <v>       0.01429176      -0.01192596       0.01647125 </v>
   <v>       0.00561406      -0.02308686       0.01776752 </v>
   <v>       0.00016377       0.00655313      -0.00142626 </v>
   <v>      -0.01136314      -0.01557262      -0.00926745 </v>
   <v>       0.00155042       0.00261311      -0.03888418 </v>
   <v>      -0.00051970      -0.00515218       0.00125172 </v>
   <v>       0.01480358       0.00483148      -0.01304097 </v>
   <v>      -0.02242900      -0.00719233       0.01861797 </v>
   <v>      -0.01735327       0.00947516      -0.01065009 </v>
   <v>       0.01721793       0.00420717       0.01270202 </v>
   <v>       0.00527377      -0.01139917       0.00663396 </v>
   <v>      -0.01914261       0.02868263       0.01532744 </v>
   <v>       0.01371314      -0.01060138       0.01751481 </v>
   <v>       0.00403350       0.00905063      -0.00296061 </v>
   <v>      -0.00625063       0.00669104       0.02075773 </v>
   <v>       0.03739478       0.00660564      -0.00168834 </v>
   <v>       0.01957169       0.01063895      -0.02557639 </v>
   <v>      -0.01521281      -0.01193741      -0.00515381 </v>
  </varray>
  <varray name="stress" >
   <v>       1.02018112       0.50714862      -0.12352706 </v>
   <v>       0.50714869       0.91775459       0.43050091 </v>
   <v>      -0.12352701       0.43050089       1.09494711 </v>
  </varray>
  <energy>
   <i name="e_fr_energy">   -356.46412608 </i>
   <i name="e_wo_entrp">   -356.46902986 </i>
   <i name="e_0_energy">      0.01471132 </i>
  </energy>
  <time name="totalsc">    9.56   10.40</time>
 </calculation>
 <calculation>
  <scstep>
   <time name="dav">    1.12    1.14</time>
   <time name="total">    1.21    1.44</time>
   <energy>
    <i name="alphaZ">   1657.37409883 </i>
    <i name="ewald"> -22333.11007552 </i>
    <i name="hartreedc">  -8055.62845539 </i>
    <i name="XCdc">    118.50184016 </i>
    <i name="pawpsdc">  37428.54324908 </i>
    <i name="pawaedc"> -35974.06075410 </i>
    <i name="eentropy">      0.01474630 </i>
    <i name="bandstr">  -3188.60796016 </i>
    <i name="atom">  29990.50946633 </i>
    <i name="e_fr_energy">   -356.46384447 </i>
    <i name="e_wo_entrp">   -356.47859077 </i>
    <i name="e_0_energy">   -356.46875991 </i>
   </energy>
  </scstep>
  <scstep>
   <time name="diag">    0.09    0.09</time>
   <time name="diis">    0.78    0.79</time>
   <time name="orth">    0.01    0.01</time>
   <time name="total">    0.96    1.00</time>
   <energy>
    <i name="e_fr_energy">   -356.46437891 </i>
    <i name="e_wo_entrp">   -356.47910708 </i>
    <i name="e_0_energy">   -356.46928830 </i>
   </energy>
  </scstep>
  <scstep>
   <time name="diag">    0.09    0.09</time>
   <time name="diis">    0.84    0.84</time>
   <time name="orth">    0.01    0.01</time>
   <time name="total">    1.04    1.09</time>
   <energy>
    <i name="e_fr_energy">   -356.46436299 </i>
    <i name="e_wo_entrp">   -356.47911368 </i>
    <i name="e_0_energy">   -356.46927989 </i>
   </energy>
  </scstep>
  <scstep>
   <time name="diag">    0.08    0.08</time>
   <time name="diis">    0.73    0.73</time>
   <time name="orth">    0.01    0.01</time>
   <time name="total">    0.89    0.94</time>
   <energy>
    <i name="e_fr_energy">   -356.46434821 </i>
    <i name="e_wo_entrp">   -356.47906643 </i>
    <i name="e_0_energy">   -356.46925428 </i>
   </energy>
  </scstep>
  <scstep>
   <time name="diag">    0.08    0.08</time>
   <time name="diis">    0.57    0.58</time>
   <time name="orth">    0.01    0.01</time>
   <time name="total">    0.78    0.83</time>
   <energy>
    <i name="e_fr_energy">   -356.46434857 </i>
    <i name="e_wo_entrp">   -356.47909192 </i>
    <i name="e_0_energy">   -356.46926302 </i>
   </energy>
  </scstep>
  <scstep>
   <time name="diag">    0.08    0.08</time>
   <time name="diis">    0.50    0.50</time>
   <time name="orth">    0.02    0.02</time>
   <time name="total">    0.63    0.68</time>
   <energy>
    <i name="alphaZ">   1657.37409883 </i>
    <i name="ewald"> -22333.11007552 </i>
    <i name="hartreedc">  -8055.00466901 </i>
    <i name="XCdc">    118.47423578 </i>
    <i name="pawpsdc">  37435.04774329 </i>
    <i name="pawaedc"> -35980.54160901 </i>
    <i name="eentropy">      0.01472728 </i>
    <i name="bandstr">  -3189.22826875 </i>
    <i name="atom">  29990.50946633 </i>
    <i name="e_fr_energy">   -356.46435078 </i>
    <i name="e_wo_entrp">   -356.47907806 </i>
    <i name="e_0_energy">   -356.46925987 </i>
   </energy>
  </scstep>
  <structure>
   <crystal>
    <varray name="basis" >
     <v>       6.98043367       0.01325048      -0.00567018 </v>
     <v>       0.01944906      10.22147823       0.01035060 </v>
     <v>      -0.00837127       0.00964434      10.24183247 </v>
    </varray>
    <i name="volume">    730.75451692 </i>
    <varray name="rec_basis" >
     <v>       0.14325819      -0.00027271       0.00011735 </v>
     <v>      -0.00018579       0.09783365      -0.00009228 </v>
     <v>       0.00007950      -0.00009902       0.09763894 </v>
    </varray>
   </crystal>
   <varray name="positions" >
    <v>       0.00552856       0.99189884       0.33245435 </v>
    <v>       0.49124850       0.98998054       0.34627939 </v>
    <v>       0.74197614       0.83140844       0.18591090 </v>
    <v>       0.23423834       0.16949631       0.49001747 </v>
    <v>       0.50498887       0.33903862       0.34887445 </v>
    <v>       0.26569719       0.49928853       0.84792965 </v>
    <v>       0.98524459       0.33953327       0.32358928 </v>
    <v>       0.01800027       0.33908214       0.66927653 </v>
    <v>       0.24218439       0.83439440       0.48425650 </v>
    <v>       0.48060745       0.33552304       0.98879424 </v>
    <v>       0.26075191       0.16820622       0.17599676 </v>
    <v>       0.98396019       0.00542563       0.01089481 </v>
    <v>       0.76183385       0.16362156       0.50147570 </v>
    <v>       0.76478498       0.17120979       0.82047018 </v>
    <v>       0.51877850       0.99701790       0.99601153 </v>
    <v>       0.72496393       0.17776197       0.17786095 </v>
    <v>       0.73821217       0.49127635       0.82903910 </v>
    <v>       0.48820921       0.66266733       0.65185965 </v>
    <v>       0.48144729       0.33175542       0.65946538 </v>
    <v>       0.76496216       0.83750820       0.81285567 </v>
    <v>       0.23494034       0.17131038       0.83335146 </v>
    <v>       0.73002431       0.49722973       0.17655860 </v>
    <v>       0.53114430       0.66779878       0.01185934 </v>
    <v>       0.04291025       0.00502942       0.66145454 </v>
    <v>       0.51586727       0.66952794       0.33897771 </v>
    <v>       0.76541839       0.49857321       0.48876121 </v>
    <v>       0.98252030       0.66872925       0.32592124 </v>
    <v>       0.26356787       0.50510658       0.17058876 </v>
    <v>       0.00388970       0.33747458       0.00360019 </v>
    <v>       0.97165362       0.66098837       0.00982438 </v>
    <v>       0.25791959       0.82651861       0.16878886 </v>
    <v>       0.46783437       0.00299096       0.66118624 </v>
    <v>       0.76434604       0.83871005       0.50324386 </v>
    <v>       0.23276918       0.49575722       0.47490243 </v>
    <v>       0.02574607       0.65274865       0.66627282 </v>
    <v>       0.25183292       0.82541376       0.85139088 </v>
   </varray>
  </structure>
  <varray name="forces" >
   <v>      -0.00207555      -0.02588330      -0.01198386 </v>
   <v>      -0.01809497       0.00749575       0.00019355 </v>
   <v>      -0.01178775      -0.01192456       0.01037947 </v>
   <v>      -0.00475180      -0.01632693       0.00903085 </v>
   <v>       0.00853603      -0.01107678      -0.01576505 </v>
   <v>      -0.01502058       0.01125406      -0.01800039 </v>
   <v>      -0.00688117       0.01944391      -0.00616028 </v>
   <v>      -0.00529523       0.00005575       0.00929616 </v>
   <v>       0.00631291      -0.02175198      -0.00938446 </v>
   <v>      -0.00612679      -0.00178636       0.00408052 </v>
   <v>      -0.03062140      -0.00182771       0.01037845 </v>
   <v>       0.00381810       0.01500096      -0.02028483 </v>
   <v>       0.02465118      -0.00607284      -0.01012039 </v>
   <v>      -0.00952126       0.00383014      -0.00538910 </v>
   <v>      -0.00282249       0.01773825      -0.00785348 </v>
   <v>       0.00939252      -0.00230351      -0.00049701 </v>
   <v>       0.03636849       0.02136338       0.01330226 </v>
   <v>      -0.01619960       0.00828356       0.03304638 </v>
   <v>       0.01519418      -0.01446779       0.01932363 </v>
   <v>       0.00805340      -0.02701368       0.02223374 </v>
   <v>       0.00272059       0.00860120      -0.00184998 </v>
   <v>      -0.01434923      -0.02289941      -0.01169471 </v>
   <v>       0.00463209       0.00412456      -0.04208387 </v>
   <v>      -0.00034349      -0.00696002      -0.00119550 </v>
   <v>       0.00295536       0.00583942      -0.01515594 </v>
   <v>      -0.02614272      -0.00996389       0.01961041 </v>
   <v>      -0.00315108       0.01943261      -0.00957239 </v>
   <v>       0.01819360       0.00194633       0.01356633 </v>
   <v>       0.00617966      -0.01034501       0.00928283 </v>
   <v>      -0.02479215       0.03142964      -0.00122456 </v>
   <v>       0.01263358      -0.01229935       0.02366334 </v>
   <v>       0.00550238       0.01008011      -0.00404781 </v>
   <v>      -0.00569715       0.00705076       0.02378123 </v>
   <v>       0.03475909       0.01309748      -0.00759029 </v>
   <v>       0.02176093       0.01170727      -0.01454869 </v>
   <v>      -0.01798968      -0.01487200      -0.00676656 </v>
  </varray>
  <varray name="stress" >
   <v>       1.25151039       0.63278680      -0.17324225 </v>
   <v>       0.63278680       1.19373356       0.53875684 </v>
   <v>      -0.17324223       0.53875689       1.35248443 </v>
  </varray>
  <energy>
   <i name="e_fr_energy">   -356.46435078 </i>
   <i name="e_wo_entrp">   -356.46925987 </i>
   <i name="e_0_energy">      0.01472728 </i>
  </energy>
  <time name="totalsc">    7.18    7.80</time>
 </calculation>
 <calculation>
  <scstep>
   <time name="dav">    1.07    1.08</time>
   <time name="total">    1.16    1.34</time>
   <energy>
    <i name="alphaZ">   1654.27487731 </i>
    <i name="ewald"> -22321.81366920 </i>
    <i name="hartreedc">  -8047.38044812 </i>
    <i name="XCdc">    117.82732286 </i>
    <i name="pawpsdc">  37434.86898818 </i>
    <i name="pawaedc"> -35980.35730479 </i>
    <i name="eentropy">      0.01488874 </i>
    <i name="bandstr">  -3204.41701653 </i>
    <i name="atom">  29990.50946633 </i>
    <i name="e_fr_energy">   -356.47289522 </i>
    <i name="e_wo_entrp">   -356.48778396 </i>
    <i name="e_0_energy">   -356.47785814 </i>
   </energy>
  </scstep>
  <scstep>
   <time name="diag">    0.08    0.08</time>
   <time name="diis">    0.78    0.80</time>
   <time name="orth">    0.01    0.01</time>
   <time name="total">    0.95    1.01</time>
   <energy>
    <i name="e_fr_energy">   -356.46988275 </i>
    <i name="e_wo_entrp">   -356.48473555 </i>
    <i name="e_0_energy">   -356.47483369 </i>
   </energy>
  </scstep>
  <scstep>
   <time name="diag">    0.08    0.09</time>
   <time name="diis">    0.83    0.84</time>
   <time name="orth">    0.01    0.01</time>
   <time name="total">    0.99    1.07</time>
   <energy>
    <i name="e_fr_energy">   -356.46739012 </i>
    <i name="e_wo_entrp">   -356.48217112 </i>
    <i name="e_0_energy">   -356.47231712 </i>
   </energy>
  </scstep>
  <scstep>
   <time name="diag">    0.08    0.08</time>
   <time name="diis">    0.83    0.84</time>
   <time name="orth">    0.01    0.01</time>
   <time name="total">    0.99    1.04</time>
   <energy>
    <i name="e_fr_energy">   -356.46591882 </i>
    <i name="e_wo_entrp">   -356.48099711 </i>
    <i name="e_0_energy">   -356.47094492 </i>
   </energy>
  </scstep>
  <scstep>
   <time name="diag">    0.08    0.08</time>
   <time name="diis">    0.83    0.83</time>
   <time name="orth">    0.01    0.01</time>
   <time name="total">    1.08    1.13</time>
   <energy>
    <i name="e_fr_energy">   -356.46568692 </i>
    <i name="e_wo_entrp">   -356.48056157 </i>
    <i name="e_0_energy">   -356.47064514 </i>
   </energy>
  </scstep>
  <scstep>
   <time name="diag">    0.13    0.13</time>
   <time name="diis">    0.79    0.79</time>
   <time name="orth">    0.01    0.01</time>
   <time name="total">    0.99    1.04</time>
   <energy>
    <i name="e_fr_energy">   -356.46569586 </i>
    <i name="e_wo_entrp">   -356.48065701 </i>
    <i name="e_0_energy">   -356.47068291 </i>
   </energy>
  </scstep>
  <scstep>
   <time name="diag">    0.12    0.12</time>
   <time name="diis">    0.75    0.75</time>
   <time name="orth">    0.01    0.01</time>
   <time name="total">    0.96    1.01</time>
   <energy>
    <i name="e_fr_energy">   -356.46567362 </i>
    <i name="e_wo_entrp">   -356.48063341 </i>
    <i name="e_0_energy">   -356.47066022 </i>
   </energy>
  </scstep>
  <scstep>
   <time name="diag">    0.08    0.08</time>
   <time name="diis">    0.64    0.64</time>
   <time name="orth">    0.01    0.01</time>
   <time name="total">    0.80    0.85</time>
   <energy>
    <i name="e_fr_energy">   -356.46567366 </i>
    <i name="e_wo_entrp">   -356.48061051 </i>
    <i name="e_0_energy">   -356.47065261 </i>
   </energy>
  </scstep>
  <scstep>
   <time name="diag">    0.08    0.08</time>
   <time name="diis">    0.50    0.50</time>
   <time name="orth">    0.01    0.01</time>
   <time name="total">    0.63    0.67</time>
   <energy>
    <i name="alphaZ">   1654.27487731 </i>
    <i name="ewald"> -22321.81366920 </i>
    <i name="hartreedc">  -8056.67936381 </i>
    <i name="XCdc">    118.24901981 </i>
    <i name="pawpsdc">  37349.61231299 </i>
    <i name="pawaedc"> -35895.00979956 </i>
    <i name="eentropy">      0.01494898 </i>
    <i name="bandstr">  -3195.62346795 </i>
    <i name="atom">  29990.50946633 </i>
    <i name="e_fr_energy">   -356.46567510 </i>
    <i name="e_wo_entrp">   -356.48062408 </i>
    <i name="e_0_energy">   -356.47065809 </i>
   </energy>
  </scstep>
  <structure>
   <crystal>
    <varray name="basis" >
     <v>       6.98519238       0.01477920      -0.00575193 </v>
     <v>       0.02169255      10.22634406       0.01167655 </v>
     <v>      -0.00849138       0.01096850      10.24916271 </v>
    </varray>
    <i name="volume">    732.12355791 </i>
    <varray name="rec_basis" >
     <v>       0.14316072      -0.00030381       0.00011893 </v>
     <v>      -0.00020698       0.09778722      -0.00010482 </v>
     <v>       0.00008058      -0.00011158       0.09756913 </v>
    </varray>
   </crystal>
   <varray name="positions" >
    <v>       0.00550534       0.99146478       0.33240724 </v>
    <v>       0.49112401       0.99005067       0.34627969 </v>
    <v>       0.74164651       0.83153202       0.18580375 </v>
    <v>       0.23415812       0.16943434       0.49004591 </v>
    <v>       0.50503718       0.33895386       0.34878662 </v>
    <v>       0.26563110       0.49932978       0.84785503 </v>
    <v>       0.98524002       0.33984689       0.32358191 </v>
    <v>       0.01792539       0.33904870       0.66933177 </v>
    <v>       0.24222913       0.83431785       0.48422135 </v>
    <v>       0.48055525       0.33552347       0.98877786 </v>
    <v>       0.26054278       0.16819033       0.17605655 </v>
    <v>       0.98398765       0.00554699       0.01076868 </v>
    <v>       0.76201070       0.16359076       0.50140742 </v>
    <v>       0.76478683       0.17123370       0.82046984 </v>
    <v>       0.51880763       0.99707031       0.99599523 </v>
    <v>       0.72502698       0.17775988       0.17787435 </v>
    <v>       0.73842522       0.49133680       0.82908627 </v>
    <v>       0.48810347       0.66270525       0.65206774 </v>
    <v>       0.48157209       0.33170235       0.65955004 </v>
    <v>       0.76498461       0.83739506       0.81292838 </v>
    <v>       0.23490620       0.17133766       0.83334270 </v>
    <v>       0.72996817       0.49719849       0.17652893 </v>
    <v>       0.53111136       0.66780282       0.01163311 </v>
    <v>       0.04290942       0.00501667       0.66148379 </v>
    <v>       0.51619139       0.66955078       0.33891023 </v>
    <v>       0.76526768       0.49854299       0.48887637 </v>
    <v>       0.98213931       0.66867937       0.32583938 </v>
    <v>       0.26370937       0.50515827       0.17067822 </v>
    <v>       0.00393091       0.33739031       0.00361194 </v>
    <v>       0.97156741       0.66115501       0.01011893 </v>
    <v>       0.25806602       0.82645755       0.16882758 </v>
    <v>       0.46784988       0.00304684       0.66117604 </v>
    <v>       0.76427595       0.83874681       0.50336281 </v>
    <v>       0.23318094       0.49571402       0.47495634 </v>
    <v>       0.02590670       0.65280302       0.66597110 </v>
    <v>       0.25172230       0.82536763       0.85138190 </v>
   </varray>
  </structure>
  <varray name="forces" >
   <v>       0.00019777      -0.01961075      -0.00613925 </v>
   <v>      -0.01880730      -0.00059944       0.00216418 </v>
   <v>      -0.00856960      -0.01855933       0.01515518 </v>
   <v>      -0.00533557      -0.01498761       0.00997741 </v>
   <v>       0.01177973      -0.00420026      -0.00738498 </v>
   <v>      -0.01330206       0.00587890      -0.01343868 </v>
   <v>      -0.01006448       0.01778605      -0.00323257 </v>
   <v>       0.00044349       0.00273018       0.00524803 </v>
   <v>       0.00464046      -0.01248326      -0.01064965 </v>
   <v>      -0.01199743       0.00165920       0.00277052 </v>
   <v>      -0.02697610      -0.00254609       0.01418642 </v>
   <v>       0.00299071       0.00915106      -0.01598432 </v>
   <v>       0.02419176      -0.00618684      -0.01005770 </v>
   <v>      -0.00441852       0.00538195      -0.00656645 </v>
   <v>      -0.00933772       0.01602572      -0.00558538 </v>
   <v>       0.00889868       0.00235081       0.00029646 </v>
   <v>       0.03473612       0.02118314       0.01308370 </v>
   <v>      -0.01689329       0.00575751       0.02644826 </v>
   <v>       0.01040410      -0.01330094       0.01666079 </v>
   <v>       0.00974842      -0.02110178       0.01767567 </v>
   <v>       0.00011831       0.00834589      -0.00729916 </v>
   <v>      -0.01780571      -0.01692297      -0.01163845 </v>
   <v>       0.00921898       0.00126777      -0.02989404 </v>
   <v>       0.00850009      -0.00486841      -0.00325035 </v>
   <v>       0.00350535       0.00087404      -0.00909703 </v>
   <v>      -0.02132882      -0.01091494       0.00789599 </v>
   <v>       0.00219721       0.01926775      -0.00304102 </v>
   <v>       0.01703661      -0.00004267       0.00674792 </v>
   <v>       0.01290074      -0.00405594       0.00937421 </v>
   <v>      -0.02882422       0.02316795      -0.00408255 </v>
   <v>       0.00929857      -0.01145913       0.02111442 </v>
   <v>      -0.00188369       0.00783168      -0.00518532 </v>
   <v>      -0.00436260       0.00814861       0.01428561 </v>
   <v>       0.02494454       0.01384293      -0.01706030 </v>
   <v>       0.02279722       0.00399403      -0.00784163 </v>
   <v>      -0.01864176      -0.01280481      -0.00565595 </v>
  </varray>
  <varray name="stress" >
   <v>      -0.92405833       0.42786219      -0.16019972 </v>
   <v>       0.42786220      -1.01429526       0.45311052 </v>
   <v>      -0.16019973       0.45311053      -0.90798321 </v>
  </varray>
  <energy>
   <i name="e_fr_energy">   -356.46567510 </i>
   <i name="e_wo_entrp">   -356.47065809 </i>
   <i name="e_0_energy">      0.01494898 </i>
  </energy>
  <time name="totalsc">   10.32   11.06</time>
 </calculation>
 <calculation>
  <scstep>
   <time name="dav">    1.07    1.08</time>
   <time name="total">    1.15    1.37</time>
   <energy>
    <i name="alphaZ">   1653.77583189 </i>
    <i name="ewald"> -22319.99176568 </i>
    <i name="hartreedc">  -8055.37839302 </i>
    <i name="XCdc">    118.14162022 </i>
    <i name="pawpsdc">  37349.83068132 </i>
    <i name="pawaedc"> -35895.32289462 </i>
    <i name="eentropy">      0.01498090 </i>
    <i name="bandstr">  -3198.04535371 </i>
    <i name="atom">  29990.50946633 </i>
    <i name="e_fr_energy">   -356.46582637 </i>
    <i name="e_wo_entrp">   -356.48080727 </i>
    <i name="e_0_energy">   -356.47082000 </i>
[...]
       <r>    7.2780    1.0000 </r>
       <r>    7.3247    1.0000 </r>
       <r>    7.3471    1.0000 </r>
       <r>    7.3940    1.0000 </r>
       <r>    7.4306    1.0000 </r>
       <r>    7.4988    1.0001 </r>
       <r>    7.5263    1.0003 </r>
       <r>    7.5555    1.0007 </r>
       <r>    7.5778    1.0014 </r>
       <r>    7.6203    1.0044 </r>
       <r>    7.6632    1.0113 </r>
       <r>    7.6814    1.0157 </r>
       <r>    7.7204    1.0273 </r>
       <r>    7.7548    1.0350 </r>
       <r>    7.7782    1.0336 </r>
       <r>    7.8195    1.0013 </r>
       <r>    7.8503    0.9379 </r>
       <r>    7.8950    0.7731 </r>
       <r>    7.9293    0.5969 </r>
       <r>    7.9439    0.5151 </r>
       <r>    7.9874    0.2790 </r>
       <r>    8.0327    0.0921 </r>
       <r>    8.0833   -0.0133 </r>
       <r>    8.1024   -0.0287 </r>
       <r>    8.1222   -0.0350 </r>
       <r>    8.1590   -0.0312 </r>
       <r>    8.2029   -0.0182 </r>
       <r>    8.2351   -0.0102 </r>
       <r>    8.2971   -0.0023 </r>
       <r>    8.3251   -0.0010 </r>
       <r>    8.3710   -0.0002 </r>
       <r>    8.4164   -0.0000 </r>
       <r>    8.4403   -0.0000 </r>
       <r>    8.4806   -0.0000 </r>
       <r>    8.5589   -0.0000 </r>
       <r>    8.6195   -0.0000 </r>
       <r>    8.6679   -0.0000 </r>
       <r>    8.7205   -0.0000 </r>
       <r>    8.7798   -0.0000 </r>
       <r>    8.8394   -0.0000 </r>
       <r>    8.9207   -0.0000 </r>
       <r>    9.0506   -0.0000 </r>
       <r>    9.1756   -0.0000 </r>
       <r>    9.2668   -0.0000 </r>
       <r>    9.7005   -0.0000 </r>
       <r>    9.8096   -0.0000 </r>
       <r>    9.8486   -0.0000 </r>
       <r>    9.9017   -0.0000 </r>
       <r>    9.9603   -0.0000 </r>
      </set>
     </set>
    </set>
   </array>
  </eigenvalues>
  <separator name="orbital magnetization" >
   <v name="MAGDIPOLOUT">      0.00000000      0.00000000      0.00000000</v>
  </separator>
  <dos>
   <i name="efermi">      7.94660205 </i>
   <total>
    <array>
     <dimension dim="1">gridpoints</dimension>
     <dimension dim="2">spin</dimension>
     <field>energy</field>
     <field>total</field>
     <field>integrated</field>
     <set>
      <set comment="spin 1">
       <r>   -49.2069     0.0000     0.0000 </r>
       <r>   -49.0002     0.0000     0.0000 </r>
       <r>   -48.7935     0.0000     0.0000 </r>
       <r>   -48.5868     0.0000     0.0000 </r>
       <r>   -48.3802     0.0000     0.0000 </r>
       <r>   -48.1735     0.0000     0.0000 </r>
       <r>   -47.9668     0.0000     0.0000 </r>
       <r>   -47.7602    -0.0000    -0.0000 </r>
       <r>   -47.5535    -0.0000    -0.0000 </r>
       <r>   -47.3468    -0.0000    -0.0000 </r>
       <r>   -47.1402    -0.0000    -0.0000 </r>
       <r>   -46.9335    -0.0000    -0.0000 </r>
       <r>   -46.7268    -0.0535    -0.0111 </r>
       <r>   -46.5201    -1.5826    -0.3381 </r>
       <r>   -46.3135    33.4958     6.5844 </r>
       <r>   -46.1068    60.0383    18.9926 </r>
       <r>   -45.9001     5.4324    20.1153 </r>
       <r>   -45.6935    -0.5556    20.0004 </r>
       <r>   -45.4868    -0.0021    20.0000 </r>
       <r>   -45.2801    -0.0000    20.0000 </r>
       <r>   -45.0735    -0.0000    20.0000 </r>
       <r>   -44.8668     0.0000    20.0000 </r>
       <r>   -44.6601     0.0000    20.0000 </r>
       <r>   -44.4534     0.0000    20.0000 </r>
       <r>   -44.2468     0.0000    20.0000 </r>
       <r>   -44.0401     0.0000    20.0000 </r>
       <r>   -43.8334     0.0000    20.0000 </r>
       <r>   -43.6268     0.0000    20.0000 </r>
       <r>   -43.4201     0.0000    20.0000 </r>
       <r>   -43.2134     0.0000    20.0000 </r>
       <r>   -43.0068     0.0000    20.0000 </r>
       <r>   -42.8001     0.0000    20.0000 </r>
       <r>   -42.5934     0.0000    20.0000 </r>
       <r>   -42.3867     0.0000    20.0000 </r>
       <r>   -42.1801     0.0000    20.0000 </r>
       <r>   -41.9734     0.0000    20.0000 </r>
       <r>   -41.7667     0.0000    20.0000 </r>
       <r>   -41.5601    -0.0000    20.0000 </r>
       <r>   -41.3534    -0.0000    20.0000 </r>
       <r>   -41.1467    -0.0000    20.0000 </r>
       <r>   -40.9401    -0.0000    20.0000 </r>
       <r>   -40.7334    -0.0076    19.9984 </r>
       <r>   -40.5267    -1.3353    19.7225 </r>
       <r>   -40.3200    17.9848    23.4394 </r>
       <r>   -40.1134    75.1356    38.9677 </r>
       <r>   -39.9067     5.6270    40.1306 </r>
       <r>   -39.7000    -0.6302    40.0003 </r>
       <r>   -39.4934    -0.0016    40.0000 </r>
       <r>   -39.2867    -0.0000    40.0000 </r>
       <r>   -39.0800    -0.0000    40.0000 </r>
       <r>   -38.8734     0.0000    40.0000 </r>
       <r>   -38.6667     0.0000    40.0000 </r>
       <r>   -38.4600     0.0000    40.0000 </r>
       <r>   -38.2533     0.0000    40.0000 </r>
       <r>   -38.0467     0.0000    40.0000 </r>
       <r>   -37.8400     0.0000    40.0000 </r>
       <r>   -37.6333     0.0000    40.0000 </r>
       <r>   -37.4267     0.0000    40.0000 </r>
       <r>   -37.2200     0.0000    40.0000 </r>
       <r>   -37.0133     0.0000    40.0000 </r>
       <r>   -36.8067     0.0000    40.0000 </r>
       <r>   -36.6000     0.0000    40.0000 </r>
       <r>   -36.3933     0.0000    40.0000 </r>
       <r>   -36.1866     0.0000    40.0000 </r>
       <r>   -35.9800     0.0000    40.0000 </r>
       <r>   -35.7733     0.0000    40.0000 </r>
       <r>   -35.5666     0.0000    40.0000 </r>
       <r>   -35.3600     0.0000    40.0000 </r>
       <r>   -35.1533     0.0000    40.0000 </r>
       <r>   -34.9466     0.0000    40.0000 </r>
       <r>   -34.7400     0.0000    40.0000 </r>
       <r>   -34.5333     0.0000    40.0000 </r>
       <r>   -34.3266     0.0000    40.0000 </r>
       <r>   -34.1199     0.0000    40.0000 </r>
       <r>   -33.9133     0.0000    40.0000 </r>
       <r>   -33.7066     0.0000    40.0000 </r>
       <r>   -33.4999     0.0000    40.0000 </r>
       <r>   -33.2933     0.0000    40.0000 </r>
       <r>   -33.0866     0.0000    40.0000 </r>
       <r>   -32.8799     0.0000    40.0000 </r>
       <r>   -32.6732     0.0000    40.0000 </r>
       <r>   -32.4666     0.0000    40.0000 </r>
       <r>   -32.2599     0.0000    40.0000 </r>
       <r>   -32.0532     0.0000    40.0000 </r>
       <r>   -31.8466     0.0000    40.0000 </r>
       <r>   -31.6399     0.0000    40.0000 </r>
       <r>   -31.4332     0.0000    40.0000 </r>
       <r>   -31.2266     0.0000    40.0000 </r>
       <r>   -31.0199     0.0000    40.0000 </r>
       <r>   -30.8132     0.0000    40.0000 </r>
       <r>   -30.6065     0.0000    40.0000 </r>
       <r>   -30.3999     0.0000    40.0000 </r>
       <r>   -30.1932     0.0000    40.0000 </r>
       <r>   -29.9865     0.0000    40.0000 </r>
       <r>   -29.7799     0.0000    40.0000 </r>
       <r>   -29.5732     0.0000    40.0000 </r>
       <r>   -29.3665     0.0000    40.0000 </r>
       <r>   -29.1599     0.0000    40.0000 </r>
       <r>   -28.9532     0.0000    40.0000 </r>
       <r>   -28.7465     0.0000    40.0000 </r>
       <r>   -28.5398     0.0000    40.0000 </r>
       <r>   -28.3332     0.0000    40.0000 </r>
       <r>   -28.1265     0.0000    40.0000 </r>
       <r>   -27.9198     0.0000    40.0000 </r>
       <r>   -27.7132     0.0000    40.0000 </r>
       <r>   -27.5065     0.0000    40.0000 </r>
       <r>   -27.2998     0.0000    40.0000 </r>
       <r>   -27.0932     0.0000    40.0000 </r>
       <r>   -26.8865     0.0000    40.0000 </r>
       <r>   -26.6798     0.0000    40.0000 </r>
       <r>   -26.4731     0.0000    40.0000 </r>
       <r>   -26.2665     0.0000    40.0000 </r>
       <r>   -26.0598     0.0000    40.0000 </r>
       <r>   -25.8531     0.0000    40.0000 </r>
       <r>   -25.6465     0.0000    40.0000 </r>
       <r>   -25.4398     0.0000    40.0000 </r>
       <r>   -25.2331     0.0000    40.0000 </r>
       <r>   -25.0265     0.0000    40.0000 </r>
       <r>   -24.8198     0.0000    40.0000 </r>
       <r>   -24.6131     0.0000    40.0000 </r>
       <r>   -24.4064     0.0000    40.0000 </r>
       <r>   -24.1998    -0.0000    40.0000 </r>
       <r>   -23.9931    -0.0000    40.0000 </r>
       <r>   -23.7864    -0.0000    40.0000 </r>
       <r>   -23.5798    -0.0000    40.0000 </r>
       <r>   -23.3731    -0.0000    40.0000 </r>
       <r>   -23.1664    -0.0396    39.9918 </r>
       <r>   -22.9598    -0.8840    39.8091 </r>
       <r>   -22.7531    20.0529    43.9534 </r>
       <r>   -22.5464    49.7871    54.2430 </r>
       <r>   -22.3397   101.7888    75.2797 </r>
       <r>   -22.1331    83.9313    92.6258 </r>
       <r>   -21.9264    33.9555    99.6434 </r>
       <r>   -21.7197     1.9979   100.0563 </r>
       <r>   -21.5131    -0.2715   100.0001 </r>
       <r>   -21.3064    -0.0006   100.0000 </r>
       <r>   -21.0997    -0.0000   100.0000 </r>
       <r>   -20.8931    -0.0000   100.0000 </r>
       <r>   -20.6864     0.0000   100.0000 </r>
       <r>   -20.4797     0.0000   100.0000 </r>
       <r>   -20.2730     0.0000   100.0000 </r>
       <r>   -20.0664    -0.0000   100.0000 </r>
       <r>   -19.8597    -0.0000   100.0000 </r>
       <r>   -19.6530    -0.0000   100.0000 </r>
       <r>   -19.4464    -0.0000   100.0000 </r>
       <r>   -19.2397    -0.0018    99.9996 </r>
       <r>   -19.0330    -0.3098    99.9356 </r>
       <r>   -18.8264     2.8354   100.5216 </r>
       <r>   -18.6197    32.1435   107.1647 </r>
       <r>   -18.4130    67.5795   121.1313 </r>
       <r>   -18.2063   102.2870   142.2710 </r>
       <r>   -17.9997    79.6377   158.7298 </r>
       <r>   -17.7930     6.8895   160.1536 </r>
       <r>   -17.5863    -0.7406   160.0005 </r>
       <r>   -17.3797    -0.0026   160.0000 </r>
       <r>   -17.1730    -0.0000   160.0000 </r>
       <r>   -16.9663    -0.0000   160.0000 </r>
       <r>   -16.7596     0.0000   160.0000 </r>
       <r>   -16.5530     0.0000   160.0000 </r>
       <r>   -16.3463     0.0000   160.0000 </r>
       <r>   -16.1396     0.0000   160.0000 </r>
       <r>   -15.9330     0.0000   160.0000 </r>
       <r>   -15.7263     0.0000   160.0000 </r>
       <r>   -15.5196     0.0000   160.0000 </r>
       <r>   -15.3130     0.0000   160.0000 </r>
       <r>   -15.1063     0.0000   160.0000 </r>
       <r>   -14.8996     0.0000   160.0000 </r>
       <r>   -14.6929     0.0000   160.0000 </r>
       <r>   -14.4863     0.0000   160.0000 </r>
       <r>   -14.2796     0.0000   160.0000 </r>
       <r>   -14.0729     0.0000   160.0000 </r>
       <r>   -13.8663     0.0000   160.0000 </r>
       <r>   -13.6596     0.0000   160.0000 </r>
       <r>   -13.4529     0.0000   160.0000 </r>
       <r>   -13.2463     0.0000   160.0000 </r>
       <r>   -13.0396     0.0000   160.0000 </r>
       <r>   -12.8329     0.0000   160.0000 </r>
       <r>   -12.6262     0.0000   160.0000 </r>
       <r>   -12.4196     0.0000   160.0000 </r>
       <r>   -12.2129     0.0000   160.0000 </r>
       <r>   -12.0062     0.0000   160.0000 </r>
       <r>   -11.7996     0.0000   160.0000 </r>
       <r>   -11.5929     0.0000   160.0000 </r>
       <r>   -11.3862     0.0000   160.0000 </r>
       <r>   -11.1796     0.0000   160.0000 </r>
       <r>   -10.9729     0.0000   160.0000 </r>
       <r>   -10.7662     0.0000   160.0000 </r>
       <r>   -10.5595     0.0000   160.0000 </r>
       <r>   -10.3529     0.0000   160.0000 </r>
       <r>   -10.1462     0.0000   160.0000 </r>
       <r>    -9.9395     0.0000   160.0000 </r>
       <r>    -9.7329     0.0000   160.0000 </r>
       <r>    -9.5262     0.0000   160.0000 </r>
       <r>    -9.3195     0.0000   160.0000 </r>
       <r>    -9.1129     0.0000   160.0000 </r>
       <r>    -8.9062     0.0000   160.0000 </r>
       <r>    -8.6995     0.0000   160.0000 </r>
       <r>    -8.4928     0.0000   160.0000 </r>
       <r>    -8.2862     0.0000   160.0000 </r>
       <r>    -8.0795     0.0000   160.0000 </r>
       <r>    -7.8728     0.0000   160.0000 </r>
       <r>    -7.6662     0.0000   160.0000 </r>
       <r>    -7.4595     0.0000   160.0000 </r>
       <r>    -7.2528     0.0000   160.0000 </r>
       <r>    -7.0462     0.0000   160.0000 </r>
       <r>    -6.8395     0.0000   160.0000 </r>
       <r>    -6.6328     0.0000   160.0000 </r>
       <r>    -6.4261     0.0000   160.0000 </r>
       <r>    -6.2195     0.0000   160.0000 </r>
       <r>    -6.0128     0.0000   160.0000 </r>
       <r>    -5.8061     0.0000   160.0000 </r>
       <r>    -5.5995     0.0000   160.0000 </r>
       <r>    -5.3928     0.0000   160.0000 </r>
       <r>    -5.1861     0.0000   160.0000 </r>
       <r>    -4.9795     0.0000   160.0000 </r>
       <r>    -4.7728     0.0000   160.0000 </r>
       <r>    -4.5661     0.0000   160.0000 </r>
       <r>    -4.3594     0.0000   160.0000 </r>
       <r>    -4.1528     0.0000   160.0000 </r>
       <r>    -3.9461     0.0000   160.0000 </r>
       <r>    -3.7394     0.0000   160.0000 </r>
       <r>    -3.5328     0.0000   160.0000 </r>
       <r>    -3.3261     0.0000   160.0000 </r>
       <r>    -3.1194     0.0000   160.0000 </r>
       <r>    -2.9128     0.0000   160.0000 </r>
       <r>    -2.7061     0.0000   160.0000 </r>
       <r>    -2.4994     0.0000   160.0000 </r>
       <r>    -2.2927     0.0000   160.0000 </r>
       <r>    -2.0861     0.0000   160.0000 </r>
       <r>    -1.8794     0.0000   160.0000 </r>
       <r>    -1.6727     0.0000   160.0000 </r>
       <r>    -1.4661     0.0000   160.0000 </r>
       <r>    -1.2594     0.0000   160.0000 </r>
       <r>    -1.0527     0.0000   160.0000 </r>
       <r>    -0.8461     0.0000   160.0000 </r>
       <r>    -0.6394     0.0000   160.0000 </r>
       <r>    -0.4327     0.0000   160.0000 </r>
       <r>    -0.2260     0.0000   160.0000 </r>
       <r>    -0.0194    -0.0000   160.0000 </r>
       <r>     0.1873    -0.0000   160.0000 </r>
       <r>     0.3940    -0.0000   160.0000 </r>
       <r>     0.6006    -0.0000   160.0000 </r>
       <r>     0.8073    -0.0000   160.0000 </r>
       <r>     1.0140    -0.0052   159.9989 </r>
       <r>     1.2207     0.0436   160.0079 </r>
       <r>     1.4273     0.5975   160.1314 </r>
       <r>     1.6340     1.6944   160.4816 </r>
       <r>     1.8407     1.5548   160.8029 </r>
       <r>     2.0473     3.0797   161.4394 </r>
       <r>     2.2540     3.8457   162.2342 </r>
       <r>     2.4607     1.6660   162.5785 </r>
       <r>     2.6673     3.1721   163.2341 </r>
       <r>     2.8740     4.2947   164.1217 </r>
       <r>     3.0807     2.5854   164.6560 </r>
       <r>     3.2874     7.6056   166.2279 </r>
       <r>     3.4940     5.9548   167.4586 </r>
       <r>     3.7007     7.2573   168.9584 </r>
       <r>     3.9074     9.0129   170.8211 </r>
       <r>     4.1140     6.9574   172.2590 </r>
       <r>     4.3207    14.3437   175.2234 </r>
       <r>     4.5274    20.3219   179.4234 </r>
       <r>     4.7340    23.8425   184.3509 </r>
       <r>     4.9407    25.2814   189.5758 </r>
       <r>     5.1474    34.4947   196.7048 </r>
       <r>     5.3541    37.7647   204.5097 </r>
       <r>     5.5607    40.8009   212.9420 </r>
       <r>     5.7674    39.5051   221.1065 </r>
       <r>     5.9741    33.9308   228.1190 </r>
       <r>     6.1807    36.0847   235.5766 </r>
       <r>     6.3874    23.7636   240.4879 </r>
       <r>     6.5941    32.3775   247.1793 </r>
       <r>     6.8007    57.1169   258.9837 </r>
       <r>     7.0074    59.8512   271.3531 </r>
       <r>     7.2141    56.5846   283.0475 </r>
       <r>     7.4208    52.4244   293.8820 </r>
       <r>     7.6274    54.4589   305.1370 </r>
       <r>     7.8341    51.1398   315.7061 </r>
       <r>     8.0408    48.0802   325.6429 </r>
       <r>     8.2474    51.9969   336.3891 </r>
       <r>     8.4541    48.8584   346.4866 </r>
       <r>     8.6608    37.2961   354.1946 </r>
       <r>     8.8674    33.0584   361.0268 </r>
       <r>     9.0741    24.9101   366.1750 </r>
       <r>     9.2808    17.5163   369.7951 </r>
       <r>     9.4875    14.7138   372.8360 </r>
       <r>     9.6941    21.4289   377.2647 </r>
       <r>     9.9008    25.6345   382.5626 </r>
       <r>    10.1075     7.3964   384.0912 </r>
       <r>    10.3141    -0.4315   384.0020 </r>
       <r>    10.5208    -0.0099   384.0000 </r>
       <r>    10.7275    -0.0000   384.0000 </r>
       <r>    10.9341    -0.0000   384.0000 </r>
       <r>    11.1408     0.0000   384.0000 </r>
       <r>    11.3475     0.0000   384.0000 </r>
       <r>    11.5542     0.0000   384.0000 </r>
       <r>    11.7608     0.0000   384.0000 </r>
       <r>    11.9675     0.0000   384.0000 </r>
       <r>    12.1742     0.0000   384.0000 </r>
       <r>    12.3808     0.0000   384.0000 </r>
       <r>    12.5875     0.0000   384.0000 </r>
       <r>    12.7942     0.0000   384.0000 </r>
      </set>
     </set>
    </array>
   </total>
  </dos>
 </calculation>
 <structure name="finalpos" >
  <crystal>
   <varray name="basis" >
    <v>       6.98278777       0.01894199      -0.00735760 </v>
    <v>       0.02779242      10.22131761       0.01769566 </v>
    <v>      -0.01085427       0.01700109      10.24615579 </v>
   </varray>
   <i name="volume">    731.29354774 </i>
   <varray name="rec_basis" >
    <v>       0.14321050      -0.00038966       0.00015236 </v>
    <v>      -0.00026557       0.09783575      -0.00016262 </v>
    <v>       0.00010330      -0.00016925       0.09759797 </v>
   </varray>
  </crystal>
  <varray name="positions" >
   <v>       0.00531110       0.99042004       0.33226886 </v>
   <v>       0.49065382       0.99009476       0.34625508 </v>
   <v>       0.74066789       0.83154091       0.18584026 </v>
   <v>       0.23405593       0.16927181       0.49027893 </v>
   <v>       0.50535502       0.33855116       0.34853479 </v>
   <v>       0.26501693       0.49930639       0.84758603 </v>
   <v>       0.98494294       0.34072081       0.32360232 </v>
   <v>       0.01795979       0.33922457       0.66917656 </v>
   <v>       0.24259804       0.83406201       0.48416579 </v>
   <v>       0.48010612       0.33553932       0.98871642 </v>
   <v>       0.25924754       0.16796567       0.17676608 </v>
   <v>       0.98386224       0.00571916       0.01033853 </v>
   <v>       0.76290454       0.16342912       0.50115868 </v>
   <v>       0.76484700       0.17148598       0.82047008 </v>
   <v>       0.51787255       0.99774132       0.99588711 </v>
   <v>       0.72547986       0.17781722       0.17773076 </v>
   <v>       0.74013893       0.49183368       0.82919993 </v>
   <v>       0.48756267       0.66284061       0.65316999 </v>
   <v>       0.48239967       0.33154536       0.65993141 </v>
   <v>       0.76524961       0.83695194       0.81325059 </v>
   <v>       0.23493468       0.17147315       0.83307636 </v>
   <v>       0.72922764       0.49692082       0.17615002 </v>
   <v>       0.53113962       0.66774063       0.01059348 </v>
   <v>       0.04301421       0.00487771       0.66159734 </v>
   <v>       0.51676856       0.66949879       0.33892007 </v>
   <v>       0.76444043       0.49829415       0.48919710 </v>
   <v>       0.98183318       0.66875598       0.32603910 </v>
   <v>       0.26428051       0.50528862       0.17068202 </v>
   <v>       0.00459319       0.33722833       0.00387755 </v>
   <v>       0.97070228       0.66171378       0.01085002 </v>
   <v>       0.25839197       0.82620421       0.16894953 </v>
   <v>       0.46804236       0.00316691       0.66117303 </v>
   <v>       0.76387136       0.83884981       0.50371119 </v>
   <v>       0.23494335       0.49581658       0.47458702 </v>
   <v>       0.02686452       0.65282299       0.66494081 </v>
   <v>       0.25072293       0.82528771       0.85132217 </v>
  </varray>
 </structure>
</modeling>
