<?xml version="1.0" encoding="ISO-8859-1"?>
<modeling>
 <generator>
  <i name="program" type="string">vasp </i>
  <i name="version" type="string">5.4.1  </i>
  <i name="subversion" type="string">05Feb16 (build Jan 29 2020 16:04:39) complex                          parallel </i>
  <i name="platform" type="string">IFC91_ompi </i>
  <i name="date" type="string">2020 06 15 </i>
  <i name="time" type="string">04:00:01 </i>
 </generator>
 <incar>
  <i type="string" name="SYSTEM"> automatically generated by mexm</i>
  <i type="int" name="ISTART">     0</i>
  <i type="string" name="PREC">accurate               ! avoid wrap aro</i>
  <i type="string" name="ALGO"> Fast                   ! blocked Davids</i>
  <i type="int" name="ISPIN">     1</i>
  <i type="int" name="ICHARG">     2</i>
  <i type="int" name="NELM">    70</i>
  <i type="int" name="IBRION">     2</i>
  <i name="EDIFF">      0.00001000</i>
  <i name="EDIFFG">     -0.01000000</i>
  <i type="int" name="NSW">   300</i>
  <i type="int" name="ISIF">     3</i>
  <i type="int" name="ISYM">     1</i>
  <i name="ENCUT">    300.00000000</i>
  <i name="POTIM">      0.15000000</i>
  <i type="string" name="LREAL"> Auto                  ! unpublished met</i>
  <i type="int" name="ISMEAR">     1</i>
  <i name="SIGMA">      0.15000000</i>
  <i type="logical" name="LWAVE"> F  </i>
  <i type="logical" name="LCHARG"> F  </i>
  <i type="logical" name="LVTOT"> F  </i>
  <v type="int" name="KPOINT_BSE">    -1     0     0     0</v>
  <i type="int" name="NELM">    70</i>
 </incar>
 <kpoints>
  <generation param="Gamma">
   <v type="int" name="divisions">       3        3        3 </v>
   <v name="usershift">      0.00000000       0.00000000       0.00000000 </v>
   <v name="genvec1">      0.33333333      -0.00000000       0.00000000 </v>
   <v name="genvec2">     -0.00000000       0.33333333       0.00000000 </v>
   <v name="genvec3">      0.00000000      -0.00000000       0.33333333 </v>
   <v name="shift">      0.00000000       0.00000000       0.00000000 </v>
  </generation>
  <varray name="kpointlist" >
   <v>       0.00000000       0.00000000       0.00000000 </v>
   <v>       0.33333333       0.00000000       0.00000000 </v>
   <v>       0.00000000       0.33333333       0.00000000 </v>
   <v>       0.33333333       0.33333333       0.00000000 </v>
   <v>      -0.33333333       0.33333333       0.00000000 </v>
   <v>       0.00000000       0.00000000       0.33333333 </v>
   <v>       0.33333333       0.00000000       0.33333333 </v>
   <v>      -0.33333333       0.00000000       0.33333333 </v>
   <v>       0.00000000       0.33333333       0.33333333 </v>
   <v>       0.33333333       0.33333333       0.33333333 </v>
   <v>      -0.33333333       0.33333333       0.33333333 </v>
   <v>       0.00000000      -0.33333333       0.33333333 </v>
   <v>       0.33333333      -0.33333333       0.33333333 </v>
   <v>      -0.33333333      -0.33333333       0.33333333 </v>
  </varray>
  <varray name="weights" >
   <v>       0.03703704 </v>
   <v>       0.07407407 </v>
   <v>       0.07407407 </v>
   <v>       0.07407407 </v>
   <v>       0.07407407 </v>
   <v>       0.07407407 </v>
   <v>       0.07407407 </v>
   <v>       0.07407407 </v>
   <v>       0.07407407 </v>
   <v>       0.07407407 </v>
   <v>       0.07407407 </v>
   <v>       0.07407407 </v>
   <v>       0.07407407 </v>
   <v>       0.07407407 </v>
  </varray>
 </kpoints>
 <parameters>
  <separator name="general" >
   <i type="string" name="SYSTEM">automatically generated by mexm</i>
   <i type="logical" name="LCOMPAT"> F  </i>
  </separator>
  <separator name="electronic" >
   <i type="string" name="PREC">accura</i>
   <i name="ENMAX">    300.00000000</i>
   <i name="ENAUG">    461.25700000</i>
   <i name="EDIFF">      0.00001000</i>
   <i type="int" name="IALGO">    68</i>
   <i type="int" name="IWAVPR">    11</i>
   <i type="int" name="NBANDS">   176</i>
   <i name="NELECT">    291.00000000</i>
   <i type="int" name="TURBO">     0</i>
   <i type="int" name="IRESTART">     0</i>
   <i type="int" name="NREBOOT">     0</i>
   <i type="int" name="NMIN">     0</i>
   <i name="EREF">      0.00000000</i>
   <separator name="electronic smearing" >
    <i type="int" name="ISMEAR">     1</i>
    <i name="SIGMA">      0.15000000</i>
    <i name="KSPACING">      0.50000000</i>
    <i type="logical" name="KGAMMA"> T  </i>
   </separator>
   <separator name="electronic projectors" >
    <i type="logical" name="LREAL"> T  </i>
    <v name="ROPT">     -0.00025000     -0.00025000     -0.00025000     -0.00025000</v>
    <i type="int" name="LMAXPAW">  -100</i>
    <i type="int" name="LMAXMIX">     2</i>
    <i type="logical" name="NLSPLINE"> F  </i>
   </separator>
   <separator name="electronic startup" >
    <i type="int" name="ISTART">     0</i>
    <i type="int" name="ICHARG">     2</i>
    <i type="int" name="INIWAV">     1</i>
   </separator>
   <separator name="electronic spin" >
    <i type="int" name="ISPIN">     1</i>
    <i type="logical" name="LNONCOLLINEAR"> F  </i>
    <v name="MAGMOM">      1.00000000      1.00000000      1.00000000      1.00000000      1.00000000      1.00000000      1.00000000      1.00000000      1.00000000      1.00000000      1.00000000      1.00000000      1.00000000      1.00000000      1.00000000      1.00000000      1.00000000      1.00000000      1.00000000      1.00000000
      1.00000000      1.00000000      1.00000000      1.00000000      1.00000000      1.00000000      1.00000000      1.00000000      1.00000000      1.00000000      1.00000000      1.00000000      1.00000000      1.00000000      1.00000000      1.00000000</v>
    <i name="NUPDOWN">     -1.00000000</i>
    <i type="logical" name="LSORBIT"> F  </i>
    <v name="SAXIS">      0.00000000      0.00000000      1.00000000</v>
    <i type="logical" name="LSPIRAL"> F  </i>
    <v name="QSPIRAL">      0.00000000      0.00000000      0.00000000</v>
    <i type="logical" name="LZEROZ"> F  </i>
   </separator>
   <separator name="electronic exchange-correlation" >
    <i type="logical" name="LASPH"> F  </i>
    <i type="logical" name="LMETAGGA"> F  </i>
   </separator>
   <separator name="electronic convergence" >
    <i type="int" name="NELM">    70</i>
    <i type="int" name="NELMDL">    -5</i>
    <i type="int" name="NELMIN">     2</i>
    <i name="ENINI">    300.00000000</i>
    <separator name="electronic convergence detail" >
     <i type="logical" name="LDIAG"> T  </i>
     <i type="logical" name="LSUBROT"> F  </i>
     <i name="WEIMIN">      0.00100000</i>
     <i name="EBREAK">      0.00000001</i>
     <i name="DEPER">      0.30000000</i>
     <i type="int" name="NRMM">     4</i>
     <i name="TIME">      0.40000000</i>
    </separator>
   </separator>
   <separator name="electronic mixer" >
    <i name="AMIX">      0.40000000</i>
    <i name="BMIX">      1.00000000</i>
    <i name="AMIN">      0.10000000</i>
    <i name="AMIX_MAG">      1.60000000</i>
    <i name="BMIX_MAG">      1.00000000</i>
    <separator name="electronic mixer details" >
     <i type="int" name="IMIX">     4</i>
     <i type="logical" name="MIXFIRST"> F  </i>
     <i type="int" name="MAXMIX">   -45</i>
     <i name="WC">    100.00000000</i>
     <i type="int" name="INIMIX">     1</i>
     <i type="int" name="MIXPRE">     1</i>
     <i type="int" name="MREMOVE">     5</i>
    </separator>
   </separator>
   <separator name="electronic dipolcorrection" >
    <i type="logical" name="LDIPOL"> F  </i>
    <i type="logical" name="LMONO"> F  </i>
    <i type="int" name="IDIPOL">     0</i>
    <i name="EPSILON">      1.00000000</i>
    <v name="DIPOL">   -100.00000000   -100.00000000   -100.00000000</v>
    <i name="EFIELD">      0.00000000</i>
   </separator>
  </separator>
  <separator name="grids" >
   <i type="int" name="NGX">    40</i>
   <i type="int" name="NGY">    60</i>
   <i type="int" name="NGZ">    60</i>
   <i type="int" name="NGXF">    80</i>
   <i type="int" name="NGYF">   120</i>
   <i type="int" name="NGZF">   120</i>
   <i type="logical" name="ADDGRID"> F  </i>
  </separator>
  <separator name="ionic" >
   <i type="int" name="NSW">   300</i>
   <i type="int" name="IBRION">     2</i>
   <i type="int" name="ISIF">     3</i>
   <i name="PSTRESS">      0.00000000</i>
   <i name="EDIFFG">     -0.01000000</i>
   <i type="int" name="NFREE">     1</i>
   <i name="POTIM">      0.15000000</i>
   <i name="SMASS">     -3.00000000</i>
   <i name="SCALEE">      1.00000000</i>
  </separator>
  <separator name="ionic md" >
   <i name="TEBEG">      0.00010000</i>
   <i name="TEEND">      0.00010000</i>
   <i type="int" name="NBLOCK">     1</i>
   <i type="int" name="KBLOCK">   300</i>
   <i type="int" name="NPACO">   256</i>
   <i name="APACO">     16.00000000</i>
  </separator>
  <separator name="symmetry" >
   <i type="int" name="ISYM">     1</i>
   <i name="SYMPREC">      0.00001000</i>
  </separator>
  <separator name="dos" >
   <i type="logical" name="LORBIT"> F  </i>
   <v name="RWIGS">     -1.00000000     -1.00000000     -1.00000000     -1.00000000</v>
   <i type="int" name="NEDOS">   301</i>
   <i name="EMIN">     10.00000000</i>
   <i name="EMAX">    -10.00000000</i>
   <i name="EFERMI">      0.00000000</i>
  </separator>
  <separator name="writing" >
   <i type="int" name="NWRITE">     2</i>
   <i type="logical" name="LWAVE"> F  </i>
   <i type="logical" name="LCHARG"> F  </i>
   <i type="logical" name="LPARD"> F  </i>
   <i type="logical" name="LVTOT"> F  </i>
   <i type="logical" name="LVHAR"> F  </i>
   <i type="logical" name="LELF"> F  </i>
   <i type="logical" name="LOPTICS"> F  </i>
   <v name="STM">      0.00000000      0.00000000      0.00000000      0.00000000      0.00000000      0.00000000      0.00000000</v>
  </separator>
  <separator name="performance" >
   <i type="int" name="NPAR">     4</i>
   <i type="int" name="NSIM">     4</i>
   <i type="int" name="NBLK">    -1</i>
   <i type="logical" name="LPLANE"> T  </i>
   <i type="logical" name="LSCALAPACK"> T  </i>
   <i type="logical" name="LSCAAWARE"> F  </i>
   <i type="logical" name="LSCALU"> F  </i>
   <i type="logical" name="LASYNC"> F  </i>
   <i type="logical" name="LORBITALREAL"> F  </i>
  </separator>
  <separator name="miscellaneous" >
   <i type="int" name="IDIOT">     3</i>
   <i type="logical" name="LMUSIC"> F  </i>
   <v name="POMASS">    180.94800000     92.91000000     91.22400000    178.49000000</v>
   <v name="DARWINR">      0.00000000      0.00000000      0.00000000      0.00000000</v>
   <v name="DARWINV">      1.00000000      1.00000000      1.00000000      1.00000000</v>
   <i type="logical" name="LCORR"> T  </i>
  </separator>
  <i type="logical" name="GGA_COMPAT"> T  </i>
  <i type="logical" name="LBERRY"> F  </i>
  <i type="int" name="ICORELEVEL">     0</i>
  <i type="logical" name="LDAU"> F  </i>
  <i type="int" name="I_CONSTRAINED_M">     0</i>
  <separator name="electronic exchange-correlation" >
   <i type="string" name="GGA">--</i>
   <i type="int" name="VOSKOWN">     0</i>
   <i type="logical" name="LHFCALC"> F  </i>
   <i type="string" name="PRECFOCK"></i>
   <i type="logical" name="LSYMGRAD"> F  </i>
   <i type="logical" name="LHFONE"> F  </i>
   <i type="logical" name="LRHFCALC"> F  </i>
   <i type="logical" name="LTHOMAS"> F  </i>
   <i type="logical" name="LMODELHF"> F  </i>
   <i name="ENCUT4O">     -1.00000000</i>
   <i type="int" name="EXXOEP">     0</i>
   <i type="int" name="FOURORBIT">     0</i>
   <i name="AEXX">      0.00000000</i>
   <i name="HFALPHA">      0.00000000</i>
   <i name="MCALPHA">      0.00000000</i>
   <i name="ALDAX">      1.00000000</i>
   <i name="AGGAX">      1.00000000</i>
   <i name="ALDAC">      1.00000000</i>
   <i name="AGGAC">      1.00000000</i>
   <i type="int" name="NKREDX">     1</i>
   <i type="int" name="NKREDY">     1</i>
   <i type="int" name="NKREDZ">     1</i>
   <i type="logical" name="SHIFTRED"> F  </i>
   <i type="logical" name="ODDONLY"> F  </i>
   <i type="logical" name="EVENONLY"> F  </i>
   <i type="int" name="LMAXFOCK">     0</i>
   <i type="int" name="NMAXFOCKAE">     0</i>
   <i type="logical" name="LFOCKAEDFT"> F  </i>
   <i name="HFSCREEN">      0.00000000</i>
   <i name="HFSCREENC">      0.00000000</i>
   <i type="int" name="NBANDSGWLOW">     0</i>
  </separator>
  <separator name="vdW DFT" >
   <i type="logical" name="LUSE_VDW"> F  </i>
   <i name="Zab_VDW">     -0.84910000</i>
   <i name="PARAM1">      0.12340000</i>
   <i name="PARAM2">      1.00000000</i>
   <i name="PARAM3">      0.00000000</i>
  </separator>
  <separator name="model GW" >
   <i type="int" name="MODEL_GW">     0</i>
   <i name="MODEL_EPS0">     12.10658875</i>
   <i name="MODEL_ALPHA">      1.00000000</i>
  </separator>
  <separator name="linear response parameters" >
   <i type="logical" name="LEPSILON"> F  </i>
   <i type="logical" name="LRPA"> F  </i>
   <i type="logical" name="LNABLA"> F  </i>
   <i type="logical" name="LVEL"> F  </i>
   <i type="int" name="KINTER">     0</i>
   <i name="CSHIFT">      0.10000000</i>
   <i name="OMEGAMAX">     -1.00000000</i>
   <i name="DEG_THRESHOLD">      0.00200000</i>
  </separator>
  <separator name="orbital magnetization" >
   <i type="logical" name="NUCIND"> F  </i>
   <v name="MAGPOS">      0.00000000      0.00000000      0.00000000</v>
   <i type="logical" name="LNICSALL"> T  </i>
   <i type="logical" name="ORBITALMAG"> F  </i>
   <i type="logical" name="LMAGBLOCH"> F  </i>
   <i type="logical" name="LCHIMAG"> F  </i>
   <i type="logical" name="LGAUGE"> T  </i>
   <i type="int" name="MAGATOM">     0</i>
   <v name="MAGDIPOL">      0.00000000      0.00000000      0.00000000</v>
   <v name="AVECCONST">      0.00000000      0.00000000      0.00000000</v>
  </separator>
  <separator name="response functions" >
   <i type="logical" name="LADDER"> F  </i>
   <i type="logical" name="LFXC"> F  </i>
   <i type="logical" name="LHARTREE"> T  </i>
   <i type="int" name="IBSE">     0</i>
   <v type="int" name="KPOINT">    -1     0     0     0</v>
   <i type="logical" name="LTCTE"> F  </i>
   <i type="logical" name="LTETE"> F  </i>
   <i type="logical" name="LTRIPLET"> F  </i>
   <i type="logical" name="LFXCEPS"> F  </i>
   <i type="logical" name="LFXHEG"> F  </i>
   <i type="int" name="NATURALO">     0</i>
   <i type="logical" name="L2ORDER"> F  </i>
   <i type="logical" name="LUSEW"> F  </i>
   <i name="ENCUTGW">     -2.00000000</i>
   <i name="ENCUTGWSOFT">     -2.00000000</i>
   <i name="ENCUTLF">     -1.00000000</i>
   <i type="int" name="LMAXMP2">    -1</i>
   <i name="SCISSOR">      0.00000000</i>
   <i type="int" name="NOMEGA">     0</i>
   <i type="int" name="NOMEGAR">     0</i>
   <i type="int" name="NBANDSGW">    -1</i>
   <i type="int" name="NBANDSO">    -1</i>
   <i type="int" name="NBANDSV">    -1</i>
   <i type="int" name="NELM">    70</i>
   <i type="int" name="NELMHF">     1</i>
   <i type="int" name="DIM">     3</i>
   <i type="int" name="ANTIRES">     0</i>
   <i name="OMEGAMAX">    -30.00000000</i>
   <i name="OMEGAMIN">    -30.00000000</i>
   <i name="OMEGATL">   -200.00000000</i>
   <i type="int" name="OMEGAGRID">     0</i>
   <i name="CSHIFT">     -0.10000000</i>
   <i type="logical" name="SELFENERGY"> F  </i>
   <i type="logical" name="LSPECTRAL"> F  </i>
   <i type="logical" name="LSPECTRALGW"> F  </i>
   <i type="logical" name="LSINGLES"> F  </i>
   <i type="logical" name="LFERMIGW"> F  </i>
   <i type="logical" name="ODDONLYGW"> F  </i>
   <i type="logical" name="EVENONLYGW"> F  </i>
   <i type="int" name="NKREDLFX">     1</i>
   <i type="int" name="NKREDLFY">     1</i>
   <i type="int" name="NKREDLFZ">     1</i>
   <i type="int" name="MAXMEM">  1800</i>
   <i type="int" name="TELESCOPE">     0</i>
   <i type="int" name="TAUPAR">     1</i>
   <i type="int" name="OMEGAPAR">    -1</i>
   <i name="LAMBDA">      1.00000000</i>
  </separator>
  <separator name="External order field" >
   <i name="OFIELD_KAPPA">      0.00000000</i>
   <v name="OFIELD_K">      0.00000000      0.00000000      0.00000000</v>
   <i name="OFIELD_Q6_NEAR">      0.00000000</i>
   <i name="OFIELD_Q6_FAR">      0.00000000</i>
   <i name="OFIELD_A">      0.00000000</i>
  </separator>
 </parameters>
 <atominfo>
  <atoms>      36 </atoms>
  <types>       4 </types>
  <array name="atoms" >
   <dimension dim="1">ion</dimension>
   <field type="string">element</field>
   <field type="int">atomtype</field>
   <set>
    <rc><c>Ta</c><c>   1</c></rc>
    <rc><c>Ta</c><c>   1</c></rc>
    <rc><c>Ta</c><c>   1</c></rc>
    <rc><c>Ta</c><c>   1</c></rc>
    <rc><c>Ta</c><c>   1</c></rc>
    <rc><c>Ta</c><c>   1</c></rc>
    <rc><c>Ta</c><c>   1</c></rc>
    <rc><c>Ta</c><c>   1</c></rc>
    <rc><c>Ta</c><c>   1</c></rc>
    <rc><c>Ta</c><c>   1</c></rc>
    <rc><c>Nb</c><c>   2</c></rc>
    <rc><c>Nb</c><c>   2</c></rc>
    <rc><c>Nb</c><c>   2</c></rc>
    <rc><c>Nb</c><c>   2</c></rc>
    <rc><c>Nb</c><c>   2</c></rc>
    <rc><c>Nb</c><c>   2</c></rc>
    <rc><c>Nb</c><c>   2</c></rc>
    <rc><c>Nb</c><c>   2</c></rc>
    <rc><c>Nb</c><c>   2</c></rc>
    <rc><c>Zr</c><c>   3</c></rc>
    <rc><c>Zr</c><c>   3</c></rc>
    <rc><c>Zr</c><c>   3</c></rc>
    <rc><c>Zr</c><c>   3</c></rc>
    <rc><c>Zr</c><c>   3</c></rc>
    <rc><c>Zr</c><c>   3</c></rc>
    <rc><c>Zr</c><c>   3</c></rc>
    <rc><c>Hf</c><c>   4</c></rc>
    <rc><c>Hf</c><c>   4</c></rc>
    <rc><c>Hf</c><c>   4</c></rc>
    <rc><c>Hf</c><c>   4</c></rc>
    <rc><c>Hf</c><c>   4</c></rc>
    <rc><c>Hf</c><c>   4</c></rc>
    <rc><c>Hf</c><c>   4</c></rc>
    <rc><c>Hf</c><c>   4</c></rc>
    <rc><c>Hf</c><c>   4</c></rc>
    <rc><c>Hf</c><c>   4</c></rc>
   </set>
  </array>
  <array name="atomtypes" >
   <dimension dim="1">type</dimension>
   <field type="int">atomspertype</field>
   <field type="string">element</field>
   <field>mass</field>
   <field>valence</field>
   <field type="string">pseudopotential</field>
   <set>
    <rc><c>  10</c><c>Ta</c><c>    180.94800000</c><c>      5.00000000</c><c>  PAW_PBE Ta 17Jan2003                  </c></rc>
    <rc><c>   9</c><c>Nb</c><c>     92.91000000</c><c>     13.00000000</c><c>  PAW_PBE Nb_sv 25May2007               </c></rc>
    <rc><c>   7</c><c>Zr</c><c>     91.22400000</c><c>     12.00000000</c><c>  PAW_PBE Zr_sv 04Jan2005               </c></rc>
    <rc><c>  10</c><c>Hf</c><c>    178.49000000</c><c>      4.00000000</c><c>  PAW_PBE Hf 20Jan2003                  </c></rc>
   </set>
  </array>
 </atominfo>
 <structure name="initialpos" >
  <crystal>
   <varray name="basis" >
    <v>       6.94527888      -0.00320250      -0.00127202 </v>
    <v>      -0.00472393      10.23646107       0.00272362 </v>
    <v>      -0.00144661       0.00234451      10.21724111 </v>
   </varray>
   <i name="volume">    726.39532472 </i>
   <varray name="rec_basis" >
    <v>       0.14398273       0.00006644       0.00002037 </v>
    <v>       0.00004504       0.09769004      -0.00002241 </v>
    <v>       0.00001791      -0.00002603       0.09787379 </v>
   </varray>
  </crystal>
  <varray name="positions" >
   <v>       0.25489900       0.16204500       0.50365300 </v>
   <v>       0.01944100       0.32149200       0.33307700 </v>
   <v>       0.01999800       0.32240000       0.67415300 </v>
   <v>       0.24069800       0.49226300       0.84146300 </v>
   <v>       0.28055000       0.85809500       0.50770700 </v>
   <v>       0.72230600       0.84484200       0.51652500 </v>
   <v>       0.25239700       0.83636800       0.83678300 </v>
   <v>       0.23763000       0.81944800       0.15399900 </v>
   <v>       0.47836000       0.34002900       0.66609300 </v>
   <v>       0.49412300       0.32250600       0.99843000 </v>
   <v>       0.74942000       0.83007300       0.82512500 </v>
   <v>       0.25064700       0.17430400       0.17119700 </v>
   <v>       0.22032400       0.48533100       0.50005800 </v>
   <v>       0.01003700       0.67252700       0.99365400 </v>
   <v>       0.75271700       0.18245100       0.18015200 </v>
   <v>       0.49296200       0.00710000       0.67421800 </v>
   <v>       0.73181200       0.17952100       0.81962800 </v>
   <v>       0.76803700       0.81541000       0.15387000 </v>
   <v>       0.26834200       0.17088100       0.82805100 </v>
   <v>       0.00022600       0.00397900       0.00149900 </v>
   <v>       0.00099900       0.99617600       0.33155800 </v>
   <v>       0.99950900       0.31309100       0.99755800 </v>
   <v>       0.01558400       0.67379000       0.65724100 </v>
   <v>       0.50629500       0.99944500       0.31967200 </v>
   <v>       0.75576100       0.49985900       0.16494200 </v>
   <v>       0.49255100       0.67174800       0.99380500 </v>
   <v>       0.00997300       0.00483200       0.67112900 </v>
   <v>       0.75461400       0.48970300       0.82847100 </v>
   <v>       0.23924100       0.50349100       0.15851300 </v>
   <v>       0.00323400       0.68230900       0.34546800 </v>
   <v>       0.50187500       0.00452900       0.00702500 </v>
   <v>       0.74736800       0.17137000       0.50443400 </v>
   <v>       0.77038600       0.48434900       0.50481500 </v>
   <v>       0.49700600       0.67100600       0.33833600 </v>
   <v>       0.47999400       0.65568500       0.66121100 </v>
   <v>       0.48067000       0.33755800       0.33648600 </v>
  </varray>
 </structure>
 <calculation>
  <scstep>
   <time name="dav">    1.03    1.07</time>
   <time name="total">    1.14    1.45</time>
   <energy>
    <i name="alphaZ">   1498.85577955 </i>
    <i name="ewald"> -18886.56219852 </i>
    <i name="hartreedc">  -7039.19126442 </i>
    <i name="XCdc">   -337.30205434 </i>
    <i name="pawpsdc">  21260.90751796 </i>
    <i name="pawaedc"> -19629.43492675 </i>
    <i name="eentropy">     -0.00961883 </i>
    <i name="bandstr">   -110.95490843 </i>
    <i name="atom">  25050.67259035 </i>
    <i name="e_fr_energy">   1806.98091657 </i>
    <i name="e_wo_entrp">   1806.99053540 </i>
    <i name="e_0_energy">   1806.98412285 </i>
   </energy>
  </scstep>
  <scstep>
   <time name="dav">    1.01    1.02</time>
   <time name="total">    1.01    1.16</time>
   <energy>
    <i name="e_fr_energy">   -105.89908055 </i>
    <i name="e_wo_entrp">   -105.90519412 </i>
    <i name="e_0_energy">   -105.90111841 </i>
   </energy>
  </scstep>
  <scstep>
   <time name="dav">    1.45    1.48</time>
   <time name="total">    1.45    1.50</time>
   <energy>
    <i name="e_fr_energy">   -350.44957954 </i>
    <i name="e_wo_entrp">   -350.45565382 </i>
    <i name="e_0_energy">   -350.45160430 </i>
   </energy>
  </scstep>
  <scstep>
   <time name="dav">    1.47    1.49</time>
   <time name="total">    1.47    1.51</time>
   <energy>
    <i name="e_fr_energy">   -378.63465458 </i>
    <i name="e_wo_entrp">   -378.64509945 </i>
    <i name="e_0_energy">   -378.63813620 </i>
   </energy>
  </scstep>
  <scstep>
   <time name="dav">    1.41    1.42</time>
   <time name="total">    1.45    1.49</time>
   <energy>
    <i name="e_fr_energy">   -381.41325490 </i>
    <i name="e_wo_entrp">   -381.42518077 </i>
    <i name="e_0_energy">   -381.41723019 </i>
   </energy>
  </scstep>
  <scstep>
   <time name="diag">    0.08    0.08</time>
   <time name="diis">    0.78    0.79</time>
   <time name="orth">    0.01    0.01</time>
   <time name="total">    0.94    0.98</time>
   <energy>
    <i name="e_fr_energy">   -370.94725931 </i>
    <i name="e_wo_entrp">   -370.97451690 </i>
    <i name="e_0_energy">   -370.95634517 </i>
   </energy>
  </scstep>
  <scstep>
   <time name="diag">    0.08    0.08</time>
   <time name="diis">    0.76    0.77</time>
   <time name="orth">    0.01    0.01</time>
   <time name="total">    0.92    0.96</time>
   <energy>
    <i name="e_fr_energy">   -372.93812698 </i>
    <i name="e_wo_entrp">   -372.95011268 </i>
    <i name="e_0_energy">   -372.94212221 </i>
   </energy>
  </scstep>
  <scstep>
   <time name="diag">    0.09    0.09</time>
   <time name="diis">    0.78    0.78</time>
   <time name="orth">    0.01    0.01</time>
   <time name="total">    0.97    1.01</time>
   <energy>
    <i name="e_fr_energy">   -366.58770624 </i>
    <i name="e_wo_entrp">   -366.61668720 </i>
    <i name="e_0_energy">   -366.59736656 </i>
   </energy>
  </scstep>
  <scstep>
   <time name="diag">    0.11    0.11</time>
   <time name="diis">    0.78    0.78</time>
   <time name="orth">    0.01    0.01</time>
   <time name="total">    0.97    1.00</time>
   <energy>
    <i name="e_fr_energy">   -366.17618454 </i>
    <i name="e_wo_entrp">   -366.20444731 </i>
    <i name="e_0_energy">   -366.18560546 </i>
   </energy>
  </scstep>
  <scstep>
   <time name="diag">    0.08    0.08</time>
   <time name="diis">    0.86    0.86</time>
   <time name="orth">    0.01    0.01</time>
   <time name="total">    1.02    1.06</time>
   <energy>
    <i name="e_fr_energy">   -366.13011800 </i>
    <i name="e_wo_entrp">   -366.16150585 </i>
    <i name="e_0_energy">   -366.14058061 </i>
   </energy>
  </scstep>
  <scstep>
   <time name="diag">    0.08    0.08</time>
   <time name="diis">    0.77    0.82</time>
   <time name="orth">    0.01    0.01</time>
   <time name="total">    0.94    1.03</time>
   <energy>
    <i name="e_fr_energy">   -366.10087015 </i>
    <i name="e_wo_entrp">   -366.13102918 </i>
    <i name="e_0_energy">   -366.11092316 </i>
   </energy>
  </scstep>
  <scstep>
   <time name="diag">    0.12    0.13</time>
   <time name="diis">    0.84    0.84</time>
   <time name="orth">    0.01    0.01</time>
   <time name="total">    1.04    1.13</time>
   <energy>
    <i name="e_fr_energy">   -366.09749210 </i>
    <i name="e_wo_entrp">   -366.12818183 </i>
    <i name="e_0_energy">   -366.10772201 </i>
   </energy>
  </scstep>
  <scstep>
   <time name="diag">    0.11    0.11</time>
   <time name="diis">    0.83    0.85</time>
   <time name="orth">    0.01    0.01</time>
   <time name="total">    1.02    1.13</time>
   <energy>
    <i name="e_fr_energy">   -366.09476694 </i>
    <i name="e_wo_entrp">   -366.12521281 </i>
    <i name="e_0_energy">   -366.10491556 </i>
   </energy>
  </scstep>
  <scstep>
   <time name="diag">    0.08    0.08</time>
   <time name="diis">    0.86    0.87</time>
   <time name="orth">    0.01    0.01</time>
   <time name="total">    1.02    1.06</time>
   <energy>
    <i name="e_fr_energy">   -366.09483062 </i>
    <i name="e_wo_entrp">   -366.12544092 </i>
    <i name="e_0_energy">   -366.10503406 </i>
   </energy>
  </scstep>
  <scstep>
   <time name="diag">    0.08    0.08</time>
   <time name="diis">    0.80    0.84</time>
   <time name="orth">    0.01    0.01</time>
   <time name="total">    0.97    1.03</time>
   <energy>
    <i name="e_fr_energy">   -366.09499400 </i>
    <i name="e_wo_entrp">   -366.12542135 </i>
    <i name="e_0_energy">   -366.10513645 </i>
   </energy>
  </scstep>
  <scstep>
   <time name="diag">    0.11    0.13</time>
   <time name="diis">    0.75    0.76</time>
   <time name="orth">    0.01    0.01</time>
   <time name="total">    0.95    1.05</time>
   <energy>
    <i name="e_fr_energy">   -366.09500920 </i>
    <i name="e_wo_entrp">   -366.12552081 </i>
    <i name="e_0_energy">   -366.10517974 </i>
   </energy>
  </scstep>
  <scstep>
   <time name="diag">    0.08    0.08</time>
   <time name="diis">    0.60    0.68</time>
   <time name="orth">    0.01    0.01</time>
   <time name="total">    0.76    0.92</time>
   <energy>
    <i name="e_fr_energy">   -366.09503123 </i>
    <i name="e_wo_entrp">   -366.12551997 </i>
    <i name="e_0_energy">   -366.10519414 </i>
   </energy>
  </scstep>
  <scstep>
   <time name="diag">    0.08    0.08</time>
   <time name="diis">    0.74    0.75</time>
   <time name="orth">    0.01    0.01</time>
   <time name="total">    0.90    0.93</time>
   <energy>
    <i name="e_fr_energy">   -366.09504264 </i>
    <i name="e_wo_entrp">   -366.12555610 </i>
    <i name="e_0_energy">   -366.10521379 </i>
   </energy>
  </scstep>
  <scstep>
   <time name="diag">    0.07    0.07</time>
   <time name="diis">    0.48    0.48</time>
   <time name="orth">    0.01    0.01</time>
   <time name="total">    0.63    0.66</time>
   <energy>
    <i name="e_fr_energy">   -366.09504779 </i>
    <i name="e_wo_entrp">   -366.12556597 </i>
    <i name="e_0_energy">   -366.10522052 </i>
   </energy>
  </scstep>
  <scstep>
   <time name="diag">    0.08    0.08</time>
   <time name="diis">    0.45    0.45</time>
   <time name="orth">    0.01    0.01</time>
   <time name="total">    0.57    0.60</time>
   <energy>
    <i name="alphaZ">   1498.85577955 </i>
    <i name="ewald"> -18886.56219852 </i>
    <i name="hartreedc">  -6813.78288135 </i>
    <i name="XCdc">   -336.29443842 </i>
    <i name="pawpsdc">  33318.58320682 </i>
    <i name="pawaedc"> -31668.98598707 </i>
    <i name="eentropy">      0.03052010 </i>
    <i name="bandstr">  -2528.61164192 </i>
    <i name="atom">  25050.67259035 </i>
    <i name="e_fr_energy">   -366.09505047 </i>
    <i name="e_wo_entrp">   -366.12557057 </i>
    <i name="e_0_energy">   -366.10522384 </i>
   </energy>
  </scstep>
  <structure>
   <crystal>
    <varray name="basis" >
     <v>       6.94527888      -0.00320250      -0.00127202 </v>
     <v>      -0.00472393      10.23646107       0.00272362 </v>
     <v>      -0.00144661       0.00234451      10.21724111 </v>
    </varray>
    <i name="volume">    726.39532472 </i>
    <varray name="rec_basis" >
     <v>       0.14398273       0.00006644       0.00002037 </v>
     <v>       0.00004504       0.09769004      -0.00002241 </v>
     <v>       0.00001791      -0.00002603       0.09787379 </v>
    </varray>
   </crystal>
   <varray name="positions" >
    <v>       0.25489900       0.16204500       0.50365300 </v>
    <v>       0.01944100       0.32149200       0.33307700 </v>
    <v>       0.01999800       0.32240000       0.67415300 </v>
    <v>       0.24069800       0.49226300       0.84146300 </v>
    <v>       0.28055000       0.85809500       0.50770700 </v>
    <v>       0.72230600       0.84484200       0.51652500 </v>
    <v>       0.25239700       0.83636800       0.83678300 </v>
    <v>       0.23763000       0.81944800       0.15399900 </v>
    <v>       0.47836000       0.34002900       0.66609300 </v>
    <v>       0.49412300       0.32250600       0.99843000 </v>
    <v>       0.74942000       0.83007300       0.82512500 </v>
    <v>       0.25064700       0.17430400       0.17119700 </v>
    <v>       0.22032400       0.48533100       0.50005800 </v>
    <v>       0.01003700       0.67252700       0.99365400 </v>
    <v>       0.75271700       0.18245100       0.18015200 </v>
    <v>       0.49296200       0.00710000       0.67421800 </v>
    <v>       0.73181200       0.17952100       0.81962800 </v>
    <v>       0.76803700       0.81541000       0.15387000 </v>
    <v>       0.26834200       0.17088100       0.82805100 </v>
    <v>       0.00022600       0.00397900       0.00149900 </v>
    <v>       0.00099900       0.99617600       0.33155800 </v>
    <v>       0.99950900       0.31309100       0.99755800 </v>
    <v>       0.01558400       0.67379000       0.65724100 </v>
    <v>       0.50629500       0.99944500       0.31967200 </v>
    <v>       0.75576100       0.49985900       0.16494200 </v>
    <v>       0.49255100       0.67174800       0.99380500 </v>
    <v>       0.00997300       0.00483200       0.67112900 </v>
    <v>       0.75461400       0.48970300       0.82847100 </v>
    <v>       0.23924100       0.50349100       0.15851300 </v>
    <v>       0.00323400       0.68230900       0.34546800 </v>
    <v>       0.50187500       0.00452900       0.00702500 </v>
    <v>       0.74736800       0.17137000       0.50443400 </v>
    <v>       0.77038600       0.48434900       0.50481500 </v>
    <v>       0.49700600       0.67100600       0.33833600 </v>
    <v>       0.47999400       0.65568500       0.66121100 </v>
    <v>       0.48067000       0.33755800       0.33648600 </v>
   </varray>
  </structure>
  <varray name="forces" >
   <v>      -0.01402167       0.02379709      -0.00946047 </v>
   <v>       0.00135567       0.00892379       0.01230032 </v>
   <v>      -0.04433427       0.01818980       0.00255126 </v>
   <v>      -0.00595467      -0.00277231       0.00519295 </v>
   <v>       0.00273441      -0.00522206      -0.05851992 </v>
   <v>      -0.08249402       0.05012425       0.17743338 </v>
   <v>       0.01561138      -0.01356787       0.05219880 </v>
   <v>      -0.01173617       0.04647748      -0.00617408 </v>
   <v>       0.03711770      -0.00516295      -0.01349617 </v>
   <v>       0.03670744      -0.00010761       0.00264571 </v>
   <v>       0.03432854       0.00890271       0.01413584 </v>
   <v>       0.00977313       0.03180982       0.01721544 </v>
   <v>      -0.00329688      -0.01356634      -0.02130413 </v>
   <v>      -0.38761794       0.23964280      -0.35344763 </v>
   <v>      -0.00632515       0.00520885      -0.00727310 </v>
   <v>       0.31556849      -0.32984889       0.22883881 </v>
   <v>       0.02000518       0.02312025      -0.02085357 </v>
   <v>       0.02156880      -0.06217697      -0.02142533 </v>
   <v>      -0.01772117      -0.00393853      -0.00372764 </v>
   <v>      -0.19666459      -0.18917807      -0.22847668 </v>
   <v>       0.01052090       0.00413634       0.01451494 </v>
   <v>      -0.01080434      -0.00007536       0.00989639 </v>
   <v>      -0.27644680       0.15469684       0.28581670 </v>
   <v>       0.00568512       0.00646616      -0.00728998 </v>
   <v>      -0.00097046      -0.02161469       0.03002783 </v>
   <v>       0.36619597       0.20359978      -0.32346426 </v>
   <v>      -0.34519560      -0.26595397       0.28036251 </v>
   <v>       0.01800765       0.06394219       0.04635299 </v>
   <v>       0.01540042      -0.01177696      -0.00271111 </v>
   <v>      -0.02567541       0.00407502       0.00635983 </v>
   <v>       0.20498158      -0.21056460      -0.26321236 </v>
   <v>       0.00341372       0.00339262      -0.03310367 </v>
   <v>       0.02008347      -0.04648650      -0.04879080 </v>
   <v>      -0.00592151      -0.00829117      -0.00198266 </v>
   <v>       0.28056564       0.28194408       0.23291401 </v>
   <v>       0.01555543       0.01185497       0.00595585 </v>
  </varray>
  <varray name="stress" >
   <v>      -9.45566705      -0.26613614       0.93928159 </v>
   <v>      -0.26613609      -8.33593292       0.07144777 </v>
   <v>       0.93928158       0.07144781      -8.34720932 </v>
  </varray>
  <energy>
   <i name="e_fr_energy">   -366.09505047 </i>
   <i name="e_wo_entrp">   -366.10522384 </i>
   <i name="e_0_energy">      0.03052010 </i>
  </energy>
  <time name="totalsc">   21.70   23.33</time>
 </calculation>
 <calculation>
  <scstep>
   <time name="dav">    1.16    1.17</time>
   <time name="total">    1.26    1.44</time>
   <energy>
    <i name="alphaZ">   1506.01957360 </i>
    <i name="ewald"> -18911.83102415 </i>
    <i name="hartreedc">  -6829.36099091 </i>
    <i name="XCdc">   -334.93714476 </i>
    <i name="pawpsdc">  33318.69306945 </i>
    <i name="pawaedc"> -31669.09415292 </i>
    <i name="eentropy">      0.02984801 </i>
    <i name="bandstr">  -2496.37065309 </i>
    <i name="atom">  25050.67259035 </i>
    <i name="e_fr_energy">   -366.17888442 </i>
    <i name="e_wo_entrp">   -366.20873243 </i>
    <i name="e_0_energy">   -366.18883376 </i>
   </energy>
  </scstep>
  <scstep>
   <time name="diag">    0.08    0.08</time>
   <time name="diis">    0.83    0.84</time>
   <time name="orth">    0.01    0.01</time>
   <time name="total">    1.16    1.19</time>
   <energy>
    <i name="e_fr_energy">   -366.15981261 </i>
    <i name="e_wo_entrp">   -366.19029573 </i>
    <i name="e_0_energy">   -366.16997365 </i>
   </energy>
  </scstep>
  <scstep>
   <time name="diag">    0.08    0.08</time>
   <time name="diis">    0.80    0.80</time>
   <time name="orth">    0.01    0.01</time>
   <time name="total">    0.95    0.99</time>
   <energy>
    <i name="e_fr_energy">   -366.14115542 </i>
    <i name="e_wo_entrp">   -366.17070899 </i>
    <i name="e_0_energy">   -366.15100661 </i>
   </energy>
  </scstep>
  <scstep>
   <time name="diag">    0.07    0.08</time>
   <time name="diis">    0.85    0.86</time>
   <time name="orth">    0.01    0.01</time>
   <time name="total">    1.00    1.04</time>
   <energy>
    <i name="e_fr_energy">   -366.13351819 </i>
    <i name="e_wo_entrp">   -366.16351729 </i>
    <i name="e_0_energy">   -366.14351789 </i>
   </energy>
  </scstep>
  <scstep>
   <time name="diag">    0.08    0.08</time>
   <time name="diis">    0.78    0.78</time>
   <time name="orth">    0.01    0.01</time>
   <time name="total">    0.93    0.98</time>
   <energy>
    <i name="e_fr_energy">   -366.13246411 </i>
    <i name="e_wo_entrp">   -366.16241648 </i>
    <i name="e_0_energy">   -366.14244824 </i>
   </energy>
  </scstep>
  <scstep>
   <time name="diag">    0.07    0.07</time>
   <time name="diis">    0.81    0.81</time>
   <time name="orth">    0.01    0.01</time>
   <time name="total">    0.99    1.04</time>
   <energy>
    <i name="e_fr_energy">   -366.13257785 </i>
    <i name="e_wo_entrp">   -366.16258013 </i>
    <i name="e_0_energy">   -366.14257861 </i>
   </energy>
  </scstep>
  <scstep>
   <time name="diag">    0.12    0.12</time>
   <time name="diis">    0.79    0.80</time>
   <time name="orth">    0.01    0.01</time>
   <time name="total">    0.99    1.02</time>
   <energy>
    <i name="e_fr_energy">   -366.13272436 </i>
    <i name="e_wo_entrp">   -366.16269837 </i>
    <i name="e_0_energy">   -366.14271570 </i>
   </energy>
  </scstep>
  <scstep>
   <time name="diag">    0.07    0.08</time>
   <time name="diis">    0.73    0.74</time>
   <time name="orth">    0.01    0.01</time>
   <time name="total">    0.88    0.92</time>
   <energy>
    <i name="e_fr_energy">   -366.13281490 </i>
    <i name="e_wo_entrp">   -366.16278694 </i>
    <i name="e_0_energy">   -366.14280558 </i>
   </energy>
  </scstep>
  <scstep>
   <time name="diag">    0.07    0.08</time>
   <time name="diis">    0.67    0.68</time>
   <time name="orth">    0.01    0.01</time>
   <time name="total">    0.83    0.86</time>
   <energy>
    <i name="e_fr_energy">   -366.13289490 </i>
    <i name="e_wo_entrp">   -366.16288099 </i>
    <i name="e_0_energy">   -366.14289026 </i>
   </energy>
  </scstep>
  <scstep>
   <time name="diag">    0.07    0.08</time>
   <time name="diis">    0.59    0.63</time>
   <time name="orth">    0.01    0.01</time>
   <time name="total">    0.74    0.81</time>
   <energy>
    <i name="e_fr_energy">   -366.13296812 </i>
    <i name="e_wo_entrp">   -366.16294283 </i>
    <i name="e_0_energy">   -366.14295969 </i>
   </energy>
  </scstep>
  <scstep>
   <time name="diag">    0.08    0.08</time>
   <time name="diis">    0.50    0.51</time>
   <time name="orth">    0.01    0.01</time>
   <time name="total">    0.66    0.70</time>
   <energy>
    <i name="e_fr_energy">   -366.13299571 </i>
    <i name="e_wo_entrp">   -366.16297387 </i>
    <i name="e_0_energy">   -366.14298843 </i>
   </energy>
  </scstep>
  <scstep>
   <time name="diag">    0.08    0.08</time>
   <time name="diis">    0.42    0.42</time>
   <time name="orth">    0.01    0.01</time>
   <time name="total">    0.54    0.58</time>
   <energy>
    <i name="alphaZ">   1506.01957360 </i>
    <i name="ewald"> -18911.83102415 </i>
    <i name="hartreedc">  -6810.42195959 </i>
    <i name="XCdc">   -335.74545015 </i>
    <i name="pawpsdc">  33519.26837812 </i>
    <i name="pawaedc"> -31869.35567655 </i>
    <i name="eentropy">      0.02997775 </i>
    <i name="bandstr">  -2514.76941163 </i>
    <i name="atom">  25050.67259035 </i>
    <i name="e_fr_energy">   -366.13300225 </i>
    <i name="e_wo_entrp">   -366.16297999 </i>
    <i name="e_0_energy">   -366.14299483 </i>
   </energy>
  </scstep>
  <structure>
   <crystal>
    <varray name="basis" >
     <v>       6.93330882      -0.00353455      -0.00008108 </v>
     <v>      -0.00521188      10.22090825       0.00285197 </v>
     <v>       0.00030498       0.00247407      10.20169601 </v>
    </varray>
    <i name="volume">    722.94002666 </i>
    <varray name="rec_basis" >
     <v>       0.14423132       0.00007355      -0.00000433 </v>
     <v>       0.00004988       0.09783870      -0.00002373 </v>
     <v>       0.00000113      -0.00002735       0.09802292 </v>
    </varray>
   </crystal>
   <varray name="positions" >
    <v>       0.25486980       0.16207864       0.50363959 </v>
    <v>       0.01944384       0.32150461       0.33309442 </v>
    <v>       0.01990563       0.32242569       0.67415660 </v>
    <v>       0.24068559       0.49225907       0.84147036 </v>
    <v>       0.28055568       0.85808764       0.50762411 </v>
    <v>       0.72213420       0.84491276       0.51677630 </v>
    <v>       0.25242953       0.83634881       0.83685695 </v>
    <v>       0.23760559       0.81951371       0.15399023 </v>
    <v>       0.47843734       0.34002173       0.66607389 </v>
    <v>       0.49419949       0.32250587       0.99843376 </v>
    <v>       0.74949155       0.83008560       0.82514503 </v>
    <v>       0.25066740       0.17434898       0.17122138 </v>
    <v>       0.22031711       0.48531182       0.50002783 </v>
    <v>       0.00922940       0.67286568       0.99315315 </v>
    <v>       0.75270382       0.18245836       0.18014169 </v>
    <v>       0.49361934       0.00663378       0.67454236 </v>
    <v>       0.73185370       0.17955371       0.81959846 </v>
    <v>       0.76808188       0.81532211       0.15383968 </v>
    <v>       0.26830507       0.17087542       0.82804572 </v>
    <v>      -0.00018407       0.00371148       0.00117538 </v>
    <v>       0.00102093       0.99618185       0.33157856 </v>
    <v>       0.99948649       0.31309088       0.99757202 </v>
    <v>       0.01500816       0.67400844       0.65764573 </v>
    <v>       0.50630685       0.99945415       0.31966167 </v>
    <v>       0.75575897       0.49982843       0.16498454 </v>
    <v>       0.49331419       0.67203620       0.99334683 </v>
    <v>       0.00925350       0.00445567       0.67152615 </v>
    <v>       0.75465160       0.48979340       0.82853664 </v>
    <v>       0.23927308       0.50347436       0.15850917 </v>
    <v>       0.00318050       0.68231474       0.34547700 </v>
    <v>       0.50230187       0.00423151       0.00665229 </v>
    <v>       0.74737511       0.17137481       0.50438711 </v>
    <v>       0.77042779       0.48428330       0.50474591 </v>
    <v>       0.49699365       0.67099427       0.33833319 </v>
    <v>       0.48057899       0.65608373       0.66154089 </v>
    <v>       0.48070243       0.33757477       0.33649444 </v>
   </varray>
  </structure>
  <varray name="forces" >
   <v>      -0.01762041       0.00212011       0.00100923 </v>
   <v>      -0.01141219       0.01637967       0.01107355 </v>
   <v>      -0.04774804       0.02027442      -0.00669640 </v>
   <v>      -0.00208584       0.01159253       0.00457417 </v>
   <v>      -0.01954353      -0.01161164      -0.05163718 </v>
   <v>      -0.05391680       0.04334148       0.13828708 </v>
   <v>       0.01661941      -0.00944784       0.04082262 </v>
   <v>      -0.00010232       0.04352490      -0.00899688 </v>
   <v>       0.04044144      -0.00060834      -0.02039050 </v>
   <v>       0.02928693       0.00865145       0.01457758 </v>
   <v>       0.03025193       0.00266261       0.02003910 </v>
   <v>       0.01027811       0.00364091       0.00426497 </v>
   <v>       0.00645305       0.01800415      -0.00667130 </v>
   <v>      -0.35118926       0.19486400      -0.30907742 </v>
   <v>      -0.00474065      -0.01342881      -0.01552599 </v>
   <v>       0.28245304      -0.28500733       0.20645627 </v>
   <v>       0.03004259       0.00744709      -0.00835610 </v>
   <v>       0.00751130      -0.04302046      -0.00976180 </v>
   <v>      -0.02118948      -0.02103778      -0.00326658 </v>
   <v>      -0.18111381      -0.15801613      -0.20263560 </v>
   <v>       0.00945964       0.00485897       0.01114778 </v>
   <v>      -0.01111784      -0.00249898       0.01600444 </v>
   <v>      -0.25505308       0.12918874       0.25350373 </v>
   <v>       0.00355084       0.01311481      -0.01606754 </v>
   <v>      -0.00415660      -0.01506721       0.02092912 </v>
   <v>       0.33556304       0.17364287      -0.28723382 </v>
   <v>      -0.31679797      -0.23289690       0.24765364 </v>
   <v>       0.01600536       0.06442521       0.04742927 </v>
   <v>       0.01933469       0.00862261      -0.01950269 </v>
   <v>      -0.02295891      -0.00230777       0.01520388 </v>
   <v>       0.19090633      -0.18874920      -0.23304863 </v>
   <v>       0.00358268      -0.00931455      -0.02793245 </v>
   <v>       0.01466683      -0.03278882      -0.04670596 </v>
   <v>      -0.00905477      -0.01792970       0.00265679 </v>
   <v>       0.25623250       0.25826174       0.21312480 </v>
   <v>       0.02716180       0.01911321       0.00474883 </v>
  </varray>
  <varray name="stress" >
   <v>      -3.01870916      -0.23085103       0.75180791 </v>
   <v>      -0.23085108      -1.78114126       0.08838561 </v>
   <v>       0.75180795       0.08838558      -1.78268875 </v>
  </varray>
  <energy>
   <i name="e_fr_energy">   -366.13300225 </i>
   <i name="e_wo_entrp">   -366.14299483 </i>
   <i name="e_0_energy">      0.02997775 </i>
  </energy>
  <time name="totalsc">   12.65   13.44</time>
 </calculation>
 <calculation>
  <scstep>
   <time name="dav">    1.19    1.20</time>
   <time name="total">    1.29    1.42</time>
   <energy>
    <i name="alphaZ">   1518.36415057 </i>
    <i name="ewald"> -18954.73407418 </i>
    <i name="hartreedc">  -6837.53191009 </i>
    <i name="XCdc">   -333.41573794 </i>
    <i name="pawpsdc">  33519.39590024 </i>
    <i name="pawaedc"> -31869.45835329 </i>
    <i name="eentropy">      0.02838127 </i>
    <i name="bandstr">  -2459.61280271 </i>
    <i name="atom">  25050.67259035 </i>
    <i name="e_fr_energy">   -366.29185577 </i>
    <i name="e_wo_entrp">   -366.32023704 </i>
    <i name="e_0_energy">   -366.30131619 </i>
   </energy>
  </scstep>
  <scstep>
   <time name="diag">    0.08    0.08</time>
   <time name="diis">    0.77    0.78</time>
   <time name="orth">    0.01    0.01</time>
   <time name="total">    0.93    0.96</time>
   <energy>
    <i name="e_fr_energy">   -366.23551252 </i>
    <i name="e_wo_entrp">   -366.26453263 </i>
    <i name="e_0_energy">   -366.24518589 </i>
   </energy>
  </scstep>
  <scstep>
   <time name="diag">    0.07    0.08</time>
   <time name="diis">    0.88    0.89</time>
   <time name="orth">    0.01    0.01</time>
   <time name="total">    1.03    1.08</time>
   <energy>
    <i name="e_fr_energy">   -366.18145298 </i>
    <i name="e_wo_entrp">   -366.20954765 </i>
    <i name="e_0_energy">   -366.19081787 </i>
   </energy>
  </scstep>
  <scstep>
   <time name="diag">    0.08    0.08</time>
   <time name="diis">    0.80    0.80</time>
   <time name="orth">    0.01    0.01</time>
   <time name="total">    1.00    1.04</time>
   <energy>
    <i name="e_fr_energy">   -366.15900841 </i>
    <i name="e_wo_entrp">   -366.18768683 </i>
    <i name="e_0_energy">   -366.16856788 </i>
   </energy>
  </scstep>
  <scstep>
   <time name="diag">    0.09    0.09</time>
   <time name="diis">    0.82    0.83</time>
   <time name="orth">    0.01    0.01</time>
   <time name="total">    0.99    1.04</time>
   <energy>
    <i name="e_fr_energy">   -366.15596203 </i>
    <i name="e_wo_entrp">   -366.18461685 </i>
    <i name="e_0_energy">   -366.16551364 </i>
   </energy>
  </scstep>
  <scstep>
   <time name="diag">    0.08    0.08</time>
   <time name="diis">    0.71    0.92</time>
   <time name="orth">    0.01    0.01</time>
   <time name="total">    0.90    1.14</time>
   <energy>
    <i name="e_fr_energy">   -366.15627180 </i>
    <i name="e_wo_entrp">   -366.18499234 </i>
    <i name="e_0_energy">   -366.16584531 </i>
   </energy>
  </scstep>
  <scstep>
   <time name="diag">    0.09    0.09</time>
   <time name="diis">    0.88    0.88</time>
   <time name="orth">    0.01    0.01</time>
   <time name="total">    1.04    1.08</time>
   <energy>
    <i name="e_fr_energy">   -366.15664914 </i>
    <i name="e_wo_entrp">   -366.18533375 </i>
    <i name="e_0_energy">   -366.16621068 </i>
   </energy>
  </scstep>
  <scstep>
   <time name="diag">    0.08    0.08</time>
   <time name="diis">    0.84    0.84</time>
   <time name="orth">    0.01    0.01</time>
   <time name="total">    1.02    1.09</time>
   <energy>
    <i name="e_fr_energy">   -366.15688573 </i>
    <i name="e_wo_entrp">   -366.18556204 </i>
    <i name="e_0_energy">   -366.16644450 </i>
   </energy>
  </scstep>
  <scstep>
   <time name="diag">    0.12    0.12</time>
   <time name="diis">    0.78    0.79</time>
   <time name="orth">    0.01    0.01</time>
   <time name="total">    0.98    1.06</time>
   <energy>
    <i name="e_fr_energy">   -366.15709718 </i>
    <i name="e_wo_entrp">   -366.18579669 </i>
    <i name="e_0_energy">   -366.16666368 </i>
   </energy>
  </scstep>
  <scstep>
   <time name="diag">    0.08    0.08</time>
   <time name="diis">    0.70    0.75</time>
   <time name="orth">    0.01    0.02</time>
   <time name="total">    0.87    0.98</time>
   <energy>
    <i name="e_fr_energy">   -366.15728638 </i>
    <i name="e_wo_entrp">   -366.18596703 </i>
    <i name="e_0_energy">   -366.16684660 </i>
   </energy>
  </scstep>
  <scstep>
   <time name="diag">    0.09    0.10</time>
   <time name="diis">    0.62    0.62</time>
   <time name="orth">    0.01    0.01</time>
   <time name="total">    0.79    0.85</time>
   <energy>
    <i name="e_fr_energy">   -366.15734881 </i>
    <i name="e_wo_entrp">   -366.18603636 </i>
    <i name="e_0_energy">   -366.16691133 </i>
   </energy>
  </scstep>
  <scstep>
   <time name="diag">    0.08    0.08</time>
   <time name="diis">    0.53    0.53</time>
   <time name="orth">    0.01    0.01</time>
   <time name="total">    0.69    0.73</time>
   <energy>
    <i name="e_fr_energy">   -366.15736466 </i>
    <i name="e_wo_entrp">   -366.18605119 </i>
    <i name="e_0_energy">   -366.16692683 </i>
   </energy>
  </scstep>
  <scstep>
   <time name="diag">    0.08    0.08</time>
   <time name="diis">    0.40    0.47</time>
   <time name="orth">    0.01    0.01</time>
   <time name="total">    0.53    0.63</time>
   <energy>
    <i name="alphaZ">   1518.36415057 </i>
    <i name="ewald"> -18954.73407418 </i>
    <i name="hartreedc">  -6805.35500195 </i>
    <i name="XCdc">   -334.78999213 </i>
    <i name="pawpsdc">  33873.95057343 </i>
    <i name="pawaedc"> -32223.32014606 </i>
    <i name="eentropy">      0.02868158 </i>
    <i name="bandstr">  -2490.97414974 </i>
    <i name="atom">  25050.67259035 </i>
    <i name="e_fr_energy">   -366.15736814 </i>
    <i name="e_wo_entrp">   -366.18604972 </i>
    <i name="e_0_energy">   -366.16692867 </i>
   </energy>
  </scstep>
  <structure>
   <crystal>
    <varray name="basis" >
     <v>       6.91285975      -0.00410182       0.00195346 </v>
     <v>      -0.00604546      10.19433858       0.00307124 </v>
     <v>       0.00329731       0.00269541      10.17513954 </v>
    </varray>
    <i name="volume">    717.06239263 </i>
    <varray name="rec_basis" >
     <v>       0.14465800       0.00008580      -0.00004690 </v>
     <v>       0.00005821       0.09809370      -0.00002600 </v>
     <v>      -0.00002779      -0.00002962       0.09827877 </v>
    </varray>
   </crystal>
   <varray name="positions" >
    <v>       0.25481984       0.16213619       0.50361664 </v>
    <v>       0.01944869       0.32152620       0.33312423 </v>
    <v>       0.01974757       0.32246963       0.67416277 </v>
    <v>       0.24066435       0.49225236       0.84148294 </v>
    <v>       0.28056542       0.85807504       0.50748228 </v>
    <v>       0.72184009       0.84503380       0.51720628 </v>
    <v>       0.25248517       0.83631598       0.83698347 </v>
    <v>       0.23756382       0.81962613       0.15397524 </v>
    <v>       0.47856969       0.34000929       0.66604119 </v>
    <v>       0.49433039       0.32250565       0.99844017 </v>
    <v>       0.74961398       0.83010717       0.82517928 </v>
    <v>       0.25070231       0.17442593       0.17126308 </v>
    <v>       0.22030533       0.48527902       0.49997620 </v>
    <v>       0.00784760       0.67344511       0.99229637 </v>
    <v>       0.75268128       0.18247096       0.18012406 </v>
    <v>       0.49474406       0.00583612       0.67509720 </v>
    <v>       0.73192509       0.17960967       0.81954790 </v>
    <v>       0.76815868       0.81517174       0.15378780 </v>
    <v>       0.26824187       0.17086587       0.82803668 </v>
    <v>      -0.00088570       0.00325374       0.00062177 </v>
    <v>       0.00105846       0.99619186       0.33161374 </v>
    <v>       0.99944796       0.31309068       0.99759600 </v>
    <v>       0.01402259       0.67438215       0.65833832 </v>
    <v>       0.50632714       0.99946980       0.31964400 </v>
    <v>       0.75575546       0.49977612       0.16505733 </v>
    <v>       0.49462047       0.67252936       0.99256276 </v>
    <v>       0.00802199       0.00381173       0.67220580 </v>
    <v>       0.75471593       0.48994807       0.82864894 </v>
    <v>       0.23932798       0.50344589       0.15850261 </v>
    <v>       0.00308895       0.68232456       0.34549241 </v>
    <v>       0.50303249       0.00372256       0.00601452 </v>
    <v>       0.74738729       0.17138304       0.50430688 </v>
    <v>       0.77049933       0.48417091       0.50462769 </v>
    <v>       0.49697252       0.67097421       0.33832839 </v>
    <v>       0.48157999       0.65676597       0.66210519 </v>
    <v>       0.48075792       0.33760346       0.33650886 </v>
   </varray>
  </structure>
  <varray name="forces" >
   <v>      -0.02371210      -0.03419420       0.01941203 </v>
   <v>      -0.03331760       0.02902354       0.00958696 </v>
   <v>      -0.05440134       0.02384668      -0.02322593 </v>
   <v>       0.00569375       0.03619386       0.00393384 </v>
   <v>      -0.05866347      -0.02329276      -0.03868619 </v>
   <v>      -0.00348495       0.03108351       0.06627087 </v>
   <v>       0.01788214      -0.00253416       0.02069895 </v>
   <v>       0.02082222       0.03787179      -0.01365180 </v>
   <v>       0.04619840       0.00667214      -0.03231246 </v>
   <v>       0.01595650       0.02320591       0.03449943 </v>
   <v>       0.02299758      -0.00791499       0.03119116 </v>
   <v>       0.01152483      -0.04109936      -0.01808007 </v>
   <v>       0.02484830       0.07304504       0.01781351 </v>
   <v>      -0.28404925       0.11485590      -0.23004964 </v>
   <v>      -0.00217671      -0.04351591      -0.02952867 </v>
   <v>       0.22076201      -0.20733528       0.16684170 </v>
   <v>       0.04712677      -0.01654504       0.01408765 </v>
   <v>      -0.01783553      -0.00974877       0.01322387 </v>
   <v>      -0.02742002      -0.04966903      -0.00309523 </v>
   <v>      -0.15141472      -0.10139109      -0.15658727 </v>
   <v>       0.00792775       0.00545771       0.00533075 </v>
   <v>      -0.01020493      -0.00701503       0.02682581 </v>
   <v>      -0.21510251       0.08408320       0.19480671 </v>
   <v>      -0.00122843       0.02408961      -0.03131187 </v>
   <v>      -0.00995054      -0.00467525       0.00468529 </v>
   <v>       0.28044962       0.11947112      -0.22266123 </v>
   <v>      -0.26637311      -0.17312426       0.18896997 </v>
   <v>       0.01103904       0.06457560       0.04950533 </v>
   <v>       0.02565908       0.04250384      -0.04729642 </v>
   <v>      -0.01775424      -0.01353948       0.02937788 </v>
   <v>       0.16508611      -0.15018485      -0.17926208 </v>
   <v>       0.00387090      -0.03216878      -0.01887372 </v>
   <v>       0.00457521      -0.00837272      -0.04192120 </v>
   <v>      -0.01564608      -0.03478606       0.00939523 </v>
   <v>       0.21319069       0.21434259       0.17690318 </v>
   <v>       0.04712462       0.03078497       0.00318368 </v>
  </varray>
  <varray name="stress" >
   <v>       8.37916933      -0.17242184       0.40804678 </v>
   <v>      -0.17242185       9.81718332       0.11197954 </v>
   <v>       0.40804679       0.11197955       9.81669450 </v>
  </varray>
  <energy>
   <i name="e_fr_energy">   -366.15736814 </i>
   <i name="e_wo_entrp">   -366.16692867 </i>
   <i name="e_0_energy">      0.02868158 </i>
  </energy>
  <time name="totalsc">   13.75   14.93</time>
 </calculation>
 <calculation>
  <scstep>
   <time name="dav">    0.93    0.94</time>
   <time name="total">    1.02    1.17</time>
   <energy>
    <i name="alphaZ">   1516.29852994 </i>
    <i name="ewald"> -18937.56835567 </i>
    <i name="hartreedc">  -6810.74670032 </i>
    <i name="XCdc">   -335.16821853 </i>
    <i name="pawpsdc">  33874.02723124 </i>
    <i name="pawaedc"> -32223.38097223 </i>
    <i name="eentropy">      0.02894509 </i>
    <i name="bandstr">  -2500.34722905 </i>
    <i name="atom">  25050.67259035 </i>
    <i name="e_fr_energy">   -366.18417919 </i>
    <i name="e_wo_entrp">   -366.21312428 </i>
    <i name="e_0_energy">   -366.19382755 </i>
   </energy>
  </scstep>
  <scstep>
   <time name="diag">    0.09    0.09</time>
   <time name="diis">    0.75    0.83</time>
   <time name="orth">    0.01    0.01</time>
   <time name="total">    0.94    1.05</time>
   <energy>
    <i name="e_fr_energy">   -366.19789657 </i>
    <i name="e_wo_entrp">   -366.22668580 </i>
    <i name="e_0_energy">   -366.20749298 </i>
   </energy>
  </scstep>
  <scstep>
   <time name="diag">    0.10    0.11</time>
   <time name="diis">    0.78    0.96</time>
   <time name="orth">    0.02    0.02</time>
   <time name="total">    0.98    1.21</time>
   <energy>
    <i name="e_fr_energy">   -366.18869043 </i>
    <i name="e_wo_entrp">   -366.21776075 </i>
    <i name="e_0_energy">   -366.19838054 </i>
   </energy>
  </scstep>
  <scstep>
   <time name="diag">    0.08    0.08</time>
   <time name="diis">    0.86    0.87</time>
   <time name="orth">    0.01    0.01</time>
   <time name="total">    1.03    1.06</time>
   <energy>
    <i name="e_fr_energy">   -366.18815083 </i>
    <i name="e_wo_entrp">   -366.21720479 </i>
    <i name="e_0_energy">   -366.19783548 </i>
   </energy>
  </scstep>
  <scstep>
   <time name="diag">    0.08    0.08</time>
   <time name="diis">    0.79    0.80</time>
   <time name="orth">    0.01    0.01</time>
   <time name="total">    0.96    1.04</time>
   <energy>
    <i name="e_fr_energy">   -366.18783680 </i>
    <i name="e_wo_entrp">   -366.21687693 </i>
    <i name="e_0_energy">   -366.19751685 </i>
   </energy>
  </scstep>
  <scstep>
   <time name="diag">    0.07    0.07</time>
   <time name="diis">    0.80    0.81</time>
   <time name="orth">    0.01    0.01</time>
   <time name="total">    0.96    0.99</time>
   <energy>
    <i name="e_fr_energy">   -366.18780761 </i>
    <i name="e_wo_entrp">   -366.21686823 </i>
    <i name="e_0_energy">   -366.19749448 </i>
   </energy>
  </scstep>
  <scstep>
   <time name="diag">    0.08    0.08</time>
   <time name="diis">    0.76    0.77</time>
   <time name="orth">    0.01    0.01</time>
   <time name="total">    0.92    0.95</time>
   <energy>
    <i name="e_fr_energy">   -366.18777623 </i>
    <i name="e_wo_entrp">   -366.21679906 </i>
    <i name="e_0_energy">   -366.19745051 </i>
   </energy>
  </scstep>
  <scstep>
   <time name="diag">    0.08    0.08</time>
   <time name="diis">    0.65    0.65</time>
   <time name="orth">    0.01    0.01</time>
   <time name="total">    0.83    0.88</time>
   <energy>
    <i name="e_fr_energy">   -366.18777132 </i>
    <i name="e_wo_entrp">   -366.21680868 </i>
    <i name="e_0_energy">   -366.19745044 </i>
   </energy>
  </scstep>
  <scstep>
   <time name="diag">    0.10    0.10</time>
   <time name="diis">    0.50    0.50</time>
   <time name="orth">    0.01    0.01</time>
   <time name="total">    0.65    0.68</time>
   <energy>
    <i name="alphaZ">   1516.29852994 </i>
    <i name="ewald"> -18937.56835567 </i>
    <i name="hartreedc">  -6816.65753490 </i>
    <i name="XCdc">   -334.92939452 </i>
    <i name="pawpsdc">  33809.88210681 </i>
    <i name="pawaedc"> -32159.11875163 </i>
    <i name="eentropy">      0.02903675 </i>
    <i name="bandstr">  -2494.79599675 </i>
    <i name="atom">  25050.67259035 </i>
    <i name="e_fr_energy">   -366.18776962 </i>
    <i name="e_wo_entrp">   -366.21680637 </i>
    <i name="e_0_energy">   -366.19744853 </i>
   </energy>
  </scstep>
  <structure>
   <crystal>
    <varray name="basis" >
     <v>       6.91406415      -0.00458263       0.00339146 </v>
     <v>      -0.00675142      10.20040135       0.00338279 </v>
     <v>       0.00541280       0.00300718      10.18117389 </v>
    </varray>
    <i name="volume">    718.03923119 </i>
    <varray name="rec_basis" >
     <v>       0.14463284       0.00009575      -0.00007692 </v>
     <v>       0.00006499       0.09803541      -0.00002899 </v>
     <v>      -0.00004820      -0.00003261       0.09822054 </v>
    </varray>
   </crystal>
   <varray name="positions" >
    <v>       0.25474679       0.16211359       0.50363400 </v>
    <v>       0.01938056       0.32157763       0.33315165 </v>
    <v>       0.01956018       0.32252390       0.67413229 </v>
    <v>       0.24066667       0.49230112       0.84149435 </v>
    <v>       0.28044601       0.85803587       0.50736175 </v>
    <v>       0.72169770       0.84513380       0.51749862 </v>
    <v>       0.25254843       0.83629730       0.83707119 </v>
    <v>       0.23758870       0.81973195       0.15394875 </v>
    <v>       0.47872804       0.34001320       0.66597979 </v>
    <v>       0.49442416       0.32253880       0.99849259 </v>
    <v>       0.74971869       0.83010574       0.82523974 </v>
    <v>       0.25074263       0.17440237       0.17125627 </v>
    <v>       0.22035250       0.48536861       0.49997805 </v>
    <v>       0.00661412       0.67387520       0.99157345 </v>
    <v>       0.75266630       0.18241442       0.18007362 </v>
    <v>       0.49572587       0.00517344       0.67559101 </v>
    <v>       0.73205737       0.17961168       0.81954491 </v>
    <v>       0.76815623       0.81508879       0.15378298 </v>
    <v>       0.26815489       0.17079033       0.82802814 </v>
    <v>      -0.00152739       0.00289849       0.00014332 </v>
    <v>       0.00109242       0.99620427       0.33163751 </v>
    <v>       0.99940869       0.31308052       0.99764551 </v>
    <v>       0.01311589       0.67467370       0.65893567 </v>
    <v>       0.50633391       0.99951150       0.31959095 </v>
    <v>       0.75573281       0.49974543       0.16509745 </v>
    <v>       0.49581269       0.67292703       0.99188332 </v>
    <v>       0.00689379       0.00326807       0.67278901 </v>
    <v>       0.75476879       0.49011150       0.82877145 </v>
    <v>       0.23940745       0.50349376       0.15843169 </v>
    <v>       0.00300940       0.68230965       0.34554166 </v>
    <v>       0.50371645       0.00327424       0.00546469 </v>
    <v>       0.74740105       0.17134075       0.50424300 </v>
    <v>       0.77054185       0.48410738       0.50451331 </v>
    <v>       0.49692973       0.67091517       0.33833970 </v>
    <v>       0.48248966       0.65738603       0.66261760 </v>
    <v>       0.48088296       0.33766076       0.33652001 </v>
   </varray>
  </structure>
  <varray name="forces" >
   <v>      -0.02976460      -0.04661645       0.04662408 </v>
   <v>      -0.01916325       0.01907769       0.00710510 </v>
   <v>      -0.02770562       0.02001516      -0.02711410 </v>
   <v>       0.01153912       0.03244872       0.00149892 </v>
   <v>      -0.05032825      -0.00732741      -0.00818805 </v>
   <v>       0.00000287       0.02933216       0.02410016 </v>
   <v>       0.01234541       0.00087198       0.01463069 </v>
   <v>       0.00931984       0.00842928      -0.04290529 </v>
   <v>       0.02166341       0.00478008      -0.03145540 </v>
   <v>      -0.00321074       0.00784486       0.03449598 </v>
   <v>       0.01810400      -0.01577233       0.03355422 </v>
   <v>       0.01040120      -0.04310247      -0.02590332 </v>
   <v>       0.01548273       0.07383610       0.04117483 </v>
   <v>      -0.20007709       0.07928925      -0.15528446 </v>
   <v>       0.00247293      -0.04249837      -0.03014622 </v>
   <v>       0.14775983      -0.14550315       0.11733667 </v>
   <v>       0.03900476      -0.00556616       0.01429997 </v>
   <v>      -0.01107045      -0.00424814       0.01982526 </v>
   <v>      -0.01216596      -0.04334091      -0.02439376 </v>
   <v>      -0.11193445      -0.06759758      -0.11272726 </v>
   <v>       0.01330012       0.00717906       0.00121508 </v>
   <v>       0.00082153      -0.01876783       0.02742801 </v>
   <v>      -0.16465750       0.05461892       0.13970845 </v>
   <v>      -0.01184950       0.02696059      -0.03285149 </v>
   <v>      -0.00874684      -0.00134591      -0.00754153 </v>
   <v>       0.21072339       0.09287889      -0.16829824 </v>
   <v>      -0.20233593      -0.12351934       0.13578489 </v>
   <v>       0.00682579       0.03676691       0.04288788 </v>
   <v>       0.02543991       0.06438308      -0.07262921 </v>
   <v>      -0.00681164      -0.00982401       0.03961033 </v>
   <v>       0.12747780      -0.11414582      -0.13210600 </v>
   <v>       0.00405714      -0.03441348      -0.00374476 </v>
   <v>       0.01494431      -0.00863062      -0.03127566 </v>
   <v>      -0.02484370      -0.02813687       0.01416130 </v>
   <v>       0.16006129       0.17803511       0.14602086 </v>
   <v>       0.03291816       0.02360904       0.00510205 </v>
  </varray>
  <varray name="stress" >
   <v>       6.30669851      -0.10201939       0.13615872 </v>
   <v>      -0.10201938       7.65194418       0.11503223 </v>
   <v>       0.13615878       0.11503215       7.77844683 </v>
  </varray>
  <energy>
   <i name="e_fr_energy">   -366.18776962 </i>
   <i name="e_wo_entrp">   -366.19744853 </i>
   <i name="e_0_energy">      0.02903675 </i>
  </energy>
  <time name="totalsc">    9.82   10.79</time>
 </calculation>
 <calculation>
  <scstep>
   <time name="dav">    0.94    0.97</time>
   <time name="total">    1.03    1.18</time>
   <energy>
    <i name="alphaZ">   1510.40431596 </i>
    <i name="ewald"> -18886.20346747 </i>
    <i name="hartreedc">  -6834.03850399 </i>
    <i name="XCdc">   -336.00218857 </i>
    <i name="pawpsdc">  33809.69110791 </i>
    <i name="pawaedc"> -32158.96425698 </i>
    <i name="eentropy">      0.02883068 </i>
    <i name="bandstr">  -2521.77666110 </i>
    <i name="atom">  25050.67259035 </i>
    <i name="e_fr_energy">   -366.18823322 </i>
    <i name="e_wo_entrp">   -366.21706390 </i>
    <i name="e_0_energy">   -366.19784345 </i>
   </energy>
  </scstep>
  <scstep>
   <time name="diag">    0.08    0.08</time>
   <time name="diis">    0.75    0.76</time>
   <time name="orth">    0.01    0.01</time>
   <time name="total">    0.91    0.94</time>
   <energy>
    <i name="e_fr_energy">   -366.29459034 </i>
    <i name="e_wo_entrp">   -366.32211258 </i>
    <i name="e_0_energy">   -366.30376442 </i>
   </energy>
  </scstep>
  <scstep>
   <time name="diag">    0.08    0.08</time>
   <time name="diis">    0.78    0.78</time>
   <time name="orth">    0.01    0.01</time>
   <time name="total">    0.93    0.97</time>
   <energy>
    <i name="e_fr_energy">   -366.23236133 </i>
    <i name="e_wo_entrp">   -366.26142907 </i>
    <i name="e_0_energy">   -366.24205057 </i>
   </energy>
  </scstep>
  <scstep>
   <time name="diag">    0.12    0.12</time>
   <time name="diis">    0.83    0.83</time>
   <time name="orth">    0.01    0.01</time>
   <time name="total">    1.02    1.06</time>
   <energy>
    <i name="e_fr_energy">   -366.22743883 </i>
    <i name="e_wo_entrp">   -366.25647756 </i>
    <i name="e_0_energy">   -366.23711840 </i>
   </energy>
  </scstep>
  <scstep>
   <time name="diag">    0.08    0.08</time>
   <time name="diis">    0.80    0.80</time>
   <time name="orth">    0.02    0.02</time>
   <time name="total">    0.98    1.02</time>
   <energy>
    <i name="e_fr_energy">   -366.22503999 </i>
    <i name="e_wo_entrp">   -366.25406821 </i>
    <i name="e_0_energy">   -366.23471606 </i>
   </energy>
  </scstep>
  <scstep>
   <time name="diag">    0.08    0.11</time>
   <time name="diis">    0.80    0.81</time>
   <time name="orth">    0.01    0.01</time>
   <time name="total">    0.96    1.05</time>
   <energy>
    <i name="e_fr_energy">   -366.22476296 </i>
    <i name="e_wo_entrp">   -366.25380806 </i>
    <i name="e_0_energy">   -366.23444466 </i>
   </energy>
  </scstep>
  <scstep>
   <time name="diag">    0.07    0.07</time>
   <time name="diis">    0.86    0.86</time>
   <time name="orth">    0.01    0.01</time>
   <time name="total">    1.01    1.04</time>
   <energy>
    <i name="e_fr_energy">   -366.22461822 </i>
    <i name="e_wo_entrp">   -366.25358078 </i>
    <i name="e_0_energy">   -366.23427241 </i>
   </energy>
  </scstep>
  <scstep>
   <time name="diag">    0.07    0.08</time>
   <time name="diis">    0.89    0.89</time>
   <time name="orth">    0.01    0.01</time>
   <time name="total">    1.04    1.08</time>
   <energy>
    <i name="e_fr_energy">   -366.22462822 </i>
    <i name="e_wo_entrp">   -366.25365675 </i>
    <i name="e_0_energy">   -366.23430439 </i>
   </energy>
  </scstep>
  <scstep>
   <time name="diag">    0.08    0.08</time>
   <time name="diis">    0.77    0.78</time>
   <time name="orth">    0.01    0.01</time>
   <time name="total">    0.93    0.97</time>
   <energy>
    <i name="e_fr_energy">   -366.22465082 </i>
    <i name="e_wo_entrp">   -366.25366350 </i>
    <i name="e_0_energy">   -366.23432171 </i>
   </energy>
  </scstep>
  <scstep>
   <time name="diag">    0.11    0.11</time>
   <time name="diis">    0.69    0.69</time>
   <time name="orth">    0.01    0.01</time>
   <time name="total">    0.87    0.91</time>
   <energy>
    <i name="e_fr_energy">   -366.22465581 </i>
    <i name="e_wo_entrp">   -366.25365689 </i>
    <i name="e_0_energy">   -366.23432284 </i>
   </energy>
  </scstep>
  <scstep>
   <time name="diag">    0.08    0.15</time>
   <time name="diis">    0.55    0.62</time>
   <time name="orth">    0.01    0.01</time>
   <time name="total">    0.67    0.90</time>
   <energy>
    <i name="alphaZ">   1510.40431596 </i>
    <i name="ewald"> -18886.20346747 </i>
    <i name="hartreedc">  -6850.69677883 </i>
    <i name="XCdc">   -335.33351784 </i>
    <i name="pawpsdc">  33630.29758069 </i>
    <i name="pawaedc"> -31979.74834907 </i>
    <i name="eentropy">      0.02900570 </i>
    <i name="bandstr">  -2505.64603537 </i>
    <i name="atom">  25050.67259035 </i>
    <i name="e_fr_energy">   -366.22465589 </i>
    <i name="e_wo_entrp">   -366.25366159 </i>
    <i name="e_0_energy">   -366.23432445 </i>
   </energy>
  </scstep>
  <structure>
   <crystal>
    <varray name="basis" >
     <v>       6.91751399      -0.00595987       0.00751045 </v>
     <v>      -0.00877355      10.21776736       0.00427516 </v>
     <v>       0.01147234       0.00390019      10.19845853 </v>
    </varray>
    <i name="volume">    720.84131327 </i>
    <varray name="rec_basis" >
     <v>       0.14456089       0.00012420      -0.00016267 </v>
     <v>       0.00008436       0.09786883      -0.00003752 </v>
     <v>      -0.00010649      -0.00004112       0.09805417 </v>
    </varray>
   </crystal>
   <varray name="positions" >
    <v>       0.25453754       0.16204886       0.50368373 </v>
    <v>       0.01918545       0.32172487       0.33323019 </v>
    <v>       0.01902357       0.32267924       0.67404512 </v>
    <v>       0.24067332       0.49244071       0.84152698 </v>
    <v>       0.28010412       0.85792373       0.50701676 </v>
    <v>       0.72128969       0.84542003       0.51833552 </v>
    <v>       0.25272951       0.83624382       0.83732228 </v>
    <v>       0.23766002       0.82003491       0.15387289 </v>
    <v>       0.47918158       0.34002442       0.66580394 </v>
    <v>       0.49469267       0.32263368       0.99864261 </v>
    <v>       0.75001853       0.83010165       0.82541276 </v>
    <v>       0.25085809       0.17433494       0.17123676 </v>
    <v>       0.22048761       0.48562508       0.49998330 </v>
    <v>       0.00308236       0.67510632       0.98950444 </v>
    <v>       0.75262345       0.18225256       0.17992924 </v>
    <v>       0.49853705       0.00327650       0.67700430 </v>
    <v>       0.73243620       0.17961745       0.81953630 </v>
    <v>       0.76814919       0.81485134       0.15376921 </v>
    <v>       0.26790579       0.17057406       0.82800372 </v>
    <v>      -0.00336479       0.00188147      -0.00122605 </v>
    <v>       0.00118965       0.99623981       0.33170556 </v>
    <v>       0.99929619       0.31305143       0.99778725 </v>
    <v>       0.01051879       0.67550814       0.66064605 </v>
    <v>       0.50635335       0.99963086       0.31943908 </v>
    <v>       0.75566790       0.49965754       0.16521230 </v>
    <v>       0.49922775       0.67406567       0.98993779 </v>
    <v>       0.00366209       0.00171155       0.67445905 </v>
    <v>       0.75492013       0.49057933       0.82912211 </v>
    <v>       0.23963512       0.50363079       0.15822865 </v>
    <v>       0.00278154       0.68226693       0.34568267 </v>
    <v>       0.50567558       0.00199100       0.00389047 </v>
    <v>       0.74744048       0.17121970       0.50406016 </v>
    <v>       0.77066372       0.48392555       0.50418586 </v>
    <v>       0.49680714       0.67074614       0.33837208 </v>
    <v>       0.48509456       0.65916114       0.66408404 </v>
    <v>       0.48124105       0.33782479       0.33655187 </v>
   </varray>
  </structure>
  <varray name="forces" >
   <v>      -0.04849880      -0.07250229       0.11575858 </v>
   <v>       0.02316992      -0.00795152       0.00145622 </v>
   <v>       0.04450502       0.00909303      -0.03757476 </v>
   <v>       0.03160979       0.01942358      -0.00506352 </v>
   <v>      -0.02726646       0.03261327       0.07791454 </v>
   <v>       0.01533938       0.02251923      -0.10760678 </v>
   <v>      -0.00560588       0.01203443      -0.00136602 </v>
   <v>      -0.01792520      -0.06715211      -0.11880541 </v>
   <v>      -0.04686041      -0.00491935      -0.02695824 </v>
   <v>      -0.05887809      -0.03329357       0.03208784 </v>
   <v>       0.00269146      -0.03429263       0.04083249 </v>
   <v>       0.00871095      -0.04563316      -0.04634777 </v>
   <v>      -0.00767695       0.07332967       0.10110755 </v>
   <v>       0.03403659      -0.02262265       0.05361925 </v>
   <v>       0.01391237      -0.03905244      -0.03307943 </v>
   <v>      -0.05451805       0.02691621      -0.01942702 </v>
   <v>       0.01867833       0.02582225       0.01900550 </v>
   <v>       0.00538027       0.01665089       0.04489125 </v>
   <v>       0.02696200      -0.02677435      -0.08264986 </v>
   <v>       0.00327791       0.02961092       0.01345772 </v>
   <v>       0.02829288       0.01028491      -0.01049549 </v>
   <v>       0.03311599      -0.04909270       0.02788805 </v>
   <v>      -0.02064508      -0.03224433      -0.02139394 </v>
   <v>      -0.04423146       0.03295694      -0.03680637 </v>
   <v>      -0.00669851       0.00546398      -0.04208538 </v>
   <v>       0.01284590       0.01201738      -0.00740289 </v>
   <v>      -0.02089483       0.02227346      -0.01998087 </v>
   <v>      -0.00869910      -0.04557698       0.02506356 </v>
   <v>       0.02722610       0.11766483      -0.13671797 </v>
   <v>       0.02414241       0.00301989       0.06669212 </v>
   <v>       0.01630604      -0.00994777       0.00438876 </v>
   <v>       0.00575715      -0.04282595       0.04004444 </v>
   <v>       0.04093181      -0.00505812       0.00128419 </v>
   <v>      -0.05120174      -0.00736257       0.02575235 </v>
   <v>       0.01118425       0.07137844       0.05198987 </v>
   <v>      -0.00847596       0.00322919       0.01052744 </v>
  </varray>
  <varray name="stress" >
   <v>       0.26832528       0.08692145      -0.67290504 </v>
   <v>       0.08692143       1.32217778       0.12170923 </v>
   <v>      -0.67290507       0.12170927       1.73138455 </v>
  </varray>
  <energy>
   <i name="e_fr_energy">   -366.22465589 </i>
   <i name="e_wo_entrp">   -366.23432445 </i>
   <i name="e_0_energy">      0.02900570 </i>
  </energy>
  <time name="totalsc">   11.94   12.83</time>
 </calculation>
 <calculation>
  <scstep>
   <time name="dav">    1.05    1.06</time>
   <time name="total">    1.13    1.28</time>
   <energy>
    <i name="alphaZ">   1508.90692891 </i>
    <i name="ewald"> -18877.84739178 </i>
    <i name="hartreedc">  -6850.37436432 </i>
    <i name="XCdc">   -335.61345214 </i>
    <i name="pawpsdc">  33629.53016837 </i>
    <i name="pawaedc"> -31979.03916260 </i>
    <i name="eentropy">      0.02955986 </i>
    <i name="bandstr">  -2512.49543271 </i>
    <i name="atom">  25050.67259035 </i>
    <i name="e_fr_energy">   -366.23055606 </i>
    <i name="e_wo_entrp">   -366.26011591 </i>
    <i name="e_0_energy">   -366.24040934 </i>
   </energy>
  </scstep>
  <scstep>
   <time name="diag">    0.08    0.08</time>
   <time name="diis">    0.75    0.76</time>
   <time name="orth">    0.01    0.03</time>
   <time name="total">    0.91    0.98</time>
   <energy>
    <i name="e_fr_energy">   -366.23078063 </i>
    <i name="e_wo_entrp">   -366.26004268 </i>
    <i name="e_0_energy">   -366.24053465 </i>
   </energy>
  </scstep>
  <scstep>
   <time name="diag">    0.08    0.12</time>
   <time name="diis">    0.78    0.79</time>
   <time name="orth">    0.01    0.01</time>
   <time name="total">    0.94    1.03</time>
   <energy>
    <i name="e_fr_energy">   -366.22960851 </i>
    <i name="e_wo_entrp">   -366.25917452 </i>
    <i name="e_0_energy">   -366.23946385 </i>
   </energy>
  </scstep>
  <scstep>
   <time name="diag">    0.08    0.08</time>
   <time name="diis">    0.78    0.79</time>
   <time name="orth">    0.01    0.01</time>
   <time name="total">    0.94    0.97</time>
   <energy>
    <i name="e_fr_energy">   -366.22924989 </i>
    <i name="e_wo_entrp">   -366.25878371 </i>
    <i name="e_0_energy">   -366.23909450 </i>
   </energy>
  </scstep>
  <scstep>
   <time name="diag">    0.08    0.08</time>
   <time name="diis">    0.86    0.87</time>
   <time name="orth">    0.01    0.01</time>
   <time name="total">    1.05    1.10</time>
   <energy>
    <i name="e_fr_energy">   -366.22918571 </i>
    <i name="e_wo_entrp">   -366.25868648 </i>
    <i name="e_0_energy">   -366.23901930 </i>
   </energy>
  </scstep>
  <scstep>
   <time name="diag">    0.08    0.08</time>
   <time name="diis">    0.69    0.70</time>
   <time name="orth">    0.01    0.01</time>
   <time name="total">    0.85    0.88</time>
   <energy>
    <i name="e_fr_energy">   -366.22917942 </i>
    <i name="e_wo_entrp">   -366.25868103 </i>
    <i name="e_0_energy">   -366.23901329 </i>
   </energy>
  </scstep>
  <scstep>
   <time name="diag">    0.07    0.07</time>
   <time name="diis">    0.52    0.52</time>
   <time name="orth">    0.01    0.01</time>
   <time name="total">    0.64    0.67</time>
   <energy>
    <i name="alphaZ">   1508.90692891 </i>
    <i name="ewald"> -18877.84739178 </i>
    <i name="hartreedc">  -6854.58263807 </i>
    <i name="XCdc">   -335.43726657 </i>
    <i name="pawpsdc">  33585.38969228 </i>
[...]
       <r>    6.7977    1.0000 </r>
       <r>    6.8220    1.0000 </r>
       <r>    6.8719    1.0000 </r>
       <r>    6.8972    1.0000 </r>
       <r>    6.9211    1.0000 </r>
       <r>    6.9740    1.0000 </r>
       <r>    7.0186    1.0000 </r>
       <r>    7.0748    1.0002 </r>
       <r>    7.1014    1.0005 </r>
       <r>    7.1432    1.0019 </r>
       <r>    7.1760    1.0045 </r>
       <r>    7.2121    1.0101 </r>
       <r>    7.2338    1.0152 </r>
       <r>    7.2487    1.0193 </r>
       <r>    7.2933    1.0323 </r>
       <r>    7.3354    1.0328 </r>
       <r>    7.3449    1.0288 </r>
       <r>    7.3905    0.9719 </r>
       <r>    7.4083    0.9278 </r>
       <r>    7.4792    0.6216 </r>
       <r>    7.5603    0.1928 </r>
       <r>    7.6082    0.0352 </r>
       <r>    7.6361   -0.0115 </r>
       <r>    7.6447   -0.0202 </r>
       <r>    7.6936   -0.0350 </r>
       <r>    7.7176   -0.0301 </r>
       <r>    7.7444   -0.0220 </r>
       <r>    7.7628   -0.0166 </r>
       <r>    7.8069   -0.0070 </r>
       <r>    7.8681   -0.0015 </r>
       <r>    7.8960   -0.0006 </r>
       <r>    7.9407   -0.0001 </r>
       <r>    7.9825   -0.0000 </r>
       <r>    8.0226   -0.0000 </r>
       <r>    8.0566   -0.0000 </r>
       <r>    8.1075   -0.0000 </r>
       <r>    8.1377   -0.0000 </r>
       <r>    8.1810   -0.0000 </r>
       <r>    8.2404   -0.0000 </r>
       <r>    8.3275   -0.0000 </r>
       <r>    8.3679   -0.0000 </r>
       <r>    8.6142   -0.0000 </r>
       <r>    8.7670   -0.0000 </r>
       <r>    8.8207   -0.0000 </r>
       <r>    9.3712   -0.0000 </r>
       <r>    9.4683   -0.0000 </r>
       <r>    9.4962   -0.0000 </r>
       <r>    9.5488   -0.0000 </r>
       <r>    9.5688   -0.0000 </r>
      </set>
     </set>
    </set>
   </array>
  </eigenvalues>
  <separator name="orbital magnetization" >
   <v name="MAGDIPOLOUT">      0.00000000      0.00000000      0.00000000</v>
  </separator>
  <dos>
   <i name="efermi">      7.50098223 </i>
   <total>
    <array>
     <dimension dim="1">gridpoints</dimension>
     <dimension dim="2">spin</dimension>
     <field>energy</field>
     <field>total</field>
     <field>integrated</field>
     <set>
      <set comment="spin 1">
       <r>   -49.5798     0.0000     0.0000 </r>
       <r>   -49.3730     0.0000     0.0000 </r>
       <r>   -49.1663     0.0000     0.0000 </r>
       <r>   -48.9595     0.0000     0.0000 </r>
       <r>   -48.7528     0.0000     0.0000 </r>
       <r>   -48.5460     0.0000     0.0000 </r>
       <r>   -48.3393     0.0000     0.0000 </r>
       <r>   -48.1325    -0.0000    -0.0000 </r>
       <r>   -47.9257    -0.0000    -0.0000 </r>
       <r>   -47.7190    -0.0000    -0.0000 </r>
       <r>   -47.5122    -0.0000    -0.0000 </r>
       <r>   -47.3055    -0.0000    -0.0000 </r>
       <r>   -47.0987    -0.0654    -0.0135 </r>
       <r>   -46.8920    -1.3459    -0.2918 </r>
       <r>   -46.6852    34.1800     6.7751 </r>
       <r>   -46.4785    42.4726    15.5565 </r>
       <r>   -46.2717    12.6891    18.1800 </r>
       <r>   -46.0650    -0.8604    18.0021 </r>
       <r>   -45.8582    -0.0103    18.0000 </r>
       <r>   -45.6514    -0.0000    18.0000 </r>
       <r>   -45.4447    -0.0000    18.0000 </r>
       <r>   -45.2379     0.0000    18.0000 </r>
       <r>   -45.0312     0.0000    18.0000 </r>
       <r>   -44.8244     0.0000    18.0000 </r>
       <r>   -44.6177     0.0000    18.0000 </r>
       <r>   -44.4109     0.0000    18.0000 </r>
       <r>   -44.2042     0.0000    18.0000 </r>
       <r>   -43.9974     0.0000    18.0000 </r>
       <r>   -43.7906     0.0000    18.0000 </r>
       <r>   -43.5839     0.0000    18.0000 </r>
       <r>   -43.3771     0.0000    18.0000 </r>
       <r>   -43.1704     0.0000    18.0000 </r>
       <r>   -42.9636     0.0000    18.0000 </r>
       <r>   -42.7569     0.0000    18.0000 </r>
       <r>   -42.5501     0.0000    18.0000 </r>
       <r>   -42.3434     0.0000    18.0000 </r>
       <r>   -42.1366    -0.0000    18.0000 </r>
       <r>   -41.9299    -0.0000    18.0000 </r>
       <r>   -41.7231    -0.0000    18.0000 </r>
       <r>   -41.5163    -0.0000    18.0000 </r>
       <r>   -41.3096    -0.0000    18.0000 </r>
       <r>   -41.1028    -0.0555    17.9885 </r>
       <r>   -40.8961    -0.2009    17.9470 </r>
       <r>   -40.6893    15.5378    21.1595 </r>
       <r>   -40.4826    36.9999    28.8094 </r>
       <r>   -40.2758    14.8797    31.8859 </r>
       <r>   -40.0691     0.6555    32.0214 </r>
       <r>   -39.8623    -0.1034    32.0000 </r>
       <r>   -39.6555    -0.0002    32.0000 </r>
       <r>   -39.4488    -0.0000    32.0000 </r>
       <r>   -39.2420    -0.0000    32.0000 </r>
       <r>   -39.0353     0.0000    32.0000 </r>
       <r>   -38.8285     0.0000    32.0000 </r>
       <r>   -38.6218     0.0000    32.0000 </r>
       <r>   -38.4150     0.0000    32.0000 </r>
       <r>   -38.2083     0.0000    32.0000 </r>
       <r>   -38.0015     0.0000    32.0000 </r>
       <r>   -37.7948     0.0000    32.0000 </r>
       <r>   -37.5880     0.0000    32.0000 </r>
       <r>   -37.3812     0.0000    32.0000 </r>
       <r>   -37.1745     0.0000    32.0000 </r>
       <r>   -36.9677     0.0000    32.0000 </r>
       <r>   -36.7610     0.0000    32.0000 </r>
       <r>   -36.5542     0.0000    32.0000 </r>
       <r>   -36.3475     0.0000    32.0000 </r>
       <r>   -36.1407     0.0000    32.0000 </r>
       <r>   -35.9340     0.0000    32.0000 </r>
       <r>   -35.7272     0.0000    32.0000 </r>
       <r>   -35.5204     0.0000    32.0000 </r>
       <r>   -35.3137     0.0000    32.0000 </r>
       <r>   -35.1069     0.0000    32.0000 </r>
       <r>   -34.9002     0.0000    32.0000 </r>
       <r>   -34.6934     0.0000    32.0000 </r>
       <r>   -34.4867     0.0000    32.0000 </r>
       <r>   -34.2799     0.0000    32.0000 </r>
       <r>   -34.0732     0.0000    32.0000 </r>
       <r>   -33.8664     0.0000    32.0000 </r>
       <r>   -33.6597     0.0000    32.0000 </r>
       <r>   -33.4529     0.0000    32.0000 </r>
       <r>   -33.2461     0.0000    32.0000 </r>
       <r>   -33.0394     0.0000    32.0000 </r>
       <r>   -32.8326     0.0000    32.0000 </r>
       <r>   -32.6259     0.0000    32.0000 </r>
       <r>   -32.4191     0.0000    32.0000 </r>
       <r>   -32.2124     0.0000    32.0000 </r>
       <r>   -32.0056     0.0000    32.0000 </r>
       <r>   -31.7989     0.0000    32.0000 </r>
       <r>   -31.5921     0.0000    32.0000 </r>
       <r>   -31.3854     0.0000    32.0000 </r>
       <r>   -31.1786     0.0000    32.0000 </r>
       <r>   -30.9718     0.0000    32.0000 </r>
       <r>   -30.7651     0.0000    32.0000 </r>
       <r>   -30.5583     0.0000    32.0000 </r>
       <r>   -30.3516     0.0000    32.0000 </r>
       <r>   -30.1448     0.0000    32.0000 </r>
       <r>   -29.9381     0.0000    32.0000 </r>
       <r>   -29.7313     0.0000    32.0000 </r>
       <r>   -29.5246     0.0000    32.0000 </r>
       <r>   -29.3178     0.0000    32.0000 </r>
       <r>   -29.1110     0.0000    32.0000 </r>
       <r>   -28.9043     0.0000    32.0000 </r>
       <r>   -28.6975     0.0000    32.0000 </r>
       <r>   -28.4908     0.0000    32.0000 </r>
       <r>   -28.2840     0.0000    32.0000 </r>
       <r>   -28.0773     0.0000    32.0000 </r>
       <r>   -27.8705     0.0000    32.0000 </r>
       <r>   -27.6638     0.0000    32.0000 </r>
       <r>   -27.4570     0.0000    32.0000 </r>
       <r>   -27.2503     0.0000    32.0000 </r>
       <r>   -27.0435     0.0000    32.0000 </r>
       <r>   -26.8367     0.0000    32.0000 </r>
       <r>   -26.6300     0.0000    32.0000 </r>
       <r>   -26.4232     0.0000    32.0000 </r>
       <r>   -26.2165     0.0000    32.0000 </r>
       <r>   -26.0097     0.0000    32.0000 </r>
       <r>   -25.8030     0.0000    32.0000 </r>
       <r>   -25.5962     0.0000    32.0000 </r>
       <r>   -25.3895     0.0000    32.0000 </r>
       <r>   -25.1827     0.0000    32.0000 </r>
       <r>   -24.9759     0.0000    32.0000 </r>
       <r>   -24.7692     0.0000    32.0000 </r>
       <r>   -24.5624     0.0000    32.0000 </r>
       <r>   -24.3557    -0.0000    32.0000 </r>
       <r>   -24.1489    -0.0000    32.0000 </r>
       <r>   -23.9422    -0.0000    32.0000 </r>
       <r>   -23.7354    -0.0000    32.0000 </r>
       <r>   -23.5287    -0.0068    31.9986 </r>
       <r>   -23.3219    -0.7177    31.8502 </r>
       <r>   -23.1152     8.9718    33.7052 </r>
       <r>   -22.9084    49.7830    43.9980 </r>
       <r>   -22.7016   120.2748    68.8654 </r>
       <r>   -22.4949    56.4850    80.5440 </r>
       <r>   -22.2881    26.1884    85.9586 </r>
       <r>   -22.0814     0.3361    86.0281 </r>
       <r>   -21.8746    -0.1356    86.0000 </r>
       <r>   -21.6679    -0.0002    86.0000 </r>
       <r>   -21.4611    -0.0000    86.0000 </r>
       <r>   -21.2544    -0.0000    86.0000 </r>
       <r>   -21.0476     0.0000    86.0000 </r>
       <r>   -20.8408     0.0000    86.0000 </r>
       <r>   -20.6341     0.0000    86.0000 </r>
       <r>   -20.4273     0.0000    86.0000 </r>
       <r>   -20.2206    -0.0000    86.0000 </r>
       <r>   -20.0138    -0.0000    86.0000 </r>
       <r>   -19.8071    -0.0000    86.0000 </r>
       <r>   -19.6003    -0.0000    86.0000 </r>
       <r>   -19.3936    -0.0076    85.9984 </r>
       <r>   -19.1868    -0.6390    85.8663 </r>
       <r>   -18.9801     7.7305    87.4646 </r>
       <r>   -18.7733    54.7059    98.7753 </r>
       <r>   -18.5665    95.0376   118.4248 </r>
       <r>   -18.3598    46.2260   127.9823 </r>
       <r>   -18.1530     0.3069   128.0458 </r>
       <r>   -17.9463    -0.2209   128.0001 </r>
       <r>   -17.7395    -0.0004   128.0000 </r>
       <r>   -17.5328    -0.0000   128.0000 </r>
       <r>   -17.3260    -0.0000   128.0000 </r>
       <r>   -17.1193     0.0000   128.0000 </r>
       <r>   -16.9125     0.0000   128.0000 </r>
       <r>   -16.7058     0.0000   128.0000 </r>
       <r>   -16.4990     0.0000   128.0000 </r>
       <r>   -16.2922     0.0000   128.0000 </r>
       <r>   -16.0855     0.0000   128.0000 </r>
       <r>   -15.8787     0.0000   128.0000 </r>
       <r>   -15.6720     0.0000   128.0000 </r>
       <r>   -15.4652     0.0000   128.0000 </r>
       <r>   -15.2585     0.0000   128.0000 </r>
       <r>   -15.0517     0.0000   128.0000 </r>
       <r>   -14.8450     0.0000   128.0000 </r>
       <r>   -14.6382     0.0000   128.0000 </r>
       <r>   -14.4314     0.0000   128.0000 </r>
       <r>   -14.2247     0.0000   128.0000 </r>
       <r>   -14.0179     0.0000   128.0000 </r>
       <r>   -13.8112     0.0000   128.0000 </r>
       <r>   -13.6044     0.0000   128.0000 </r>
       <r>   -13.3977     0.0000   128.0000 </r>
       <r>   -13.1909     0.0000   128.0000 </r>
       <r>   -12.9842     0.0000   128.0000 </r>
       <r>   -12.7774     0.0000   128.0000 </r>
       <r>   -12.5707     0.0000   128.0000 </r>
       <r>   -12.3639     0.0000   128.0000 </r>
       <r>   -12.1571     0.0000   128.0000 </r>
       <r>   -11.9504     0.0000   128.0000 </r>
       <r>   -11.7436     0.0000   128.0000 </r>
       <r>   -11.5369     0.0000   128.0000 </r>
       <r>   -11.3301     0.0000   128.0000 </r>
       <r>   -11.1234     0.0000   128.0000 </r>
       <r>   -10.9166     0.0000   128.0000 </r>
       <r>   -10.7099     0.0000   128.0000 </r>
       <r>   -10.5031     0.0000   128.0000 </r>
       <r>   -10.2963     0.0000   128.0000 </r>
       <r>   -10.0896     0.0000   128.0000 </r>
       <r>    -9.8828     0.0000   128.0000 </r>
       <r>    -9.6761     0.0000   128.0000 </r>
       <r>    -9.4693     0.0000   128.0000 </r>
       <r>    -9.2626     0.0000   128.0000 </r>
       <r>    -9.0558     0.0000   128.0000 </r>
       <r>    -8.8491     0.0000   128.0000 </r>
       <r>    -8.6423     0.0000   128.0000 </r>
       <r>    -8.4356     0.0000   128.0000 </r>
       <r>    -8.2288     0.0000   128.0000 </r>
       <r>    -8.0220     0.0000   128.0000 </r>
       <r>    -7.8153     0.0000   128.0000 </r>
       <r>    -7.6085     0.0000   128.0000 </r>
       <r>    -7.4018     0.0000   128.0000 </r>
       <r>    -7.1950     0.0000   128.0000 </r>
       <r>    -6.9883     0.0000   128.0000 </r>
       <r>    -6.7815     0.0000   128.0000 </r>
       <r>    -6.5748     0.0000   128.0000 </r>
       <r>    -6.3680     0.0000   128.0000 </r>
       <r>    -6.1612     0.0000   128.0000 </r>
       <r>    -5.9545     0.0000   128.0000 </r>
       <r>    -5.7477     0.0000   128.0000 </r>
       <r>    -5.5410     0.0000   128.0000 </r>
       <r>    -5.3342     0.0000   128.0000 </r>
       <r>    -5.1275     0.0000   128.0000 </r>
       <r>    -4.9207     0.0000   128.0000 </r>
       <r>    -4.7140     0.0000   128.0000 </r>
       <r>    -4.5072     0.0000   128.0000 </r>
       <r>    -4.3005     0.0000   128.0000 </r>
       <r>    -4.0937     0.0000   128.0000 </r>
       <r>    -3.8869     0.0000   128.0000 </r>
       <r>    -3.6802     0.0000   128.0000 </r>
       <r>    -3.4734     0.0000   128.0000 </r>
       <r>    -3.2667     0.0000   128.0000 </r>
       <r>    -3.0599     0.0000   128.0000 </r>
       <r>    -2.8532     0.0000   128.0000 </r>
       <r>    -2.6464     0.0000   128.0000 </r>
       <r>    -2.4397     0.0000   128.0000 </r>
       <r>    -2.2329     0.0000   128.0000 </r>
       <r>    -2.0261     0.0000   128.0000 </r>
       <r>    -1.8194     0.0000   128.0000 </r>
       <r>    -1.6126     0.0000   128.0000 </r>
       <r>    -1.4059     0.0000   128.0000 </r>
       <r>    -1.1991     0.0000   128.0000 </r>
       <r>    -0.9924     0.0000   128.0000 </r>
       <r>    -0.7856     0.0000   128.0000 </r>
       <r>    -0.5789    -0.0000   128.0000 </r>
       <r>    -0.3721    -0.0000   128.0000 </r>
       <r>    -0.1654    -0.0000   128.0000 </r>
       <r>     0.0414    -0.0000   128.0000 </r>
       <r>     0.2482    -0.0001   128.0000 </r>
       <r>     0.4549    -0.0111   127.9977 </r>
       <r>     0.6617     0.1359   128.0258 </r>
       <r>     0.8684     0.7600   128.1829 </r>
       <r>     1.0752     1.5116   128.4954 </r>
       <r>     1.2819     1.7126   128.8495 </r>
       <r>     1.4887     2.8830   129.4456 </r>
       <r>     1.6954     3.9700   130.2664 </r>
       <r>     1.9022     2.2615   130.7340 </r>
       <r>     2.1089     3.4313   131.4434 </r>
       <r>     2.3157     4.6484   132.4045 </r>
       <r>     2.5225     3.4712   133.1222 </r>
       <r>     2.7292     5.6780   134.2961 </r>
       <r>     2.9360     8.9731   136.1514 </r>
       <r>     3.1427     6.8550   137.5687 </r>
       <r>     3.3495     8.2263   139.2695 </r>
       <r>     3.5562     8.3335   140.9925 </r>
       <r>     3.7630    14.7291   144.0378 </r>
       <r>     3.9697    18.7481   147.9141 </r>
       <r>     4.1765    21.6889   152.3984 </r>
       <r>     4.3833    25.0056   157.5684 </r>
       <r>     4.5900    32.6183   164.3124 </r>
       <r>     4.7968    35.3490   171.6210 </r>
       <r>     5.0035    38.4162   179.5637 </r>
       <r>     5.2103    38.0162   187.4237 </r>
       <r>     5.4170    35.5094   194.7655 </r>
       <r>     5.6238    34.3551   201.8686 </r>
       <r>     5.8305    28.2647   207.7124 </r>
       <r>     6.0373    15.5052   210.9182 </r>
       <r>     6.2440    52.9200   221.8597 </r>
       <r>     6.4508    64.4055   235.1758 </r>
       <r>     6.6576    57.2258   247.0075 </r>
       <r>     6.8643    50.6490   257.4795 </r>
       <r>     7.0711    54.4454   268.7363 </r>
       <r>     7.2778    56.7451   280.4687 </r>
       <r>     7.4846    47.5378   290.2973 </r>
       <r>     7.6913    47.8466   300.1899 </r>
       <r>     7.8981    51.1750   310.7706 </r>
       <r>     8.1048    41.9007   319.4337 </r>
       <r>     8.3116    31.9085   326.0310 </r>
       <r>     8.5184    26.9696   331.6071 </r>
       <r>     8.7251    22.0722   336.1706 </r>
       <r>     8.9319    14.9455   339.2607 </r>
       <r>     9.1386    13.1000   341.9692 </r>
       <r>     9.3454    24.2970   346.9927 </r>
       <r>     9.5521    19.7759   351.0815 </r>
       <r>     9.7589     4.7438   352.0623 </r>
       <r>     9.9656    -0.2951   352.0013 </r>
       <r>    10.1724    -0.0061   352.0000 </r>
       <r>    10.3791    -0.0000   352.0000 </r>
       <r>    10.5859    -0.0000   352.0000 </r>
       <r>    10.7927     0.0000   352.0000 </r>
       <r>    10.9994     0.0000   352.0000 </r>
       <r>    11.2062     0.0000   352.0000 </r>
       <r>    11.4129     0.0000   352.0000 </r>
       <r>    11.6197     0.0000   352.0000 </r>
       <r>    11.8264     0.0000   352.0000 </r>
       <r>    12.0332     0.0000   352.0000 </r>
       <r>    12.2399     0.0000   352.0000 </r>
       <r>    12.4467     0.0000   352.0000 </r>
      </set>
     </set>
    </array>
   </total>
  </dos>
 </calculation>
 <structure name="finalpos" >
  <crystal>
   <varray name="basis" >
    <v>       6.90513026      -0.00427555       0.00986010 </v>
    <v>      -0.00625865      10.22910688       0.00432045 </v>
    <v>       0.01494703       0.00394288      10.21437991 </v>
   </varray>
   <i name="volume">    721.47361901 </i>
   <varray name="rec_basis" >
    <v>       0.14482022       0.00008870      -0.00021195 </v>
    <v>       0.00006059       0.09776030      -0.00003783 </v>
    <v>      -0.00013982      -0.00004144       0.09790142 </v>
   </varray>
  </crystal>
  <varray name="positions" >
   <v>       0.25133302       0.16200064       0.50604889 </v>
   <v>       0.02092467       0.32280362       0.33316699 </v>
   <v>       0.01975855       0.32304747       0.67396122 </v>
   <v>       0.24584370       0.49261993       0.84129820 </v>
   <v>       0.27959842       0.85661157       0.51179535 </v>
   <v>       0.71960865       0.84894725       0.51007142 </v>
   <v>       0.25218333       0.83684621       0.83599732 </v>
   <v>       0.23576142       0.81921157       0.14984041 </v>
   <v>       0.47876063       0.33938840       0.66516526 </v>
   <v>       0.49429539       0.32068004       0.99894040 </v>
   <v>       0.75260434       0.82813114       0.82854365 </v>
   <v>       0.25082364       0.17349569       0.17016749 </v>
   <v>       0.21994524       0.48789141       0.50349298 </v>
   <v>       0.00179369       0.67426116       0.98918504 </v>
   <v>       0.75203465       0.18286684       0.18022266 </v>
   <v>       0.49932711       0.00355753       0.67645272 </v>
   <v>       0.73327779       0.18045032       0.82025895 </v>
   <v>       0.77048497       0.81538754       0.15897503 </v>
   <v>       0.26809725       0.16890012       0.82563218 </v>
   <v>      -0.00402434       0.00214844      -0.00138500 </v>
   <v>       0.00291752       0.99653356       0.33086536 </v>
   <v>       0.00123239       0.31242062       0.99782947 </v>
   <v>       0.00499641       0.67547258       0.66161967 </v>
   <v>       0.50166434       0.00086978       0.31878753 </v>
   <v>       0.75454464       0.49889859       0.16523185 </v>
   <v>       0.50331464       0.67599747       0.98987867 </v>
   <v>      -0.00021684       0.00116128       0.67448660 </v>
   <v>       0.75283526       0.48925785       0.83010086 </v>
   <v>       0.24172743       0.50539353       0.15460582 </v>
   <v>       0.00618101       0.68146095       0.34721179 </v>
   <v>       0.50744761       0.00156293       0.00369763 </v>
   <v>       0.74802806       0.16949804       0.50264770 </v>
   <v>       0.77166355       0.48211252       0.50398830 </v>
   <v>       0.49267474       0.67061771       0.33869980 </v>
   <v>       0.48988948       0.66116394       0.66505041 </v>
   <v>       0.47865363       0.33833776       0.33746641 </v>
  </varray>
 </structure>
</modeling>
