 vasp.5.4.1 05Feb16 (build Jan 29 2020 16:04:39) complex                        
  
 executed on           IFC91_ompi date 2020.06.15  13:22:47
 running on  160 total cores
 distrk:  each k-point on   20 cores,    8 groups
 distr:  one band on NCORES_PER_BAND=   5 cores,    4 groups


--------------------------------------------------------------------------------------------------------


 INCAR:
 POTCAR:    PAW_PBE Ta 17Jan2003                  
 POTCAR:    PAW_PBE Hf 20Jan2003                  
 POTCAR:    PAW_PBE Nb_sv 25May2007               
 POTCAR:    PAW_PBE Zr_sv 04Jan2005               

 ----------------------------------------------------------------------------- 
|                                                                             |
|           W    W    AA    RRRRR   N    N  II  N    N   GGGG   !!!           |
|           W    W   A  A   R    R  NN   N  II  NN   N  G    G  !!!           |
|           W    W  A    A  R    R  N N  N  II  N N  N  G       !!!           |
|           W WW W  AAAAAA  RRRRR   N  N N  II  N  N N  G  GGG   !            |
|           WW  WW  A    A  R   R   N   NN  II  N   NN  G    G                |
|           W    W  A    A  R    R  N    N  II  N    N   GGGG   !!!           |
|                                                                             |
|      For optimal performance we recommend to set                            |
|        NCORE= 4 - approx SQRT( number of cores)                             |
|      NCORE specifies how many cores store one orbital (NPAR=cpu/NCORE).     |
|      This setting can  greatly improve the performance of VASP for DFT.     |
|      The default, NPAR=number of cores might be grossly inefficient         |
|      on modern multi-core architectures or massively parallel machines.     |
|      Do your own testing !!!!                                               |
|      Unfortunately you need to use the default for GW and RPA calculations. |
|      (for HF NCORE is supported but not extensively tested yet)             |
|                                                                             |
 ----------------------------------------------------------------------------- 


 ----------------------------------------------------------------------------- 
|                                                                             |
|           W    W    AA    RRRRR   N    N  II  N    N   GGGG   !!!           |
|           W    W   A  A   R    R  NN   N  II  NN   N  G    G  !!!           |
|           W    W  A    A  R    R  N N  N  II  N N  N  G       !!!           |
|           W WW W  AAAAAA  RRRRR   N  N N  II  N  N N  G  GGG   !            |
|           WW  WW  A    A  R   R   N   NN  II  N   NN  G    G                |
|           W    W  A    A  R    R  N    N  II  N    N   GGGG   !!!           |
|                                                                             |
|      You have enabled k-point parallelism (KPAR>1).                         |
|      This developmental code was originally  written by Paul Kent at ORNL,  |
|      and carefully double checked in Vienna.                                |
|      GW as well as linear response parallelism added by Martijn Marsman     |
|      and Georg Kresse.                                                      |
|      Carefully verify results versus KPAR=1.                                |
|      Report problems to Paul Kent and Vienna.                               |
|                                                                             |
 ----------------------------------------------------------------------------- 

 POTCAR:    PAW_PBE Ta 17Jan2003                  
   VRHFIN =Ta:  6s5d                                                            
   LEXCH  = PE                                                                  
   EATOM  =   130.6506 eV,    9.6025 Ry                                         
                                                                                
   TITEL  = PAW_PBE Ta 17Jan2003                                                
   LULTRA =        F    use ultrasoft PP ?                                      
   IUNSCR =        1    unscreen: 0-lin 1-nonlin 2-no                           
   RPACOR =    2.330    partial core radius                                     
   POMASS =  180.948; ZVAL   =    5.000    mass and valenz                      
   RCORE  =    2.900    outmost cutoff radius                                   
   RWIGS  =    2.840; RWIGS  =    1.503    wigner-seitz radius (au A)           
   ENMAX  =  223.667; ENMIN  =  167.750 eV                                      
   RCLOC  =    2.205    cutoff for local pot                                    
   LCOR   =        T    correct aug charges                                     
   LPAW   =        T    paw PP                                                  
   EAUG   =  332.075                                                            
   DEXC   =    0.000                                                            
   RMAX   =    2.970    core radius for proj-oper                               
   RAUG   =    1.300    factor for augmentation sphere                          
   RDEP   =    3.060    radius for radial grids                                 
   RDEPT  =    2.354    core radius for aug-charge                              
                                                                                
   Atomic configuration                                                         
   16 entries                                                                   
     n  l   j            E        occ.                                          
     1  0  0.50    -67341.2807   2.0000                                         
     2  0  0.50    -11566.9376   2.0000                                         
     2  1  1.50    -10134.1182   6.0000                                         
     3  0  0.50     -2648.5620   2.0000                                         
     3  1  1.50     -2222.6012   6.0000                                         
     3  2  2.50     -1726.3120  10.0000                                         
     4  0  0.50      -538.6961   2.0000                                         
     4  1  1.50      -399.0129   6.0000                                         
     4  2  2.50      -220.3959  10.0000                                         
     4  3  3.50       -23.0374  14.0000                                         
     5  0  0.50       -71.2901   2.0000                                         
     5  1  1.50       -37.8225   6.0000                                         
     5  2  2.50        -2.6455   4.0000                                         
     6  0  0.50        -4.9623   1.0000                                         
     6  1  1.50        -1.3606   0.0000                                         
     5  3  2.50        -1.3606   0.0000                                         
   Description                                                                  
     l       E           TYP  RCUT    TYP  RCUT                                 
     2     -2.6455043     23  2.500                                             
     2     -0.6258895     23  2.500                                             
     0     -4.9622780     23  2.500                                             
     0      4.7531321     23  2.500                                             
     1     -1.3605826     23  2.900                                             
     1     27.2116520     23  2.900                                             
  local pseudopotential read in
  partial core-charges read in
  partial kinetic energy density read in
  atomic valenz-charges read in
  non local Contribution for L=           2  read in
    real space projection operators read in
  non local Contribution for L=           2  read in
    real space projection operators read in
  non local Contribution for L=           0  read in
    real space projection operators read in
  non local Contribution for L=           0  read in
    real space projection operators read in
  non local Contribution for L=           1  read in
    real space projection operators read in
  non local Contribution for L=           1  read in
    real space projection operators read in
    PAW grid and wavefunctions read in
 
   number of l-projection  operators is LMAX  =           6
   number of lm-projection operators is LMMAX =          18
 
 POTCAR:    PAW_PBE Hf 20Jan2003                  
   VRHFIN =Hf: 6s5d                                                             
   LEXCH  = PE                                                                  
   EATOM  =    75.9011 eV,    5.5786 Ry                                         
                                                                                
   TITEL  = PAW_PBE Hf 20Jan2003                                                
   LULTRA =        F    use ultrasoft PP ?                                      
   IUNSCR =        1    unscreen: 0-lin 1-nonlin 2-no                           
   RPACOR =    2.500    partial core radius                                     
   POMASS =  178.490; ZVAL   =    4.000    mass and valenz                      
   RCORE  =    3.000    outmost cutoff radius                                   
   RWIGS  =    3.050; RWIGS  =    1.614    wigner-seitz radius (au A)           
   ENMAX  =  220.334; ENMIN  =  165.250 eV                                      
   RCLOC  =    2.212    cutoff for local pot                                    
   LCOR   =        T    correct aug charges                                     
   LPAW   =        T    paw PP                                                  
   EAUG   =  335.116                                                            
   DEXC   =    0.000                                                            
   RMAX   =    3.077    core radius for proj-oper                               
   RAUG   =    1.300    factor for augmentation sphere                          
   RDEP   =    3.047    radius for radial grids                                 
   RDEPT  =    2.344    core radius for aug-charge                              
                                                                                
   Atomic configuration                                                         
   16 entries                                                                   
     n  l   j            E        occ.                                          
     1  0  0.50    -65259.4397   2.0000                                         
     2  0  0.50    -11157.9882   2.0000                                         
     2  1  1.50     -9795.2113   6.0000                                         
     3  0  0.50     -2541.4058   2.0000                                         
     3  1  1.50     -2134.4770   6.0000                                         
     3  2  2.50     -1653.5418  10.0000                                         
     4  0  0.50      -510.9575   2.0000                                         
     4  1  1.50      -377.5023   6.0000                                         
     4  2  2.50      -205.2085  10.0000                                         
     4  3  3.50       -15.4905  14.0000                                         
     5  0  0.50       -65.6020   2.0000                                         
     5  1  1.50       -34.2798   6.0000                                         
     5  2  2.50        -1.9877   3.0000                                         
     6  0  0.50        -4.7357   1.0000                                         
     6  1  1.50        -1.3606   0.0000                                         
     5  3  2.50        -1.3606   0.0000                                         
   Description                                                                  
     l       E           TYP  RCUT    TYP  RCUT                                 
     2     -1.9876627     23  2.500                                             
     2      0.0744703     23  2.500                                             
     0     -4.7356889     23  2.600                                             
     0      3.2364747     23  2.600                                             
     1     -1.3605826     23  3.000                                             
     1     27.2116520     23  3.000                                             
  local pseudopotential read in
  partial core-charges read in
  partial kinetic energy density read in
  atomic valenz-charges read in
  non local Contribution for L=           2  read in
    real space projection operators read in
  non local Contribution for L=           2  read in
    real space projection operators read in
  non local Contribution for L=           0  read in
    real space projection operators read in
  non local Contribution for L=           0  read in
    real space projection operators read in
  non local Contribution for L=           1  read in
    real space projection operators read in
  non local Contribution for L=           1  read in
    real space projection operators read in
    PAW grid and wavefunctions read in
 
   number of l-projection  operators is LMAX  =           6
   number of lm-projection operators is LMMAX =          18
 
 POTCAR:    PAW_PBE Nb_sv 25May2007               
   VRHFIN =Nb: 4p5s4d                                                           
   LEXCH  = PE                                                                  
   EATOM  =  1555.1913 eV,  114.3033 Ry                                         
                                                                                
   TITEL  = PAW_PBE Nb_sv 25May2007                                             
   LULTRA =        F    use ultrasoft PP ?                                      
   IUNSCR =        1    unscreen: 0-lin 1-nonlin 2-no                           
   RPACOR =    1.800    partial core radius                                     
   POMASS =   92.910; ZVAL   =   13.000    mass and valenz                      
   RCORE  =    2.400    outmost cutoff radius                                   
   RWIGS  =    2.400; RWIGS  =    1.270    wigner-seitz radius (au A)           
   ENMAX  =  293.235; ENMIN  =  219.927 eV                                      
   ICORE  =        3    local potential                                         
   LCOR   =        T    correct aug charges                                     
   LPAW   =        T    paw PP                                                  
   EAUG   =  455.659                                                            
   DEXC   =    0.000                                                            
   RMAX   =    2.456    core radius for proj-oper                               
   RAUG   =    1.300    factor for augmentation sphere                          
   RDEP   =    2.451    radius for radial grids                                 
   RDEPT  =    1.956    core radius for aug-charge                              
                                                                                
   Atomic configuration                                                         
   11 entries                                                                   
     n  l   j            E        occ.                                          
     1  0  0.50    -18805.2457   2.0000                                         
     2  0  0.50     -2630.2869   2.0000                                         
     2  1  1.50     -2348.4046   6.0000                                         
     3  0  0.50      -438.8757   2.0000                                         
     3  1  1.50      -346.7588   6.0000                                         
     3  2  2.50      -196.2560  10.0000                                         
     4  0  0.50       -58.3859   2.0000                                         
     5  0  0.50        -3.9816   1.0000                                         
     4  1  1.50       -34.5141   6.0000                                         
     4  2  2.50        -3.0408   4.0000                                         
     4  3  2.50        -1.3606   0.0000                                         
   Description                                                                  
     l       E           TYP  RCUT    TYP  RCUT                                 
     0    -58.3859094     23  2.200                                             
     0     -3.9816262     23  2.200                                             
     1    -34.5140738     23  2.200                                             
     1     13.6058260     23  2.200                                             
     2     -3.0408010     23  2.200                                             
     2     -0.1283038     23  2.200                                             
     3     -1.3605826     23  2.400                                             
  local pseudopotential read in
  partial core-charges read in
  partial kinetic energy density read in
  atomic valenz-charges read in
  non local Contribution for L=           0  read in
    real space projection operators read in
  non local Contribution for L=           0  read in
    real space projection operators read in
  non local Contribution for L=           1  read in
    real space projection operators read in
  non local Contribution for L=           1  read in
    real space projection operators read in
  non local Contribution for L=           2  read in
    real space projection operators read in
  non local Contribution for L=           2  read in
    real space projection operators read in
    PAW grid and wavefunctions read in
 
   number of l-projection  operators is LMAX  =           6
   number of lm-projection operators is LMMAX =          18
 
 POTCAR:    PAW_PBE Zr_sv 04Jan2005               
   VRHFIN =Zr: 4s4p5s4d                                                         
   LEXCH  = PE                                                                  
   EATOM  =  1284.2219 eV,   94.3876 Ry                                         
                                                                                
   TITEL  = PAW_PBE Zr_sv 04Jan2005                                             
   LULTRA =        F    use ultrasoft PP ?                                      
   IUNSCR =        1    unscreen: 0-lin 1-nonlin 2-no                           
   RPACOR =    2.200    partial core radius                                     
   POMASS =   91.224; ZVAL   =   12.000    mass and valenz                      
   RCORE  =    2.500    outmost cutoff radius                                   
   RWIGS  =    3.070; RWIGS  =    1.625    wigner-seitz radius (au A)           
   ENMAX  =  229.898; ENMIN  =  172.424 eV                                      
   ICORE  =        3    local potential                                         
   LCOR   =        T    correct aug charges                                     
   LPAW   =        T    paw PP                                                  
   EAUG   =  461.257                                                            
   DEXC   =    0.000                                                            
   RMAX   =    2.561    core radius for proj-oper                               
   RAUG   =    1.300    factor for augmentation sphere                          
   RDEP   =    2.597    radius for radial grids                                 
   RDEPT  =    2.007    core radius for aug-charge                              
                                                                                
   Atomic configuration                                                         
   11 entries                                                                   
     n  l   j            E        occ.                                          
     1  0  0.50    -17820.0161   2.0000                                         
     2  0  0.50     -2467.0882   2.0000                                         
     2  1  1.50     -2199.6095   6.0000                                         
     3  0  0.50      -402.4863   2.0000                                         
     3  1  1.50      -315.3675   6.0000                                         
     3  2  2.50      -172.4472  10.0000                                         
     4  0  0.50       -52.4146   2.0000                                         
     5  0  0.50        -3.8421   1.0000                                         
     4  1  1.50       -30.5054   6.0000                                         
     4  2  2.50        -2.3341   3.0000                                         
     4  3  2.50        -1.3606   0.0000                                         
   Description                                                                  
     l       E           TYP  RCUT    TYP  RCUT                                 
     0    -52.4145962     23  2.200                                             
     0     -3.8421270     23  2.500                                             
     1    -30.5053914     23  2.200                                             
     1     20.4087390     23  2.200                                             
     2     -2.3340816     23  2.500                                             
     2     -0.6120942     23  2.500                                             
     3     -4.0817478     23  2.500                                             
  local pseudopotential read in
  partial core-charges read in
  partial kinetic energy density read in
  atomic valenz-charges read in
  non local Contribution for L=           0  read in
    real space projection operators read in
  non local Contribution for L=           0  read in
    real space projection operators read in
  non local Contribution for L=           1  read in
    real space projection operators read in
  non local Contribution for L=           1  read in
    real space projection operators read in
  non local Contribution for L=           2  read in
    real space projection operators read in
  non local Contribution for L=           2  read in
    real space projection operators read in
    PAW grid and wavefunctions read in
 
   number of l-projection  operators is LMAX  =           6
   number of lm-projection operators is LMMAX =          18
 
 Optimization of the real space projectors (new method)

 maximal supplied QI-value         = 12.85
 optimisation between [QCUT,QGAM] = [  8.87, 17.73] = [ 22.01, 88.06] Ry 
 Optimized for a Real-space Cutoff    1.90 Angstroem

   l    n(q)    QCUT    max X(q) W(low)/X(q) W(high)/X(q)  e(spline) 
   2      9     8.867    62.315    0.23E-03    0.62E-04    0.11E-05
   2      9     8.867    52.185    0.23E-03    0.62E-04    0.11E-05
   0     10     8.867   103.837    0.15E-04    0.23E-04    0.98E-07
   0     10     8.867    59.728    0.12E-04    0.21E-04    0.89E-07
   1     10     8.867    13.958    0.50E-04    0.22E-04    0.14E-06
   1     10     8.867     8.441    0.36E-04    0.19E-04    0.98E-07
 Optimization of the real space projectors (new method)

 maximal supplied QI-value         = 12.47
 optimisation between [QCUT,QGAM] = [  8.86, 17.71] = [ 21.96, 87.83] Ry 
 Optimized for a Real-space Cutoff    1.90 Angstroem

   l    n(q)    QCUT    max X(q) W(low)/X(q) W(high)/X(q)  e(spline) 
   2      9     8.855    48.111    0.22E-03    0.80E-04    0.10E-05
   2      9     8.855    40.545    0.21E-03    0.76E-04    0.95E-06
   0     10     8.855   121.658    0.27E-04    0.12E-04    0.11E-06
   0     10     8.855    71.177    0.22E-04    0.11E-04    0.99E-07
   1     10     8.855    14.183    0.65E-04    0.10E-03    0.98E-07
   1     10     8.855     8.257    0.43E-04    0.73E-04    0.72E-07
 Optimization of the real space projectors (new method)

 maximal supplied QI-value         = 15.68
 optimisation between [QCUT,QGAM] = [  8.78, 17.72] = [ 21.60, 87.97] Ry 
 Optimized for a Real-space Cutoff    1.96 Angstroem

   l    n(q)    QCUT    max X(q) W(low)/X(q) W(high)/X(q)  e(spline) 
   0     10     8.783    10.201    0.29E-04    0.25E-05    0.69E-07
   0     10     8.783     8.174    0.45E-04    0.57E-05    0.14E-06
   1     10     8.783     3.488    0.76E-05    0.24E-04    0.95E-07
   1     10     8.783     4.917    0.78E-04    0.14E-03    0.46E-06
   2      9     8.783   153.744    0.22E-03    0.34E-04    0.15E-05
   2      9     8.783   126.342    0.22E-03    0.35E-04    0.15E-05
 Optimization of the real space projectors (new method)

 maximal supplied QI-value         = 15.12
 optimisation between [QCUT,QGAM] = [  8.77, 17.69] = [ 21.53, 87.61] Ry 
 Optimized for a Real-space Cutoff    1.74 Angstroem

   l    n(q)    QCUT    max X(q) W(low)/X(q) W(high)/X(q)  e(spline) 
   0      9     8.768    12.107    0.28E-04    0.53E-06    0.29E-07
   0      9     8.768     9.948    0.36E-04    0.50E-05    0.64E-07
   1      9     8.768     3.563    0.14E-04    0.16E-04    0.88E-07
   1      9     8.768     4.524    0.21E-03    0.33E-03    0.19E-06
   2      8     8.768    87.261    0.19E-03    0.25E-03    0.24E-06
   2      8     8.768    70.950    0.19E-03    0.24E-03    0.24E-06
  PAW_PBE Ta 17Jan2003                  :
 energy of atom  1       EATOM= -130.6506
 kinetic energy error for atom=    0.0121 (will be added to EATOM!!)
  PAW_PBE Hf 20Jan2003                  :
 energy of atom  2       EATOM=  -75.9011
 kinetic energy error for atom=    0.0071 (will be added to EATOM!!)
  PAW_PBE Nb_sv 25May2007               :
 energy of atom  3       EATOM=-1555.1913
 kinetic energy error for atom=    0.0655 (will be added to EATOM!!)
  PAW_PBE Zr_sv 04Jan2005               :
 energy of atom  4       EATOM=-1284.2219
 kinetic energy error for atom=    0.0483 (will be added to EATOM!!)
 
 
 POSCAR: generated by pypospack                  
  positions in direct lattice
  No initial velocities read in
 exchange correlation table for  LEXCH =        8
   RHO(1)=    0.500       N(1)  =     2000
   RHO(2)=  100.500       N(2)  =     4000
 


--------------------------------------------------------------------------------------------------------


 ion  position               nearest neighbor table
   1  0.262  0.842  0.490-   9 2.78  21 2.82  19 2.84  22 2.85  11 2.87  15 2.96  16 2.98  23 3.09
                            12 3.26   7 3.28   2 3.30   2 3.58  31 3.60
   2  0.742  0.836  0.495-  21 2.81   9 2.85  22 2.86  19 2.86  15 2.95  11 2.96  16 2.97  23 3.02
                             1 3.30  29 3.33   4 3.46  28 3.50   1 3.58
   3  0.258  0.509  0.175-  18 2.86  19 2.86  34 2.92  11 2.95  30 2.96  10 2.96  17 3.05  33 3.10
                            12 3.31  20 3.32  32 3.34  32 3.54  35 3.58
   4  0.737  0.497  0.510-  25 2.82  23 2.88  10 2.89  19 2.91  15 2.92  13 2.95  11 2.97  17 2.98
                             6 3.12  20 3.23  32 3.46   2 3.46
   5  0.992  0.028  0.002-  26 2.79  35 2.87   8 2.89  14 2.95  31 2.98  28 3.00  29 3.04  33 3.09
                            12 3.15  36 3.33  36 3.56  16 3.57
   6  0.757  0.496  0.817-  23 2.86  25 2.91  13 2.92  18 2.95  15 2.97  33 3.01  34 3.03  30 3.07
                             4 3.12  24 3.27  14 3.35  28 3.45  32 3.62
   7  0.271  0.164  0.492-  21 2.83  10 2.85  25 2.88   9 2.89  16 2.92  22 2.92  17 2.99  13 3.00
                            27 3.17  35 3.22   1 3.28   8 3.44
   8  0.270  0.153  0.830-  36 2.85   9 2.88   5 2.89  25 2.94  16 2.96  30 2.98  13 3.07  33 3.10
                            14 3.13  31 3.18   7 3.44  35 3.53
   9  0.496  0.990  0.658-   1 2.78   2 2.85   8 2.88   7 2.89  27 2.90  14 2.94  31 3.02  28 3.07
                            15 3.24  21 3.26  16 3.40  16 3.49  36 3.51
  10  0.506  0.334  0.336-  27 2.85   7 2.85  20 2.86   4 2.89  26 2.95   3 2.96  32 2.96  35 2.96
                            25 3.33  17 3.37  30 3.42  17 3.51
  11  0.011  0.660  0.355-  20 2.87   1 2.87   3 2.95   2 2.96   4 2.97  32 3.01  12 3.05  23 3.09
                            29 3.12  17 3.31  19 3.33
  12  0.248  0.834  0.170-  21 3.01  19 3.02  36 3.02  22 3.02  11 3.05  18 3.07  34 3.09   5 3.15
                             1 3.26  35 3.29   3 3.31  31 3.34  29 3.36  29 3.52
  13  0.008  0.328  0.659-  24 2.91  20 2.91   6 2.92   4 2.95  27 3.00   7 3.00  14 3.06   8 3.07
                            17 3.21  16 3.25  25 3.29  23 3.38  33 3.46
  14  0.724  0.168  0.825-  36 2.87  25 2.90   9 2.94   5 2.95  30 2.98  13 3.06  16 3.07  33 3.08
                             8 3.13  27 3.32   6 3.35  28 3.43
  15  0.494  0.672  0.666-   4 2.92  20 2.93   2 2.95   1 2.96  24 2.97   6 2.97  28 3.05  31 3.11
                             9 3.24  19 3.25  34 3.26  23 3.40  25 3.40
  16  0.002  0.010  0.652-  27 2.90   7 2.92   8 2.96   2 2.97   1 2.98  31 3.01  28 3.07  14 3.07
                            22 3.12  13 3.25   9 3.40   9 3.49   5 3.57
  17  0.996  0.335  0.343-  20 2.92  27 2.97   4 2.98   7 2.99   3 3.05  32 3.06  26 3.06  35 3.09
                            13 3.21  11 3.31  10 3.37  22 3.41  10 3.51  33 3.52
  18  0.012  0.646  0.996-  24 2.73   3 2.86  32 2.90  31 2.94   6 2.95  28 3.00  12 3.07  29 3.15
                            33 3.21  34 3.29
  19  0.496  0.665  0.347-  20 2.83   1 2.84   2 2.86   3 2.86   4 2.91  32 2.92  12 3.02  29 3.10
                            15 3.25  11 3.33
  20  0.267  0.492  0.501-  25 2.73  19 2.83  10 2.86  11 2.87  13 2.91  17 2.92  15 2.93  23 2.98
                             4 3.23   3 3.32
  21  0.511  0.001  0.338-  27 2.78   2 2.81   1 2.82   7 2.83  26 2.83  35 2.87  29 2.97  12 3.01
                             9 3.26  36 3.42
  22  0.996  0.001  0.346-   1 2.85   2 2.86   7 2.92  27 2.93  29 2.95  35 2.96  26 2.97  12 3.02
                            16 3.12  17 3.41
  23  0.000  0.660  0.658-  24 2.83   6 2.86   4 2.88  20 2.98  28 3.02   2 3.02  31 3.07  11 3.09
                             1 3.09  13 3.38  15 3.40
  24  0.232  0.504  0.826-  18 2.73  23 2.83  34 2.87  13 2.91  33 2.94  25 2.96  15 2.97  30 3.02
                             6 3.27  31 3.45
  25  0.487  0.338  0.662-  20 2.73   4 2.82   7 2.88  14 2.90   6 2.91   8 2.94  24 2.96  27 2.96
                            13 3.29  10 3.33  15 3.40  30 3.45
  26  0.742  0.159  0.170-   5 2.79  36 2.82  21 2.83  10 2.95  22 2.97  30 3.05  33 3.06  17 3.06
                            29 3.30  35 3.32
  27  0.732  0.165  0.499-  21 2.78  10 2.85  16 2.90   9 2.90  22 2.93  25 2.96  17 2.97  13 3.00
                             7 3.17  14 3.32
  28  0.769  0.833  0.839-  18 3.00   5 3.00  36 3.01  34 3.01  23 3.02  15 3.05  16 3.07   9 3.07
                            31 3.17  29 3.36  14 3.43   6 3.45   2 3.50  31 3.71
  29  0.760  0.836  0.169-  22 2.95  36 2.96  21 2.97   5 3.04  19 3.10  11 3.12  18 3.15  34 3.18
                            32 3.29  26 3.30   2 3.33  12 3.36  28 3.36  12 3.52
  30  0.490  0.339  0.001-   3 2.96   8 2.98  14 2.98  24 3.02  35 3.02  32 3.03  26 3.05   6 3.07
                            34 3.26  33 3.35  36 3.41  10 3.42  25 3.45  33 3.53
  31  0.229  0.842  0.842-  18 2.94  34 2.97   5 2.98  36 3.00  16 3.01   9 3.02  23 3.07  15 3.11
                            28 3.17   8 3.18  12 3.34  24 3.45   1 3.60  28 3.71
  32  0.744  0.513  0.172-  18 2.90  19 2.92  10 2.96  34 2.97  11 3.01  30 3.03  17 3.06  33 3.13
                            29 3.29   3 3.34   4 3.46   3 3.54   6 3.62
  33  0.003  0.331  0.998-  24 2.94   6 3.01  26 3.06  14 3.08   5 3.09  35 3.09   3 3.10   8 3.10
                            32 3.13  18 3.21  30 3.35  13 3.46  17 3.52  30 3.53
  34  0.489  0.659  0.986-  24 2.87   3 2.92  32 2.97  31 2.97  28 3.01   6 3.03  12 3.09  29 3.18
                            30 3.26  15 3.26  18 3.29  36 3.53
  35  0.259  0.157  0.176-   5 2.87  21 2.87  36 2.93  22 2.96  10 2.96  30 3.02  17 3.09  33 3.09
                             7 3.22  12 3.29  26 3.32   8 3.53   3 3.58
  36  0.509  0.004  0.002-  26 2.82   8 2.85  14 2.87  35 2.93  29 2.96  31 3.00  28 3.01  12 3.02
                             5 3.33  30 3.41  21 3.42   9 3.51  34 3.53   5 3.56
 
  LATTYP: Found a triclinic cell.
 ALAT       =     6.8762291303
 B/A-ratio  =     1.4810899641
 C/A-ratio  =     1.4813954166
 COS(alpha) =     0.0022187874
 COS(beta)  =     0.0039428430
 COS(gamma) =     0.0052918998
  
  Lattice vectors:
  
 A1 = (   6.8761907909,  -0.0185465366,  -0.0135382733)
 A2 = (   0.0264031248, -10.1842733687,  -0.0113833234)
 A3 = (   0.0200779477,  -0.0111638378, -10.1863884121)


Analysis of symmetry for initial positions (statically):
=====================================================================
 Subroutine PRICEL returns:
 Original cell was already a primitive cell.
 

 Routine SETGRP: Setting up the symmetry group for a 
 triclinic supercell.


 Subroutine GETGRP returns: Found  1 space group operations
 (whereof  1 operations were pure point group operations)
 out of a pool of  2 trial point group operations.


The static configuration has the point symmetry C_1 .


Analysis of symmetry for dynamics (positions and initial velocities):
=====================================================================
 Subroutine PRICEL returns:
 Original cell was already a primitive cell.
 

 Routine SETGRP: Setting up the symmetry group for a 
 triclinic supercell.


 Subroutine GETGRP returns: Found  1 space group operations
 (whereof  1 operations were pure point group operations)
 out of a pool of  2 trial point group operations.


The dynamic configuration has the point symmetry C_1 .


 Subroutine INISYM returns: Found  1 space group operations
 (whereof  1 operations are pure point group operations),
 and found     1 'primitive' translations

 
 
 KPOINTS: k-points                                

Automatic generation of k-mesh.
Space group operators:
 irot       det(A)        alpha          n_x          n_y          n_z        tau_x        tau_y        tau_z
    1     1.000000     0.000000     1.000000     0.000000     0.000000     0.000000     0.000000     0.000000
 
 Subroutine IBZKPT returns following result:
 ===========================================
 
 Found     14 irreducible k-points:
 
 Following reciprocal coordinates:
            Coordinates               Weight
  0.000000  0.000000  0.000000      1.000000
  0.333333 -0.000000  0.000000      2.000000
  0.000000  0.333333 -0.000000      2.000000
  0.333333  0.333333  0.000000      2.000000
 -0.333333  0.333333 -0.000000      2.000000
  0.000000  0.000000  0.333333      2.000000
  0.333333  0.000000  0.333333      2.000000
 -0.333333 -0.000000  0.333333      2.000000
  0.000000  0.333333  0.333333      2.000000
  0.333333  0.333333  0.333333      2.000000
 -0.333333  0.333333  0.333333      2.000000
  0.000000 -0.333333  0.333333      2.000000
  0.333333 -0.333333  0.333333      2.000000
 -0.333333 -0.333333  0.333333      2.000000
 
 Following cartesian coordinates:
            Coordinates               Weight
  0.000000  0.000000  0.000000      1.000000
  0.241818  0.000626  0.000476      2.000000
  0.000440  0.163270 -0.000178      2.000000
  0.242258  0.163896  0.000298      2.000000
 -0.241378  0.162643 -0.000654      2.000000
  0.000321 -0.000182  0.163235      2.000000
  0.242139  0.000445  0.163711      2.000000
 -0.241497 -0.000808  0.162759      2.000000
  0.000761  0.163088  0.163057      2.000000
  0.242579  0.163715  0.163533      2.000000
 -0.241057  0.162462  0.162581      2.000000
 -0.000119 -0.163451  0.163413      2.000000
  0.241699 -0.162825  0.163889      2.000000
 -0.241937 -0.164078  0.162937      2.000000
 


--------------------------------------------------------------------------------------------------------




 Dimension of arrays:
   k-points           NKPTS =     14   k-points in BZ     NKDIM =     14   number of bands    NBANDS=    192
   number of dos      NEDOS =    301   number of ions     NIONS =     36
   non local maximal  LDIM  =      6   non local SUM 2l+1 LMDIM =     18
   total plane-waves  NPLWV = 144000
   max r-space proj   IRMAX =   6422   max aug-charges    IRDMAX=  13939
   dimension x,y,z NGX =    40 NGY =   60 NGZ =   60
   dimension x,y,z NGXF=    80 NGYF=  120 NGZF=  120
   support grid    NGXF=    80 NGYF=  120 NGZF=  120
   ions per type =              10   7  10   9
 NGX,Y,Z   is equivalent  to a cutoff of   9.67,  9.79,  9.79 a.u.
 NGXF,Y,Z  is equivalent  to a cutoff of  19.34, 19.59, 19.58 a.u.


 I would recommend the setting:
   dimension x,y,z NGX =    39 NGY =   58 NGZ =   58
 SYSTEM =  automatically generated by mexm         
 POSCAR =  generated by pypospack                  

 Startparameter for this run:
   NWRITE =      2    write-flag & timer
   PREC   = accura    normal or accurate (medium, high low for compatibility)
   ISTART =      0    job   : 0-new  1-cont  2-samecut
   ICHARG =      2    charge: 1-file 2-atom 10-const
   ISPIN  =      1    spin polarized calculation?
   LNONCOLLINEAR =      F non collinear calculations
   LSORBIT =      F    spin-orbit coupling
   INIWAV =      1    electr: 0-lowe 1-rand  2-diag
   LASPH  =      F    aspherical Exc in radial PAW
   METAGGA=      F    non-selfconsistent MetaGGA calc.

 Electronic Relaxation 1
   ENCUT  =  300.0 eV  22.05 Ry    4.70 a.u.   9.71 14.38 14.39*2*pi/ulx,y,z
   ENINI  =  300.0     initial cutoff
   ENAUG  =  461.3 eV  augmentation charge cutoff
   NELM   =     70;   NELMIN=  2; NELMDL= -5     # of ELM steps 
   EDIFF  = 0.1E-04   stopping-criterion for ELM
   LREAL  =      T    real-space projection
   NLSPLINE    = F    spline interpolate recip. space projectors
   LCOMPAT=      F    compatible to vasp.4.4
   GGA_COMPAT  = T    GGA compatible to vasp.4.4-vasp.4.6
   LMAXPAW     = -100 max onsite density
   LMAXMIX     =    2 max onsite mixed and CHGCAR
   VOSKOWN=      0    Vosko Wilk Nusair interpolation
   ROPT   =   -0.00025  -0.00025  -0.00025  -0.00025
 Ionic relaxation
   EDIFFG = -.1E-01   stopping-criterion for IOM
   NSW    =    300    number of steps for IOM
   NBLOCK =      1;   KBLOCK =    300    inner block; outer block 
   IBRION =      2    ionic relax: 0-MD 1-quasi-New 2-CG
   NFREE  =      1    steps in history (QN), initial steepest desc. (CG)
   ISIF   =      3    stress and relaxation
   IWAVPR =     11    prediction:  0-non 1-charg 2-wave 3-comb
   ISYM   =      1    0-nonsym 1-usesym 2-fastsym
   LCORR  =      T    Harris-Foulkes like correction to forces

   POTIM  = 0.1500    time-step for ionic-motion
   TEIN   =    0.0    initial temperature
   TEBEG  =    0.0;   TEEND  =   0.0 temperature during run
   SMASS  =  -3.00    Nose mass-parameter (am)
   estimated Nose-frequenzy (Omega)   =  0.10E-29 period in steps =****** mass=  -0.108E-26a.u.
   SCALEE = 1.0000    scale energy and forces
   NPACO  =    256;   APACO  = 16.0  distance and # of slots for P.C.
   PSTRESS=    0.0 pullay stress

  Mass of Ions in am
   POMASS = 180.95178.49 92.91 91.22
  Ionic Valenz
   ZVAL   =   5.00  4.00 13.00 12.00
  Atomic Wigner-Seitz radii
   RWIGS  =  -1.00 -1.00 -1.00 -1.00
  virtual crystal weights 
   VCA    =   1.00  1.00  1.00  1.00
   NELECT =     316.0000    total number of electrons
   NUPDOWN=      -1.0000    fix difference up-down

 DOS related values:
   EMIN   =  10.00;   EMAX   =-10.00  energy-range for DOS
   EFERMI =   0.00
   ISMEAR =     1;   SIGMA  =   0.15  broadening in eV -4-tet -1-fermi 0-gaus

 Electronic relaxation 2 (details)
   IALGO  =     68    algorithm
   LDIAG  =      T    sub-space diagonalisation (order eigenvalues)
   LSUBROT=      F    optimize rotation matrix (better conditioning)
   TURBO    =      0    0=normal 1=particle mesh
   IRESTART =      0    0=no restart 2=restart with 2 vectors
   NREBOOT  =      0    no. of reboots
   NMIN     =      0    reboot dimension
   EREF     =   0.00    reference energy to select bands
   IMIX   =      4    mixing-type and parameters
     AMIX     =   0.40;   BMIX     =  1.00
     AMIX_MAG =   1.60;   BMIX_MAG =  1.00
     AMIN     =   0.10
     WC   =   100.;   INIMIX=   1;  MIXPRE=   1;  MAXMIX= -45

 Intra band minimization:
   WEIMIN = 0.0010     energy-eigenvalue tresh-hold
   EBREAK =  0.13E-07  absolut break condition
   DEPER  =   0.30     relativ break condition  

   TIME   =   0.40     timestep for ELM

  volume/ion in A,a.u.               =      19.81       133.72
  Fermi-wavevector in a.u.,A,eV,Ry     =   1.247976  2.358333 21.190311  1.557444
  Thomas-Fermi vector in A             =   2.382084
 
 Write flags
   LWAVE  =      F    write WAVECAR
   LCHARG =      F    write CHGCAR
   LVTOT  =      F    write LOCPOT, total local potential
   LVHAR  =      F    write LOCPOT, Hartree potential only
   LELF   =      F    write electronic localiz. function (ELF)
   LORBIT =      0    0 simple, 1 ext, 2 COOP (PROOUT)


 Dipole corrections
   LMONO  =      F    monopole corrections only (constant potential shift)
   LDIPOL =      F    correct potential (dipole corrections)
   IDIPOL =      0    1-x, 2-y, 3-z, 4-all directions 
   EPSILON=  1.0000000 bulk dielectric constant

 Exchange correlation treatment:
   GGA     =    --    GGA type
   LEXCH   =     8    internal setting for exchange type
   VOSKOWN=      0    Vosko Wilk Nusair interpolation
   LHFCALC =     F    Hartree Fock is set to
   LHFONE  =     F    Hartree Fock one center treatment
   AEXX    =    0.0000 exact exchange contribution

 Linear response parameters
   LEPSILON=     F    determine dielectric tensor
   LRPA    =     F    only Hartree local field effects (RPA)
   LNABLA  =     F    use nabla operator in PAW spheres
   LVEL    =     F    velocity operator in full k-point grid
   LINTERFAST=   F  fast interpolation
   KINTER  =     0    interpolate to denser k-point grid
   CSHIFT  =0.1000    complex shift for real part using Kramers Kronig
   OMEGAMAX=  -1.0    maximum frequency
   DEG_THRESHOLD= 0.2000000E-02 threshold for treating states as degnerate
   RTIME   =    0.100 relaxation time in fs

 Orbital magnetization related:
   ORBITALMAG=     F  switch on orbital magnetization
   LCHIMAG   =     F  perturbation theory with respect to B field
   DQ        =  0.001000  dq finite difference perturbation B field



--------------------------------------------------------------------------------------------------------


 conjugate gradient relaxation of ions
 charge density and potential will be updated during run
 non-spin polarized calculation
 RMM-DIIS sequential band-by-band and
  variant of blocked Davidson during initial phase
 perform sub-space diagonalisation
    before iterative eigenvector-optimisation
 modified Broyden-mixing scheme, WC =      100.0
 initial mixing is a Kerker type mixing with AMIX =  0.4000 and BMIX =      1.0000
 Hartree-type preconditioning will be used
 using additional bands           34
 real space projection scheme for non local part
 use partial core corrections
 calculate Harris-corrections to forces 
   (improved forces if not selfconsistent)
 use gradient corrections 
 use of overlap-Matrix (Vanderbilt PP)
 Methfessel and Paxton  Order N= 1 SIGMA  =   0.15


--------------------------------------------------------------------------------------------------------


  energy-cutoff  :      300.00
  volume of cell :      713.33
      direct lattice vectors                 reciprocal lattice vectors
     6.876190791 -0.018546537 -0.013538273     0.145430936  0.000376715  0.000286240
    -0.026403125 10.184273369  0.011383323     0.000264632  0.098191414 -0.000107092
    -0.020077948  0.011163838 10.186388412     0.000192990 -0.000109229  0.098170721

  length of vectors
     6.876229130 10.184313956 10.186414317     0.145431705  0.098191829  0.098170971


 
 k-points in units of 2pi/SCALE and weight: k-points                                
   0.00000000  0.00000000  0.00000000       0.037
   0.24181820  0.00062639  0.00047595       0.074
   0.00044002  0.16326974 -0.00017807       0.074
   0.24225822  0.16389613  0.00029788       0.074
  -0.24137817  0.16264335 -0.00065402       0.074
   0.00032090 -0.00018162  0.16323533       0.074
   0.24213910  0.00044477  0.16371128       0.074
  -0.24149730 -0.00080801  0.16275938       0.074
   0.00076092  0.16308812  0.16305726       0.074
   0.24257912  0.16371451  0.16353321       0.074
  -0.24105728  0.16246172  0.16258131       0.074
  -0.00011912 -0.16345136  0.16341340       0.074
   0.24169907 -0.16282497  0.16388935       0.074
  -0.24193732 -0.16407775  0.16293745       0.074
 
 k-points in reciprocal lattice and weights: k-points                                
   0.00000000  0.00000000  0.00000000       0.037
   0.33333333 -0.00000000  0.00000000       0.074
   0.00000000  0.33333333 -0.00000000       0.074
   0.33333333  0.33333333  0.00000000       0.074
  -0.33333333  0.33333333 -0.00000000       0.074
   0.00000000  0.00000000  0.33333333       0.074
   0.33333333  0.00000000  0.33333333       0.074
  -0.33333333 -0.00000000  0.33333333       0.074
   0.00000000  0.33333333  0.33333333       0.074
   0.33333333  0.33333333  0.33333333       0.074
  -0.33333333  0.33333333  0.33333333       0.074
   0.00000000 -0.33333333  0.33333333       0.074
   0.33333333 -0.33333333  0.33333333       0.074
  -0.33333333 -0.33333333  0.33333333       0.074
 
 position of ions in fractional coordinates (direct lattice) 
   0.26189800  0.84206600  0.48993400
   0.74187900  0.83641600  0.49505600
   0.25847100  0.50890000  0.17510300
   0.73672500  0.49656600  0.51035200
   0.99236700  0.02765200  0.00174200
   0.75689100  0.49583700  0.81667800
   0.27118000  0.16369400  0.49208200
   0.26968800  0.15345200  0.82966700
   0.49566700  0.98972700  0.65777400
   0.50639900  0.33433200  0.33636500
   0.01089700  0.66032200  0.35464100
   0.24760600  0.83408500  0.17008500
   0.00816400  0.32839100  0.65855200
   0.72405600  0.16809500  0.82505900
   0.49414900  0.67191800  0.66588800
   0.00249300  0.00975700  0.65189000
   0.99638800  0.33528800  0.34313600
   0.01181900  0.64580000  0.99561900
   0.49564900  0.66456100  0.34665700
   0.26650800  0.49214400  0.50097300
   0.51108700  0.00135000  0.33780100
   0.99615400  0.00091100  0.34553600
   0.00030500  0.66002100  0.65786700
   0.23249800  0.50379900  0.82611100
   0.48687000  0.33768200  0.66247300
   0.74161600  0.15917100  0.17017100
   0.73153800  0.16450300  0.49876800
   0.76861400  0.83331100  0.83855400
   0.75960200  0.83553100  0.16866500
   0.48986600  0.33886600  0.00070600
   0.22895000  0.84243800  0.84234200
   0.74403000  0.51298500  0.17156800
   0.00286300  0.33074900  0.99773000
   0.48921600  0.65862600  0.98592700
   0.25898600  0.15690800  0.17617900
   0.50890700  0.00415500  0.00235300
 
 position of ions in cartesian coordinates  (Angst):
   1.76879057  8.57644258  4.99669788
   5.06927784  8.51005663  5.04231013
   1.76034365  5.17993780  1.78596089
   5.04250395  5.04919768  5.19432229
   6.82293975  0.26323000  0.00462452
   5.17503806  5.04481911  8.31439659
   1.85048339  1.66756852  5.01073046
   1.83371652  1.56705761  8.44940600
   3.36896222 10.07780070  6.70489736
   3.46651521  3.39929166  3.42329458
   0.05037482  6.72865681  3.61988011
   1.67714869  8.49185622  1.73869437
   0.03424430  3.35162427  6.71189412
   4.95774347  1.70770753  8.39648245
   3.36675240  6.84126571  6.78395254
   0.00379611  0.10659931  6.64048206
   6.83561187  3.40001582  3.48564389
   0.04422857  6.58789947 10.14895319
   3.38367044  6.76274834  3.53203753
   1.80950721  5.01277901  5.10509974
   3.50751373  0.00804103  3.43406832
   6.84278325 -0.00533983  3.50628807
  -0.02853800  6.72917296  6.70879789
   1.56881213  5.13573728  8.41767480
   3.32559405  3.43741179  6.74545985
   5.09187381  1.60918633  1.72519960
   5.01583723  1.66734419  5.07261340
   5.24629805  8.48177338  8.54091689
   5.19772120  8.49707107  1.71731462
   3.35945078  3.44202654  0.00441707
   1.53514839  8.58477643  8.58691294
   5.09910309  5.21249565  1.74342488
  -0.00907864  3.37952363 10.16699157
   3.32675738  6.70956070 10.04390958
   1.77315697  1.59515751  1.79290764
   3.49918468  0.03290346  0.01712615
 


--------------------------------------------------------------------------------------------------------


 k-point  1 :   0.0000 0.0000 0.0000  plane waves:    8465
 k-point  2 :   0.3333-0.0000 0.0000  plane waves:    8419
 k-point  3 :   0.0000 0.3333-0.0000  plane waves:    8423
 k-point  4 :   0.3333 0.3333 0.0000  plane waves:    8405
 k-point  5 :  -0.3333 0.3333-0.0000  plane waves:    8409
 k-point  6 :   0.0000 0.0000 0.3333  plane waves:    8417
 k-point  7 :   0.3333 0.0000 0.3333  plane waves:    8411
 k-point  8 :  -0.3333-0.0000 0.3333  plane waves:    8410
 k-point  9 :   0.0000 0.3333 0.3333  plane waves:    8398
 k-point 10 :   0.3333 0.3333 0.3333  plane waves:    8425
 k-point 11 :  -0.3333 0.3333 0.3333  plane waves:    8409
 k-point 12 :   0.0000-0.3333 0.3333  plane waves:    8401
 k-point 13 :   0.3333-0.3333 0.3333  plane waves:    8418
 k-point 14 :  -0.3333-0.3333 0.3333  plane waves:    8418

 maximum and minimum number of plane-waves per node :      1721     1658

 maximum number of plane-waves:      8465
 maximum index in each direction: 
   IXMAX=   10   IYMAX=   14   IZMAX=   14
   IXMIN=  -10   IYMIN=  -14   IZMIN=  -14

 WARNING: aliasing errors must be expected set NGX to  42 to avoid them
 NGY is ok and might be reduce to  58
 NGZ is ok and might be reduce to  58
 aliasing errors are usually negligible using standard VASP settings
 and one can safely disregard these warnings

 real space projection operators:
  total allocation   :      27729.84 KBytes
  max/ min on nodes  :       5592.66       5501.95


 parallel 3D FFT for wavefunctions:
    minimum data exchange during FFTs selected (reduces bandwidth)
 parallel 3D FFT for charge:
    minimum data exchange during FFTs selected (reduces bandwidth)


 total amount of memory used by VASP on root node    68726. kBytes
========================================================================

   base      :      30000. kBytes
   nonlr-proj:      10688. kBytes
   fftplans  :       2814. kBytes
   grid      :       5360. kBytes
   one-center:        124. kBytes
   wavefun   :      19740. kBytes
 
     INWAV:  cpu time    0.0000: real time    0.0000
 Broyden mixing: mesh for mixing (old mesh)
   NGX = 19   NGY = 29   NGZ = 29
  (NGX  = 80   NGY  =120   NGZ  =120)
  gives a total of  15979 points

 initial charge density was supplied:
 charge density of overlapping atoms calculated
 number of electron     316.0000000 magnetization 
 keeping initial charge density in first step


--------------------------------------------------------------------------------------------------------


 Maximum index for non-local projection operator         1251
 Maximum index for augmentation-charges          687 (set IRDMAX)


--------------------------------------------------------------------------------------------------------


 First call to EWALD:  gamma=   0.198
 Maximum number of real-space cells 3x 2x 2
 Maximum number of reciprocal cells 2x 3x 3

 FEWALD executed in parallel
    FEWALD:  cpu time    0.0306: real time    0.0317


----------------------------------------- Iteration    1(   1)  ---------------------------------------


    POTLOK:  cpu time    0.0466: real time    0.0467
    SETDIJ:  cpu time    0.0058: real time    0.0058
     EDDAV:  cpu time    1.0928: real time    1.1122
       DOS:  cpu time    0.0014: real time    0.0014
    --------------------------------------------
      LOOP:  cpu time    1.1524: real time    1.6466

 eigenvalue-minimisations  :  5880
 total energy-change (2. order) : 0.2158226E+04  (-0.1210629E+05)
 number of electron     316.0000000 magnetization 
 augmentation part      316.0000000 magnetization 

 Free energy of the ion-electron system (eV)
  ---------------------------------------------------
  alpha Z        PSCENC =      1696.62821198
  Ewald energy   TEWEN  =    -22563.58204504
  -Hartree energ DENC   =     -7259.35585825
  -exchange      EXHF   =         0.00000000
  -V(xc)+E(xc)   XCENC  =       -19.17615544
  PAW double counting   =     24132.13293311   -22618.91587328
  entropy T*S    EENTRO =         0.00086429
  eigenvalues    EBANDS =      -155.96917761
  atomic energy  EATOM  =     28946.46341293
  Solvation  Ediel_sol  =         0.00000000
  ---------------------------------------------------
  free energy    TOTEN  =      2158.22631269 eV

  energy without entropy =     2158.22544840  energy(sigma->0) =     2158.22602459


--------------------------------------------------------------------------------------------------------




----------------------------------------- Iteration    1(   2)  ---------------------------------------


     EDDAV:  cpu time    1.0798: real time    1.1316
       DOS:  cpu time    0.0010: real time    0.0010
    --------------------------------------------
      LOOP:  cpu time    1.0827: real time    1.3365

 eigenvalue-minimisations  :  6056
 total energy-change (2. order) :-0.2220064E+04  (-0.2140888E+04)
 number of electron     316.0000000 magnetization 
 augmentation part      316.0000000 magnetization 

 Free energy of the ion-electron system (eV)
  ---------------------------------------------------
  alpha Z        PSCENC =      1696.62821198
  Ewald energy   TEWEN  =    -22563.58204504
  -Hartree energ DENC   =     -7259.35585825
  -exchange      EXHF   =         0.00000000
  -V(xc)+E(xc)   XCENC  =       -19.17615544
  PAW double counting   =     24132.13293311   -22618.91587328
  entropy T*S    EENTRO =         0.00528508
  eigenvalues    EBANDS =     -2376.03795052
  atomic energy  EATOM  =     28946.46341293
  Solvation  Ediel_sol  =         0.00000000
  ---------------------------------------------------
  free energy    TOTEN  =       -61.83803942 eV

  energy without entropy =      -61.84332451  energy(sigma->0) =      -61.83980112


--------------------------------------------------------------------------------------------------------




----------------------------------------- Iteration    1(   3)  ---------------------------------------


     EDDAV:  cpu time    1.5069: real time    1.5298
       DOS:  cpu time    0.0013: real time    0.0013
    --------------------------------------------
      LOOP:  cpu time    1.5092: real time    1.5937

 eigenvalue-minimisations  :  9192
 total energy-change (2. order) :-0.2804490E+03  (-0.2660500E+03)
 number of electron     316.0000000 magnetization 
 augmentation part      316.0000000 magnetization 

 Free energy of the ion-electron system (eV)
  ---------------------------------------------------
  alpha Z        PSCENC =      1696.62821198
  Ewald energy   TEWEN  =    -22563.58204504
  -Hartree energ DENC   =     -7259.35585825
  -exchange      EXHF   =         0.00000000
  -V(xc)+E(xc)   XCENC  =       -19.17615544
  PAW double counting   =     24132.13293311   -22618.91587328
  entropy T*S    EENTRO =         0.01350566
  eigenvalues    EBANDS =     -2656.49514639
  atomic energy  EATOM  =     28946.46341293
  Solvation  Ediel_sol  =         0.00000000
  ---------------------------------------------------
  free energy    TOTEN  =      -342.28701472 eV

  energy without entropy =     -342.30052038  energy(sigma->0) =     -342.29151660


--------------------------------------------------------------------------------------------------------




----------------------------------------- Iteration    1(   4)  ---------------------------------------


     EDDAV:  cpu time    1.4716: real time    1.4820
       DOS:  cpu time    0.0012: real time    0.0012
    --------------------------------------------
      LOOP:  cpu time    1.4733: real time    1.5305

 eigenvalue-minimisations  :  8920
 total energy-change (2. order) :-0.3270713E+02  (-0.3115062E+02)
 number of electron     316.0000000 magnetization 
 augmentation part      316.0000000 magnetization 

 Free energy of the ion-electron system (eV)
  ---------------------------------------------------
  alpha Z        PSCENC =      1696.62821198
  Ewald energy   TEWEN  =    -22563.58204504
  -Hartree energ DENC   =     -7259.35585825
  -exchange      EXHF   =         0.00000000
  -V(xc)+E(xc)   XCENC  =       -19.17615544
  PAW double counting   =     24132.13293311   -22618.91587328
  entropy T*S    EENTRO =         0.01118576
  eigenvalues    EBANDS =     -2689.19995601
  atomic energy  EATOM  =     28946.46341293
  Solvation  Ediel_sol  =         0.00000000
  ---------------------------------------------------
  free energy    TOTEN  =      -374.99414424 eV

  energy without entropy =     -375.00532999  energy(sigma->0) =     -374.99787282


--------------------------------------------------------------------------------------------------------




----------------------------------------- Iteration    1(   5)  ---------------------------------------


     EDDAV:  cpu time    1.4309: real time    1.4398
       DOS:  cpu time    0.0012: real time    0.0012
    CHARGE:  cpu time    0.0326: real time    0.0329
    MIXING:  cpu time    0.0014: real time    0.0015
    --------------------------------------------
      LOOP:  cpu time    1.4665: real time    1.5148

 eigenvalue-minimisations  :  8560
 total energy-change (2. order) :-0.3266588E+01  (-0.3218037E+01)
 number of electron     316.0000006 magnetization 
 augmentation part       18.5815940 magnetization 

 Broyden mixing:
  rms(total) = 0.65580E+01    rms(broyden)= 0.65575E+01
  rms(prec ) = 0.68206E+01
  weight for this iteration     100.00

 Free energy of the ion-electron system (eV)
  ---------------------------------------------------
  alpha Z        PSCENC =      1696.62821198
  Ewald energy   TEWEN  =    -22563.58204504
  -Hartree energ DENC   =     -7259.35585825
  -exchange      EXHF   =         0.00000000
  -V(xc)+E(xc)   XCENC  =       -19.17615544
  PAW double counting   =     24132.13293311   -22618.91587328
  entropy T*S    EENTRO =         0.01214374
  eigenvalues    EBANDS =     -2692.46750210
  atomic energy  EATOM  =     28946.46341293
  Solvation  Ediel_sol  =         0.00000000
  ---------------------------------------------------
  free energy    TOTEN  =      -378.26073235 eV

  energy without entropy =     -378.27287608  energy(sigma->0) =     -378.26478026


--------------------------------------------------------------------------------------------------------




----------------------------------------- Iteration    1(   6)  ---------------------------------------


    POTLOK:  cpu time    0.0294: real time    0.0295
    SETDIJ:  cpu time    0.0036: real time    0.0036
    EDDIAG:  cpu time    0.0842: real time    0.0847
  RMM-DIIS:  cpu time    0.8506: real time    0.8560
    ORTHCH:  cpu time    0.0139: real time    0.0140
       DOS:  cpu time    0.0008: real time    0.0008
    CHARGE:  cpu time    0.0505: real time    0.0507
    MIXING:  cpu time    0.0017: real time    0.0026
    --------------------------------------------
      LOOP:  cpu time    1.0353: real time    1.0852

 eigenvalue-minimisations  :  7406
 total energy-change (2. order) : 0.1073409E+02  (-0.2397398E+01)
 number of electron     316.0000006 magnetization 
 augmentation part       19.3258610 magnetization 

 Broyden mixing:
  rms(total) = 0.30790E+01    rms(broyden)= 0.30789E+01
  rms(prec ) = 0.32919E+01
  weight for this iteration     100.00

 eigenvalues of (default mixing * dielectric matrix)
  average eigenvalue GAMMA=   1.8082
  1.8082

 Free energy of the ion-electron system (eV)
  ---------------------------------------------------
  alpha Z        PSCENC =      1696.62821198
  Ewald energy   TEWEN  =    -22563.58204504
  -Hartree energ DENC   =     -7066.99175264
  -exchange      EXHF   =         0.00000000
  -V(xc)+E(xc)   XCENC  =       -24.45308041
  PAW double counting   =     29981.03302075   -28474.75112687
  entropy T*S    EENTRO =         0.01794003
  eigenvalues    EBANDS =     -2861.89122567
  atomic energy  EATOM  =     28946.46341293
  Solvation  Ediel_sol  =         0.00000000
  ---------------------------------------------------
  free energy    TOTEN  =      -367.52664496 eV

  energy without entropy =     -367.54458498  energy(sigma->0) =     -367.53262497


--------------------------------------------------------------------------------------------------------




----------------------------------------- Iteration    1(   7)  ---------------------------------------


    POTLOK:  cpu time    0.0277: real time    0.0278
    SETDIJ:  cpu time    0.0530: real time    0.0532
    EDDIAG:  cpu time    0.0960: real time    0.0966
  RMM-DIIS:  cpu time    0.9085: real time    0.9213
    ORTHCH:  cpu time    0.0135: real time    0.0245
       DOS:  cpu time    0.0008: real time    0.0074
    CHARGE:  cpu time    0.0300: real time    0.0327
    MIXING:  cpu time    0.0012: real time    0.0080
    --------------------------------------------
      LOOP:  cpu time    1.1313: real time    1.2150

 eigenvalue-minimisations  :  7709
 total energy-change (2. order) : 0.1661301E+00  (-0.2196662E+01)
 number of electron     316.0000007 magnetization 
 augmentation part       19.7951159 magnetization 

 Broyden mixing:
  rms(total) = 0.99493E+00    rms(broyden)= 0.99455E+00
  rms(prec ) = 0.26404E+01
  weight for this iteration     100.00

 eigenvalues of (default mixing * dielectric matrix)
  average eigenvalue GAMMA=   1.2070
  1.8243  0.5897

 Free energy of the ion-electron system (eV)
  ---------------------------------------------------
  alpha Z        PSCENC =      1696.62821198
  Ewald energy   TEWEN  =    -22563.58204504
  -Hartree energ DENC   =     -6988.51795382
  -exchange      EXHF   =         0.00000000
  -V(xc)+E(xc)   XCENC  =       -24.49834761
  PAW double counting   =     35779.84145760   -34265.10824103
  entropy T*S    EENTRO =        -0.00249638
  eigenvalues    EBANDS =     -2948.58451347
  atomic energy  EATOM  =     28946.46341293
  Solvation  Ediel_sol  =         0.00000000
  ---------------------------------------------------
  free energy    TOTEN  =      -367.36051483 eV

  energy without entropy =     -367.35801846  energy(sigma->0) =     -367.35968271


--------------------------------------------------------------------------------------------------------




----------------------------------------- Iteration    1(   8)  ---------------------------------------


    POTLOK:  cpu time    0.0364: real time    0.0453
    SETDIJ:  cpu time    0.0046: real time    0.0056
    EDDIAG:  cpu time    0.0878: real time    0.0993
  RMM-DIIS:  cpu time    0.8473: real time    0.8516
    ORTHCH:  cpu time    0.0152: real time    0.0155
       DOS:  cpu time    0.0013: real time    0.0014
    CHARGE:  cpu time    0.0320: real time    0.0320
    MIXING:  cpu time    0.0015: real time    0.0015
    --------------------------------------------
      LOOP:  cpu time    1.0271: real time    1.1491

 eigenvalue-minimisations  :  8157
 total energy-change (2. order) : 0.3571469E+01  (-0.5071770E+00)
 number of electron     316.0000006 magnetization 
 augmentation part       19.5396011 magnetization 

 Broyden mixing:
  rms(total) = 0.45920E+00    rms(broyden)= 0.45871E+00
  rms(prec ) = 0.85683E+00
  weight for this iteration     100.00

 eigenvalues of (default mixing * dielectric matrix)
  average eigenvalue GAMMA=   1.1150
  1.7976  1.1599  0.3875

 Free energy of the ion-electron system (eV)
  ---------------------------------------------------
  alpha Z        PSCENC =      1696.62821198
  Ewald energy   TEWEN  =    -22563.58204504
  -Hartree energ DENC   =     -6965.21430873
  -exchange      EXHF   =         0.00000000
  -V(xc)+E(xc)   XCENC  =       -24.60092174
  PAW double counting   =     36464.86143646   -34947.48119847
  entropy T*S    EENTRO =         0.02408137
  eigenvalues    EBANDS =     -2970.88771491
  atomic energy  EATOM  =     28946.46341293
  Solvation  Ediel_sol  =         0.00000000
  ---------------------------------------------------
  free energy    TOTEN  =      -363.78904616 eV

  energy without entropy =     -363.81312753  energy(sigma->0) =     -363.79707329


--------------------------------------------------------------------------------------------------------




----------------------------------------- Iteration    1(   9)  ---------------------------------------


    POTLOK:  cpu time    0.0295: real time    0.0306
    SETDIJ:  cpu time    0.0036: real time    0.0036
    EDDIAG:  cpu time    0.0844: real time    0.0854
  RMM-DIIS:  cpu time    0.9081: real time    0.9113
    ORTHCH:  cpu time    0.0138: real time    0.0138
       DOS:  cpu time    0.0010: real time    0.0010
    CHARGE:  cpu time    0.0320: real time    0.0321
    MIXING:  cpu time    0.0013: real time    0.0013
    --------------------------------------------
      LOOP:  cpu time    1.0746: real time    1.1220

 eigenvalue-minimisations  :  8037
 total energy-change (2. order) : 0.2596258E+00  (-0.1977379E+00)
 number of electron     316.0000006 magnetization 
 augmentation part       19.3945047 magnetization 

 Broyden mixing:
  rms(total) = 0.31682E+00    rms(broyden)= 0.31669E+00
  rms(prec ) = 0.43657E+00
  weight for this iteration     100.00

 eigenvalues of (default mixing * dielectric matrix)
  average eigenvalue GAMMA=   1.1357
  1.8551  1.8551  0.4745  0.3579

 Free energy of the ion-electron system (eV)
  ---------------------------------------------------
  alpha Z        PSCENC =      1696.62821198
  Ewald energy   TEWEN  =    -22563.58204504
  -Hartree energ DENC   =     -6971.70590636
  -exchange      EXHF   =         0.00000000
  -V(xc)+E(xc)   XCENC  =       -24.11260345
  PAW double counting   =     36662.61491531   -35140.51215921
  entropy T*S    EENTRO =         0.01496323
  eigenvalues    EBANDS =     -2969.33820977
  atomic energy  EATOM  =     28946.46341293
  Solvation  Ediel_sol  =         0.00000000
  ---------------------------------------------------
  free energy    TOTEN  =      -363.52942039 eV

  energy without entropy =     -363.54438362  energy(sigma->0) =     -363.53440813


--------------------------------------------------------------------------------------------------------




----------------------------------------- Iteration    1(  10)  ---------------------------------------


    POTLOK:  cpu time    0.0310: real time    0.0311
    SETDIJ:  cpu time    0.0038: real time    0.0038
    EDDIAG:  cpu time    0.0823: real time    0.0826
  RMM-DIIS:  cpu time    0.8319: real time    0.8347
    ORTHCH:  cpu time    0.0136: real time    0.0136
       DOS:  cpu time    0.0024: real time    0.0024
    CHARGE:  cpu time    0.0315: real time    0.0316
    MIXING:  cpu time    0.0014: real time    0.0014
    --------------------------------------------
      LOOP:  cpu time    0.9985: real time    1.0457

 eigenvalue-minimisations  :  7981
 total energy-change (2. order) : 0.4807049E-01  (-0.5100993E-01)
 number of electron     316.0000006 magnetization 
 augmentation part       19.2728588 magnetization 

 Broyden mixing:
  rms(total) = 0.16226E+00    rms(broyden)= 0.16218E+00
  rms(prec ) = 0.29155E+00
  weight for this iteration     100.00

 eigenvalues of (default mixing * dielectric matrix)
  average eigenvalue GAMMA=   1.0819
  2.0121  1.8999  0.6806  0.4687  0.3481

 Free energy of the ion-electron system (eV)
  ---------------------------------------------------
  alpha Z        PSCENC =      1696.62821198
  Ewald energy   TEWEN  =    -22563.58204504
  -Hartree energ DENC   =     -6986.68707910
  -exchange      EXHF   =         0.00000000
  -V(xc)+E(xc)   XCENC  =       -23.06403689
  PAW double counting   =     36906.80642067   -35376.04256075
  entropy T*S    EENTRO =         0.01817479
  eigenvalues    EBANDS =     -2964.02184849
  atomic energy  EATOM  =     28946.46341293
  Solvation  Ediel_sol  =         0.00000000
  ---------------------------------------------------
  free energy    TOTEN  =      -363.48134990 eV

  energy without entropy =     -363.49952469  energy(sigma->0) =     -363.48740816


--------------------------------------------------------------------------------------------------------




----------------------------------------- Iteration    1(  11)  ---------------------------------------


    POTLOK:  cpu time    0.0284: real time    0.0286
    SETDIJ:  cpu time    0.0036: real time    0.0036
    EDDIAG:  cpu time    0.0834: real time    0.0836
  RMM-DIIS:  cpu time    0.8331: real time    0.8359
    ORTHCH:  cpu time    0.0135: real time    0.0136
       DOS:  cpu time    0.0029: real time    0.0029
    CHARGE:  cpu time    0.0325: real time    0.0326
    MIXING:  cpu time    0.0014: real time    0.0014
    --------------------------------------------
      LOOP:  cpu time    0.9994: real time    1.0457

 eigenvalue-minimisations  :  7962
 total energy-change (2. order) : 0.4842609E-01  (-0.1371222E-01)
 number of electron     316.0000006 magnetization 
 augmentation part       19.2313256 magnetization 

 Broyden mixing:
  rms(total) = 0.70350E-01    rms(broyden)= 0.70285E-01
  rms(prec ) = 0.12120E+00
  weight for this iteration     100.00

 eigenvalues of (default mixing * dielectric matrix)
  average eigenvalue GAMMA=   1.0654
  2.2355  1.7643  1.1051  0.5117  0.3434  0.4321

 Free energy of the ion-electron system (eV)
  ---------------------------------------------------
  alpha Z        PSCENC =      1696.62821198
  Ewald energy   TEWEN  =    -22563.58204504
  -Hartree energ DENC   =     -6993.64567284
  -exchange      EXHF   =         0.00000000
  -V(xc)+E(xc)   XCENC  =       -22.54030063
  PAW double counting   =     37098.60370948   -35563.19865902
  entropy T*S    EENTRO =         0.01625611
  eigenvalues    EBANDS =     -2962.17783676
  atomic energy  EATOM  =     28946.46341293
  Solvation  Ediel_sol  =         0.00000000
  ---------------------------------------------------
  free energy    TOTEN  =      -363.43292380 eV

  energy without entropy =     -363.44917991  energy(sigma->0) =     -363.43834251


--------------------------------------------------------------------------------------------------------




----------------------------------------- Iteration    1(  12)  ---------------------------------------


    POTLOK:  cpu time    0.0283: real time    0.0284
    SETDIJ:  cpu time    0.0036: real time    0.0036
    EDDIAG:  cpu time    0.1625: real time    0.1633
  RMM-DIIS:  cpu time    0.8433: real time    0.8482
    ORTHCH:  cpu time    0.0136: real time    0.0136
       DOS:  cpu time    0.0041: real time    0.0041
    CHARGE:  cpu time    0.0314: real time    0.0315
    MIXING:  cpu time    0.0015: real time    0.0015
    --------------------------------------------
      LOOP:  cpu time    1.0889: real time    1.1379

 eigenvalue-minimisations  :  8105
 total energy-change (2. order) : 0.2144160E-02  (-0.5240034E-02)
 number of electron     316.0000006 magnetization 
 augmentation part       19.2273985 magnetization 

 Broyden mixing:
  rms(total) = 0.42517E-01    rms(broyden)= 0.42499E-01
  rms(prec ) = 0.78702E-01
  weight for this iteration     100.00

 eigenvalues of (default mixing * dielectric matrix)
  average eigenvalue GAMMA=   1.0345
  2.3003  1.7273  1.3776  0.5471  0.5471  0.3319  0.4102

 Free energy of the ion-electron system (eV)
  ---------------------------------------------------
  alpha Z        PSCENC =      1696.62821198
  Ewald energy   TEWEN  =    -22563.58204504
  -Hartree energ DENC   =     -6996.06175965
  -exchange      EXHF   =         0.00000000
  -V(xc)+E(xc)   XCENC  =       -22.38517695
  PAW double counting   =     37223.64780157   -35686.27557564
  entropy T*S    EENTRO =         0.01636253
  eigenvalues    EBANDS =     -2961.88201136
  atomic energy  EATOM  =     28946.46341293
  Solvation  Ediel_sol  =         0.00000000
  ---------------------------------------------------
  free energy    TOTEN  =      -363.43077964 eV

  energy without entropy =     -363.44714217  energy(sigma->0) =     -363.43623382


--------------------------------------------------------------------------------------------------------




----------------------------------------- Iteration    1(  13)  ---------------------------------------


    POTLOK:  cpu time    0.0289: real time    0.0290
    SETDIJ:  cpu time    0.0036: real time    0.0036
    EDDIAG:  cpu time    0.0861: real time    0.0866
  RMM-DIIS:  cpu time    0.8372: real time    0.8432
    ORTHCH:  cpu time    0.0132: real time    0.0140
       DOS:  cpu time    0.0026: real time    0.0026
    CHARGE:  cpu time    0.0316: real time    0.0317
    MIXING:  cpu time    0.0015: real time    0.0015
    --------------------------------------------
      LOOP:  cpu time    1.0053: real time    1.0634

 eigenvalue-minimisations  :  8053
 total energy-change (2. order) : 0.1898712E-02  (-0.1590050E-02)
 number of electron     316.0000006 magnetization 
 augmentation part       19.2268312 magnetization 

 Broyden mixing:
  rms(total) = 0.26624E-01    rms(broyden)= 0.26614E-01
  rms(prec ) = 0.41219E-01
  weight for this iteration     100.00

 eigenvalues of (default mixing * dielectric matrix)
  average eigenvalue GAMMA=   1.0385
  2.3610  1.8579  1.5473  0.8371  0.5392  0.4602  0.3393  0.3658

 Free energy of the ion-electron system (eV)
  ---------------------------------------------------
  alpha Z        PSCENC =      1696.62821198
  Ewald energy   TEWEN  =    -22563.58204504
  -Hartree energ DENC   =     -6995.61144591
  -exchange      EXHF   =         0.00000000
  -V(xc)+E(xc)   XCENC  =       -22.39276955
  PAW double counting   =     37290.81313398   -35752.52094073
  entropy T*S    EENTRO =         0.01661494
  eigenvalues    EBANDS =     -2963.24305352
  atomic energy  EATOM  =     28946.46341293
  Solvation  Ediel_sol  =         0.00000000
  ---------------------------------------------------
  free energy    TOTEN  =      -363.42888093 eV

  energy without entropy =     -363.44549587  energy(sigma->0) =     -363.43441924


--------------------------------------------------------------------------------------------------------




----------------------------------------- Iteration    1(  14)  ---------------------------------------


    POTLOK:  cpu time    0.0291: real time    0.0292
    SETDIJ:  cpu time    0.0037: real time    0.0038
    EDDIAG:  cpu time    0.0825: real time    0.0830
  RMM-DIIS:  cpu time    0.8510: real time    0.8580
    ORTHCH:  cpu time    0.0135: real time    0.0137
       DOS:  cpu time    0.0032: real time    0.0033
    CHARGE:  cpu time    0.0316: real time    0.0318
    MIXING:  cpu time    0.0015: real time    0.0016
    --------------------------------------------
      LOOP:  cpu time    1.0169: real time    1.0650

 eigenvalue-minimisations  :  8217
 total energy-change (2. order) : 0.2118528E-03  (-0.6381512E-03)
 number of electron     316.0000006 magnetization 
 augmentation part       19.2256109 magnetization 

 Broyden mixing:
  rms(total) = 0.15403E-01    rms(broyden)= 0.15400E-01
  rms(prec ) = 0.21874E-01
  weight for this iteration     100.00

 eigenvalues of (default mixing * dielectric matrix)
  average eigenvalue GAMMA=   1.0609
  2.5971  2.0618  1.5053  1.1516  0.5490  0.5490  0.4442  0.3339  0.3566

 Free energy of the ion-electron system (eV)
  ---------------------------------------------------
  alpha Z        PSCENC =      1696.62821198
  Ewald energy   TEWEN  =    -22563.58204504
  -Hartree energ DENC   =     -6995.64788771
  -exchange      EXHF   =         0.00000000
  -V(xc)+E(xc)   XCENC  =       -22.39873552
  PAW double counting   =     37326.84652952   -35787.91527164
  entropy T*S    EENTRO =         0.01665757
  eigenvalues    EBANDS =     -2963.83954116
  atomic energy  EATOM  =     28946.46341293
  Solvation  Ediel_sol  =         0.00000000
  ---------------------------------------------------
  free energy    TOTEN  =      -363.42866908 eV

  energy without entropy =     -363.44532665  energy(sigma->0) =     -363.43422160


--------------------------------------------------------------------------------------------------------




----------------------------------------- Iteration    1(  15)  ---------------------------------------


    POTLOK:  cpu time    0.0279: real time    0.0282
    SETDIJ:  cpu time    0.0036: real time    0.0036
    EDDIAG:  cpu time    0.0878: real time    0.0883
  RMM-DIIS:  cpu time    0.9034: real time    0.9086
    ORTHCH:  cpu time    0.0136: real time    0.0137
       DOS:  cpu time    0.0011: real time    0.0011
    CHARGE:  cpu time    0.0315: real time    0.0316
    MIXING:  cpu time    0.0016: real time    0.0016
    --------------------------------------------
      LOOP:  cpu time    1.0711: real time    1.1199

 eigenvalue-minimisations  :  8220
 total energy-change (2. order) :-0.2616658E-04  (-0.2586313E-03)
 number of electron     316.0000006 magnetization 
 augmentation part       19.2235590 magnetization 

 Broyden mixing:
  rms(total) = 0.60356E-02    rms(broyden)= 0.60315E-02
  rms(prec ) = 0.10266E-01
  weight for this iteration     100.00

 eigenvalues of (default mixing * dielectric matrix)
  average eigenvalue GAMMA=   1.0374
  2.6439  2.0850  1.5559  1.2198  0.6551  0.6209  0.4820  0.4263  0.3340  0.3514

 Free energy of the ion-electron system (eV)
  ---------------------------------------------------
  alpha Z        PSCENC =      1696.62821198
  Ewald energy   TEWEN  =    -22563.58204504
  -Hartree energ DENC   =     -6996.59529593
  -exchange      EXHF   =         0.00000000
  -V(xc)+E(xc)   XCENC  =       -22.36783580
  PAW double counting   =     37348.98351954   -35809.46614518
  entropy T*S    EENTRO =         0.01667710
  eigenvalues    EBANDS =     -2963.50919483
  atomic energy  EATOM  =     28946.46341293
  Solvation  Ediel_sol  =         0.00000000
  ---------------------------------------------------
  free energy    TOTEN  =      -363.42869524 eV

  energy without entropy =     -363.44537234  energy(sigma->0) =     -363.43425428


--------------------------------------------------------------------------------------------------------




----------------------------------------- Iteration    1(  16)  ---------------------------------------


    POTLOK:  cpu time    0.0291: real time    0.0292
    SETDIJ:  cpu time    0.0037: real time    0.0037
    EDDIAG:  cpu time    0.0842: real time    0.0845
  RMM-DIIS:  cpu time    0.8803: real time    0.8851
    ORTHCH:  cpu time    0.0146: real time    0.0301
       DOS:  cpu time    0.0008: real time    0.0008
    CHARGE:  cpu time    0.0324: real time    0.0335
    MIXING:  cpu time    0.0017: real time    0.0019
    --------------------------------------------
      LOOP:  cpu time    1.0474: real time    1.1099

 eigenvalue-minimisations  :  7528
 total energy-change (2. order) :-0.3797107E-04  (-0.1130346E-03)
 number of electron     316.0000006 magnetization 
 augmentation part       19.2228430 magnetization 

 Broyden mixing:
  rms(total) = 0.31525E-02    rms(broyden)= 0.31505E-02
  rms(prec ) = 0.67249E-02
  weight for this iteration     100.00

 eigenvalues of (default mixing * dielectric matrix)
  average eigenvalue GAMMA=   1.0116
  2.6654  2.0746  1.5911  1.2622  0.7743  0.6798  0.4920  0.4920  0.4104  0.3343
  0.3517

 Free energy of the ion-electron system (eV)
  ---------------------------------------------------
  alpha Z        PSCENC =      1696.62821198
  Ewald energy   TEWEN  =    -22563.58204504
  -Hartree energ DENC   =     -6996.75396241
  -exchange      EXHF   =         0.00000000
  -V(xc)+E(xc)   XCENC  =       -22.36486032
[...]
    102       5.5172      2.00000
    103       5.5415      2.00000
    104       5.6000      2.00000
    105       5.6347      2.00000
    106       5.6542      2.00000
    107       5.6895      2.00000
    108       5.7256      2.00000
    109       5.7542      2.00000
    110       5.8321      2.00000
    111       5.9358      2.00000
    112       5.9587      2.00000
    113       6.0430      2.00000
    114       6.0921      2.00000
    115       6.1083      2.00000
    116       6.1991      2.00000
    117       6.2414      2.00000
    118       6.3842      2.00000
    119       6.4334      2.00000
    120       6.5100      2.00000
    121       6.5287      2.00000
    122       6.5564      2.00000
    123       6.5789      2.00000
    124       6.6343      2.00000
    125       6.6607      2.00000
    126       6.6724      2.00000
    127       6.7122      2.00000
    128       6.7393      2.00000
    129       6.7833      2.00000
    130       6.8053      2.00000
    131       6.8441      2.00000
    132       6.8555      2.00000
    133       6.9215      2.00000
    134       6.9662      2.00000
    135       6.9963      2.00000
    136       7.0219      2.00000
    137       7.0626      2.00000
    138       7.0898      2.00000
    139       7.1427      2.00000
    140       7.2218      2.00000
    141       7.2555      2.00000
    142       7.3025      2.00000
    143       7.3460      2.00000
    144       7.3641      2.00000
    145       7.4248      2.00003
    146       7.4536      2.00008
    147       7.4872      2.00030
    148       7.5046      2.00055
    149       7.5658      2.00371
    150       7.5964      2.00835
    151       7.6166      2.01345
    152       7.6580      2.03071
    153       7.6998      2.05554
    154       7.7440      2.07077
    155       7.7827      2.03683
    156       7.8002      1.99394
    157       7.8226      1.90464
    158       7.8426      1.78863
    159       7.8698      1.57328
    160       7.9172      1.08129
    161       7.9399      0.82661
    162       7.9739      0.47382
    163       7.9960      0.28596
    164       8.0440      0.02162
    165       8.1203     -0.06910
    166       8.1545     -0.05223
    167       8.1603     -0.04867
    168       8.2107     -0.02127
    169       8.2513     -0.00860
    170       8.2876     -0.00327
    171       8.3114     -0.00161
    172       8.3600     -0.00032
    173       8.4095     -0.00005
    174       8.4684     -0.00000
    175       8.5099     -0.00000
    176       8.5625     -0.00000
    177       8.6134     -0.00000
    178       8.6444     -0.00000
    179       8.7941     -0.00000
    180       8.8197     -0.00000
    181       9.0070     -0.00000
    182       9.1254     -0.00000
    183       9.2206     -0.00000
    184       9.7949     -0.00000
    185       9.8193     -0.00000
    186       9.8811     -0.00000
    187       9.9610     -0.00000
    188      10.0257     -0.00000
    189      10.0703     -0.00000
    190      10.1279     -0.00000
    191      10.2225     -0.00000
    192      10.2854     -0.00000


--------------------------------------------------------------------------------------------------------


 soft charge-density along one line, spin component           1
         0         1         2         3         4         5         6         7         8         9
 total charge-density along one line
 
 pseudopotential strength for first ion, spin component:           1
 -6.323   0.001  -0.000   0.003  -0.000  -7.506   0.002  -0.000
  0.001  -6.329   0.001   0.002  -0.002   0.002  -7.514   0.001
 -0.000   0.001  -6.336   0.001   0.001  -0.000   0.001  -7.523
  0.003   0.002   0.001  -6.332   0.002   0.003   0.002   0.002
 -0.000  -0.002   0.001   0.002  -6.335  -0.000  -0.003   0.001
 -7.506   0.002  -0.000   0.003  -0.000  -8.889   0.002  -0.000
  0.002  -7.514   0.001   0.002  -0.003   0.002  -8.898   0.002
 -0.000   0.001  -7.523   0.002   0.001  -0.000   0.002  -8.909
  0.003   0.002   0.002  -7.518   0.003   0.004   0.003   0.002
 -0.000  -0.003   0.001   0.003  -7.520  -0.000  -0.004   0.001
 -0.001  -0.003   0.002  -0.002   0.001  -0.001  -0.003   0.002
 -0.002  -0.005   0.003  -0.004   0.002  -0.002  -0.006   0.003
 -0.002   0.002   0.004  -0.004   0.006  -0.003   0.003   0.005
 -0.004  -0.002   0.006  -0.003  -0.000  -0.004  -0.003   0.007
 -0.003  -0.004   0.003   0.002  -0.006  -0.003  -0.004   0.003
  0.001  -0.002  -0.005   0.005  -0.008   0.001  -0.002  -0.006
  0.005   0.002  -0.007   0.003   0.000   0.006   0.002  -0.009
  0.002   0.005  -0.003  -0.001   0.007   0.003   0.006  -0.003
 total augmentation occupancy for first ion, spin component:           1
  5.432   0.062  -0.019   0.133  -0.022  -2.804  -0.024   0.017  -0.057   0.012   0.049  -0.015   0.024   0.055   0.055   0.003
  0.062   5.005   0.091   0.139  -0.176  -0.024  -2.587  -0.060  -0.067   0.104   0.183  -0.043  -0.034   0.031   0.067  -0.002
 -0.019   0.091   4.840   0.131   0.017   0.017  -0.059  -2.646  -0.075  -0.011  -0.052   0.029  -0.047  -0.040  -0.017  -0.004
  0.133   0.139   0.131   4.880   0.197  -0.057  -0.066  -0.076  -2.534  -0.116   0.176  -0.036   0.048   0.106  -0.007   0.003
 -0.022  -0.176   0.017   0.197   4.794   0.012   0.102  -0.011  -0.114  -2.672  -0.040   0.014  -0.049   0.006   0.082  -0.005
 -2.804  -0.024   0.017  -0.057   0.012   1.475   0.008  -0.013   0.024  -0.006  -0.029   0.007  -0.017  -0.024  -0.030  -0.002
 -0.024  -2.587  -0.059  -0.066   0.102   0.008   1.362   0.037   0.032  -0.060  -0.103   0.022   0.015  -0.017  -0.029   0.001
  0.017  -0.060  -2.646  -0.076  -0.011  -0.013   0.037   1.459   0.043   0.007   0.041  -0.017   0.027   0.024   0.014   0.002
 -0.057  -0.067  -0.075  -2.534  -0.114   0.024   0.032   0.043   1.338   0.067  -0.098   0.019  -0.021  -0.052   0.005  -0.001
  0.012   0.104  -0.011  -0.116  -2.672  -0.006  -0.060   0.007   0.067   1.501   0.023  -0.008   0.030  -0.003  -0.046   0.003
  0.049   0.183  -0.052   0.176  -0.040  -0.029  -0.103   0.041  -0.098   0.023   2.237  -0.237   0.026  -0.020   0.032   0.002
 -0.015  -0.043   0.029  -0.036   0.014   0.007   0.022  -0.017   0.019  -0.008  -0.237   0.027  -0.000  -0.002  -0.000  -0.000
  0.024  -0.034  -0.047   0.048  -0.049  -0.017   0.015   0.027  -0.021   0.030   0.026  -0.000   0.304  -0.001  -0.003   0.008
  0.055   0.031  -0.040   0.106   0.006  -0.024  -0.017   0.024  -0.052  -0.003  -0.020  -0.002  -0.001   0.291  -0.001  -0.000
  0.055   0.067  -0.017  -0.007   0.082  -0.030  -0.029   0.014   0.005  -0.046   0.032  -0.000  -0.003  -0.001   0.303  -0.000
  0.003  -0.002  -0.004   0.003  -0.005  -0.002   0.001   0.002  -0.001   0.003   0.002  -0.000   0.008  -0.000  -0.000   0.000
  0.004   0.002  -0.004   0.004   0.000  -0.002  -0.001   0.002  -0.002  -0.000  -0.001   0.000  -0.000   0.007  -0.000  -0.000
  0.003   0.003  -0.003  -0.001   0.006  -0.002  -0.002   0.002   0.001  -0.003   0.001  -0.000  -0.000  -0.000   0.008  -0.000


------------------------ aborting loop because EDIFF is reached ----------------------------------------


    CHARGE:  cpu time    0.0298: real time    0.0300
    FORLOC:  cpu time    0.0133: real time    0.0134
    FORNL :  cpu time    0.3858: real time    0.3877
    STRESS:  cpu time    0.9728: real time    1.0178
    FORCOR:  cpu time    0.0429: real time    0.0430
    FORHAR:  cpu time    0.0186: real time    0.0187
    MIXING:  cpu time    0.0012: real time    0.0013
    OFIELD:  cpu time    0.0000: real time    0.0000

  FORCE on cell =-STRESS in cart. coord.  units (eV):
  Direction    XX          YY          ZZ          XY          YZ          ZX
  --------------------------------------------------------------------------------------
  Alpha Z  1686.78850  1686.78850  1686.78850
  Ewald   -7140.15096 -7378.74208 -8012.11636  -390.15580   -41.23557  -293.25546
  Hartree  2677.32431  2465.48442  1855.16713  -350.16215   -20.53165  -266.00792
  E(xc)   -1386.63493 -1387.07149 -1386.61796    -0.38437    -0.86749     0.22733
  Local   -1220.66254  -773.85095   469.83839   740.38885    63.20157   557.11960
  n-local  -326.84022  -327.89559  -324.04450    -2.46802     1.35697    -2.99721
  augment   244.18312   244.40018   243.83719     0.34921    -0.37309     0.64310
  Kinetic  5465.94398  5470.73940  5467.06714     2.45273    -1.50691     4.24147
  Fock        0.00000     0.00000     0.00000     0.00000     0.00000     0.00000
  -------------------------------------------------------------------------------------
  Total      -0.04875    -0.14761    -0.08047     0.02044     0.04383    -0.02909
  in kB      -0.10885    -0.32962    -0.17970     0.04564     0.09788    -0.06495
  external pressure =       -0.21 kB  Pullay stress =        0.00 kB


 VOLUME and BASIS-vectors are now :
 -----------------------------------------------------------------------------
  energy-cutoff  :      300.00
  volume of cell :      717.50
      direct lattice vectors                 reciprocal lattice vectors
     6.892408682 -0.029262527 -0.008068941     0.145089924  0.000603934  0.000170798
    -0.042352771 10.177288888 -0.008468356     0.000417272  0.098259801  0.000084113
    -0.012004982 -0.008705106 10.228794659     0.000114799  0.000081825  0.097763434

  length of vectors
     6.892475524 10.177380536 10.228805408     0.145091281  0.098260723  0.097763536


 FORCES acting on ions
    electron-ion (+dipol)            ewald-force                    non-local-force                 convergence-correction
 -----------------------------------------------------------------------------------------------
   0.252E+02 -.987E+01 -.696E+02   -.245E+02 0.104E+02 0.692E+02   -.653E+00 -.526E+00 0.356E+00   0.107E-02 -.761E-03 0.136E-02
   -.213E+02 0.322E+02 -.990E+02   0.207E+02 -.317E+02 0.988E+02   0.647E+00 -.497E+00 0.281E+00   -.821E-03 0.178E-02 0.614E-03
   0.427E+02 0.187E+02 -.939E+02   -.424E+02 -.184E+02 0.944E+02   -.314E+00 -.355E+00 -.472E+00   0.237E-02 -.315E-02 0.905E-02
   -.583E+02 0.483E+01 0.446E+01   0.577E+02 -.487E+01 -.453E+01   0.586E+00 0.440E-01 0.606E-01   -.226E-02 -.517E-02 0.545E-02
   -.305E+02 -.154E+02 0.100E+03   0.301E+02 0.161E+02 -.101E+03   0.366E+00 -.669E+00 0.257E+00   -.197E-02 0.257E-02 0.119E-02
   0.127E+02 0.538E+02 0.805E+02   -.124E+02 -.537E+02 -.809E+02   -.312E+00 -.818E-01 0.453E+00   0.181E-03 -.191E-02 -.147E-01
   0.644E+02 -.189E+01 -.932E+02   -.635E+02 0.168E+01 0.928E+02   -.844E+00 0.206E+00 0.423E+00   0.174E-02 0.496E-02 -.101E-03
   0.551E+02 0.536E+02 0.838E+02   -.545E+02 -.541E+02 -.840E+02   -.683E+00 0.440E+00 0.258E+00   0.205E-02 0.785E-02 -.128E-01
   0.170E+02 0.279E+01 -.251E+02   -.173E+02 -.276E+01 0.243E+02   0.263E+00 -.417E-01 0.816E+00   0.183E-02 0.497E-02 -.112E-01
   0.214E+02 -.400E+02 -.367E+02   -.213E+02 0.400E+02 0.371E+02   -.470E-01 0.207E-01 -.431E+00   0.997E-03 -.368E-02 0.154E-01
   -.633E+00 0.501E+00 -.203E+02   0.960E+00 -.814E+00 0.209E+02   -.329E+00 0.315E+00 -.583E+00   0.104E-02 -.204E-02 0.105E-01
   0.277E+02 0.134E+02 -.244E+02   -.278E+02 -.133E+02 0.248E+02   0.101E+00 -.163E+00 -.416E+00   0.231E-02 0.192E-02 0.849E-02
   0.336E+02 0.744E+02 0.117E+02   -.333E+02 -.743E+02 -.119E+02   -.312E+00 -.104E+00 0.257E+00   0.111E-02 0.314E-02 -.754E-02
   -.486E+02 0.349E+02 0.566E+02   0.480E+02 -.350E+02 -.571E+02   0.542E+00 0.768E-01 0.467E+00   -.134E-02 0.427E-02 -.107E-01
   -.388E+02 -.515E+02 0.414E+02   0.388E+02 0.511E+02 -.419E+02   0.586E-01 0.403E+00 0.461E+00   -.242E-02 -.604E-02 -.582E-02
   -.167E+02 -.332E+02 -.244E+02   0.170E+02 0.338E+02 0.236E+02   -.324E+00 -.512E+00 0.809E+00   -.139E-02 0.275E-02 -.908E-02
   -.175E+02 -.391E+02 -.474E+02   0.175E+02 0.394E+02 0.480E+02   0.551E-01 -.288E+00 -.619E+00   -.621E-03 -.356E-02 0.116E-01
   0.102E+02 -.589E+02 -.151E+03   -.952E+01 0.577E+02 0.151E+03   -.706E+00 0.122E+01 0.184E+00   0.509E-03 -.513E-02 -.283E-01
   0.323E+02 -.316E+02 -.132E+03   -.329E+02 0.312E+02 0.133E+03   0.582E+00 0.381E+00 -.108E+01   -.305E-02 -.270E-02 0.237E-01
   0.135E+03 0.456E+02 0.115E+03   -.134E+03 -.459E+02 -.115E+03   -.999E+00 0.266E+00 0.157E+00   0.542E-02 -.125E-01 0.250E-01
   0.172E+03 0.132E+03 -.220E+03   -.171E+03 -.131E+03 0.221E+03   -.356E+00 -.195E+00 -.976E+00   0.795E-02 0.170E-01 0.153E-01
   -.169E+03 0.104E+03 -.225E+03   0.169E+03 -.105E+03 0.227E+03   0.252E+00 0.649E-01 -.142E+01   -.803E-02 0.247E-01 0.288E-01
   0.130E+03 -.891E+02 0.267E+03   -.130E+03 0.881E+02 -.268E+03   0.120E+00 0.101E+01 0.487E+00   0.158E-01 -.104E-01 -.642E-02
   -.270E+02 0.150E+03 0.163E+03   0.264E+02 -.149E+03 -.163E+03   0.604E+00 -.618E+00 0.437E+00   -.190E-02 -.755E-02 -.484E-01
   -.949E+02 0.173E+03 -.181E+02   0.945E+02 -.172E+03 0.178E+02   0.382E+00 -.553E+00 0.289E+00   -.371E-02 0.128E-01 -.180E-01
   -.101E+03 -.149E+03 0.587E+02   0.100E+03 0.148E+03 -.583E+02   0.215E+00 0.690E+00 -.396E+00   -.130E-01 -.514E-02 0.336E-01
   -.134E+03 -.920E+02 -.305E+03   0.133E+03 0.914E+02 0.305E+03   0.112E+01 0.515E+00 0.122E+00   -.327E-02 0.121E-01 -.103E-01
   0.687E+02 -.215E+03 0.240E+03   -.679E+02 0.215E+03 -.240E+03   -.797E+00 0.560E-01 -.858E-01   0.356E-02 -.111E-01 -.269E-01
   -.110E+03 0.713E+02 -.487E+02   0.110E+03 -.710E+02 0.490E+02   -.369E+00 -.290E+00 -.342E+00   -.107E-01 0.102E-01 0.259E-01
   -.267E+02 0.906E+02 0.882E+02   0.264E+02 -.902E+02 -.883E+02   0.319E+00 -.456E+00 0.159E+00   -.272E-02 -.475E-03 -.117E-01
   -.537E+02 -.277E+03 0.190E+03   0.531E+02 0.277E+03 -.190E+03   0.597E+00 -.272E+00 -.149E+00   -.384E-02 -.173E-01 -.318E-01
   -.848E+02 0.736E+02 -.207E+03   0.844E+02 -.735E+02 0.208E+03   0.459E+00 -.109E+00 -.578E+00   -.715E-02 -.743E-02 0.233E-01
   0.309E+02 0.149E+03 0.111E+03   -.306E+02 -.149E+03 -.112E+03   -.316E+00 0.550E-01 0.401E+00   0.208E-02 0.533E-02 -.106E-01
   -.778E+01 -.477E+02 0.649E+01   0.712E+01 0.470E+02 -.695E+01   0.670E+00 0.756E+00 0.483E+00   -.844E-03 -.618E-02 -.152E-01
   0.965E+02 -.757E+02 -.944E+01   -.963E+02 0.751E+02 0.103E+02   -.213E+00 0.561E+00 -.860E+00   0.740E-02 -.124E-03 0.341E-01
   0.654E+02 -.517E+02 0.233E+03   -.651E+02 0.522E+02 -.233E+03   -.320E+00 -.545E+00 -.111E+00   0.594E-02 0.654E-02 0.607E-02
 -----------------------------------------------------------------------------------------------
   -.312E-01 -.812E+00 0.896E+00   -.313E-12 0.156E-12 0.000E+00   0.400E-01 0.802E+00 -.897E+00   -.565E-02 0.106E-01 -.262E-03
 
 
 POSITION                                       TOTAL-FORCE (eV/Angst)
 -----------------------------------------------------------------------------------
      1.76393      8.56211      5.01728         0.000672      0.002626      0.001425
      5.06979      8.48692      5.04816         0.000730      0.002693     -0.001810
      1.76092      5.17038      1.78130         0.000810      0.005892     -0.003246
      5.03336      5.04935      5.20510         0.001622     -0.001474     -0.004874
      6.83154      0.24132     -0.00247        -0.000577     -0.003387     -0.000618
      5.17282      5.00486      8.36772         0.001050      0.002075      0.000019
      1.84304      1.65201      5.02727         0.001303     -0.003037      0.004923
      1.81099      1.59185      8.41410        -0.000310     -0.001260      0.003132
      3.36654     10.07090      6.70837         0.001029      0.002302     -0.005263
      3.47154      3.37744      3.43251        -0.004659      0.001131      0.001169
      0.04532      6.69890      3.63168        -0.002107      0.000153      0.006117
      1.62445      8.44718      1.75942         0.002529      0.000711     -0.003422
      0.03740      3.36142      6.71580        -0.000501     -0.000525     -0.003239
      4.96718      1.77029      8.37942        -0.002718      0.002458      0.005840
      3.37431      6.82854      6.81617         0.003636     -0.002443     -0.002499
     -0.00892      0.10415      6.66530        -0.002118      0.004463     -0.002630
      6.85296      3.38967      3.50797         0.003555     -0.000301     -0.000215
      0.03813      6.53658     10.19076         0.000918      0.000330      0.003380
      3.38595      6.74740      3.53401        -0.000163     -0.000580      0.006147
      1.83176      5.02073      5.12120        -0.000319     -0.002025      0.000789
      3.52076      0.00380      3.46144         0.000625      0.002907      0.003872
      6.85904     -0.01269      3.54184        -0.000352      0.002420      0.003407
     -0.02084      6.68725      6.71680        -0.002690     -0.003836     -0.006623
      1.58745      5.11335      8.45611        -0.002614      0.001496      0.000094
      3.32091      3.43474      6.75919         0.000233      0.001998     -0.004400
      5.12815      1.63053      1.79129         0.001802      0.001912     -0.004372
      5.03355      1.64784      5.08705        -0.003322     -0.003985      0.000927
      5.33221      8.38470      8.53000        -0.000253     -0.003315     -0.000716
      5.25140      8.46077      1.74681         0.003042     -0.002971      0.000377
      3.33182      3.44247      0.00061        -0.005654      0.005600      0.001442
      1.47812      8.52952      8.57355         0.005080     -0.001102      0.002111
      5.09843      5.16573      1.74618        -0.005047     -0.002572      0.003158
     -0.00747      3.34296     10.20752         0.001236     -0.001425      0.004906
      3.34897      6.71041     10.09842         0.002008     -0.002560      0.000455
      1.76076      1.59509      1.83132        -0.003303     -0.005625     -0.004988
      3.53469     -0.05128     -0.01949         0.004827      0.001255     -0.004774
 -----------------------------------------------------------------------------------
    total drift:                                0.003063      0.000001     -0.000830


--------------------------------------------------------------------------------------------------------



  FREE ENERGIE OF THE ION-ELECTRON SYSTEM (eV)
  ---------------------------------------------------
  free  energy   TOTEN  =      -363.60387304 eV

  energy  without entropy=     -363.62826282  energy(sigma->0) =     -363.61200297
 
 d Force = 0.1265236E-04[-0.555E-05, 0.309E-04]  d Energy = 0.2052912E-04-0.788E-05
 d Force = 0.2718480E+00[ 0.271E+00, 0.273E+00]  d Ewald  = 0.1163990E+01-0.892E+00


--------------------------------------------------------------------------------------------------------


    POTLOK:  cpu time    0.0351: real time    0.0353


--------------------------------------------------------------------------------------------------------




--------------------------------------------------------------------------------------------------------


  
 reached required accuracy - stopping structural energy minimisation
     LOOP+:  cpu time    4.9391: real time    5.7355
    4ORBIT:  cpu time    0.0000: real time    0.0000

 total amount of memory used by VASP on root node    68726. kBytes
========================================================================

   base      :      30000. kBytes
   nonlr-proj:      10688. kBytes
   fftplans  :       2814. kBytes
   grid      :       5360. kBytes
   one-center:        124. kBytes
   wavefun   :      19740. kBytes
 
  
  
 General timing and accounting informations for this job:
 ========================================================
  
                  Total CPU time used (sec):      285.632
                            User time (sec):      284.561
                          System time (sec):        1.071
                         Elapsed time (sec):      325.006
  
                   Maximum memory used (kb):      297404.
                   Average memory used (kb):           0.
  
                          Minor page faults:       148153
                          Major page faults:           30
                 Voluntary context switches:        10048
