<?xml version="1.0" encoding="ISO-8859-1"?>
<modeling>
 <generator>
  <i name="program" type="string">vasp </i>
  <i name="version" type="string">5.4.1  </i>
  <i name="subversion" type="string">05Feb16 (build Jan 29 2020 16:04:39) complex                          parallel </i>
  <i name="platform" type="string">IFC91_ompi </i>
  <i name="date" type="string">2020 06 15 </i>
  <i name="time" type="string">04:35:28 </i>
 </generator>
 <incar>
  <i type="string" name="SYSTEM"> automatically generated by mexm</i>
  <i type="int" name="ISTART">     0</i>
  <i type="string" name="PREC">accurate               ! avoid wrap aro</i>
  <i type="string" name="ALGO"> Fast                   ! blocked Davids</i>
  <i type="int" name="ISPIN">     1</i>
  <i type="int" name="ICHARG">     2</i>
  <i type="int" name="NELM">    70</i>
  <i type="int" name="IBRION">     2</i>
  <i name="EDIFF">      0.00001000</i>
  <i name="EDIFFG">     -0.01000000</i>
  <i type="int" name="NSW">   300</i>
  <i type="int" name="ISIF">     3</i>
  <i type="int" name="ISYM">     1</i>
  <i name="ENCUT">    300.00000000</i>
  <i name="POTIM">      0.15000000</i>
  <i type="string" name="LREAL"> Auto                  ! unpublished met</i>
  <i type="int" name="ISMEAR">     1</i>
  <i name="SIGMA">      0.15000000</i>
  <i type="logical" name="LWAVE"> F  </i>
  <i type="logical" name="LCHARG"> F  </i>
  <i type="logical" name="LVTOT"> F  </i>
  <v type="int" name="KPOINT_BSE">    -1     0     0     0</v>
  <i type="int" name="NELM">    70</i>
 </incar>
 <kpoints>
  <generation param="Gamma">
   <v type="int" name="divisions">       3        3        3 </v>
   <v name="usershift">      0.00000000       0.00000000       0.00000000 </v>
   <v name="genvec1">      0.33333333      -0.00000000       0.00000000 </v>
   <v name="genvec2">     -0.00000000       0.33333333       0.00000000 </v>
   <v name="genvec3">      0.00000000       0.00000000       0.33333333 </v>
   <v name="shift">      0.00000000       0.00000000       0.00000000 </v>
  </generation>
  <varray name="kpointlist" >
   <v>       0.00000000       0.00000000       0.00000000 </v>
   <v>       0.33333333      -0.00000000       0.00000000 </v>
   <v>      -0.00000000       0.33333333       0.00000000 </v>
   <v>       0.33333333       0.33333333       0.00000000 </v>
   <v>      -0.33333333       0.33333333       0.00000000 </v>
   <v>       0.00000000       0.00000000       0.33333333 </v>
   <v>       0.33333333       0.00000000       0.33333333 </v>
   <v>      -0.33333333      -0.00000000       0.33333333 </v>
   <v>      -0.00000000       0.33333333       0.33333333 </v>
   <v>       0.33333333       0.33333333       0.33333333 </v>
   <v>      -0.33333333       0.33333333       0.33333333 </v>
   <v>       0.00000000      -0.33333333       0.33333333 </v>
   <v>       0.33333333      -0.33333333       0.33333333 </v>
   <v>      -0.33333333      -0.33333333       0.33333333 </v>
  </varray>
  <varray name="weights" >
   <v>       0.03703704 </v>
   <v>       0.07407407 </v>
   <v>       0.07407407 </v>
   <v>       0.07407407 </v>
   <v>       0.07407407 </v>
   <v>       0.07407407 </v>
   <v>       0.07407407 </v>
   <v>       0.07407407 </v>
   <v>       0.07407407 </v>
   <v>       0.07407407 </v>
   <v>       0.07407407 </v>
   <v>       0.07407407 </v>
   <v>       0.07407407 </v>
   <v>       0.07407407 </v>
  </varray>
 </kpoints>
 <parameters>
  <separator name="general" >
   <i type="string" name="SYSTEM">automatically generated by mexm</i>
   <i type="logical" name="LCOMPAT"> F  </i>
  </separator>
  <separator name="electronic" >
   <i type="string" name="PREC">accura</i>
   <i name="ENMAX">    300.00000000</i>
   <i name="ENAUG">    461.25700000</i>
   <i name="EDIFF">      0.00001000</i>
   <i type="int" name="IALGO">    68</i>
   <i type="int" name="IWAVPR">    11</i>
   <i type="int" name="NBANDS">   184</i>
   <i name="NELECT">    302.00000000</i>
   <i type="int" name="TURBO">     0</i>
   <i type="int" name="IRESTART">     0</i>
   <i type="int" name="NREBOOT">     0</i>
   <i type="int" name="NMIN">     0</i>
   <i name="EREF">      0.00000000</i>
   <separator name="electronic smearing" >
    <i type="int" name="ISMEAR">     1</i>
    <i name="SIGMA">      0.15000000</i>
    <i name="KSPACING">      0.50000000</i>
    <i type="logical" name="KGAMMA"> T  </i>
   </separator>
   <separator name="electronic projectors" >
    <i type="logical" name="LREAL"> T  </i>
    <v name="ROPT">     -0.00025000     -0.00025000     -0.00025000     -0.00025000</v>
    <i type="int" name="LMAXPAW">  -100</i>
    <i type="int" name="LMAXMIX">     2</i>
    <i type="logical" name="NLSPLINE"> F  </i>
   </separator>
   <separator name="electronic startup" >
    <i type="int" name="ISTART">     0</i>
    <i type="int" name="ICHARG">     2</i>
    <i type="int" name="INIWAV">     1</i>
   </separator>
   <separator name="electronic spin" >
    <i type="int" name="ISPIN">     1</i>
    <i type="logical" name="LNONCOLLINEAR"> F  </i>
    <v name="MAGMOM">      1.00000000      1.00000000      1.00000000      1.00000000      1.00000000      1.00000000      1.00000000      1.00000000      1.00000000      1.00000000      1.00000000      1.00000000      1.00000000      1.00000000      1.00000000      1.00000000      1.00000000      1.00000000      1.00000000      1.00000000
      1.00000000      1.00000000      1.00000000      1.00000000      1.00000000      1.00000000      1.00000000      1.00000000      1.00000000      1.00000000      1.00000000      1.00000000      1.00000000      1.00000000      1.00000000      1.00000000</v>
    <i name="NUPDOWN">     -1.00000000</i>
    <i type="logical" name="LSORBIT"> F  </i>
    <v name="SAXIS">      0.00000000      0.00000000      1.00000000</v>
    <i type="logical" name="LSPIRAL"> F  </i>
    <v name="QSPIRAL">      0.00000000      0.00000000      0.00000000</v>
    <i type="logical" name="LZEROZ"> F  </i>
   </separator>
   <separator name="electronic exchange-correlation" >
    <i type="logical" name="LASPH"> F  </i>
    <i type="logical" name="LMETAGGA"> F  </i>
   </separator>
   <separator name="electronic convergence" >
    <i type="int" name="NELM">    70</i>
    <i type="int" name="NELMDL">    -5</i>
    <i type="int" name="NELMIN">     2</i>
    <i name="ENINI">    300.00000000</i>
    <separator name="electronic convergence detail" >
     <i type="logical" name="LDIAG"> T  </i>
     <i type="logical" name="LSUBROT"> F  </i>
     <i name="WEIMIN">      0.00100000</i>
     <i name="EBREAK">      0.00000001</i>
     <i name="DEPER">      0.30000000</i>
     <i type="int" name="NRMM">     4</i>
     <i name="TIME">      0.40000000</i>
    </separator>
   </separator>
   <separator name="electronic mixer" >
    <i name="AMIX">      0.40000000</i>
    <i name="BMIX">      1.00000000</i>
    <i name="AMIN">      0.10000000</i>
    <i name="AMIX_MAG">      1.60000000</i>
    <i name="BMIX_MAG">      1.00000000</i>
    <separator name="electronic mixer details" >
     <i type="int" name="IMIX">     4</i>
     <i type="logical" name="MIXFIRST"> F  </i>
     <i type="int" name="MAXMIX">   -45</i>
     <i name="WC">    100.00000000</i>
     <i type="int" name="INIMIX">     1</i>
     <i type="int" name="MIXPRE">     1</i>
     <i type="int" name="MREMOVE">     5</i>
    </separator>
   </separator>
   <separator name="electronic dipolcorrection" >
    <i type="logical" name="LDIPOL"> F  </i>
    <i type="logical" name="LMONO"> F  </i>
    <i type="int" name="IDIPOL">     0</i>
    <i name="EPSILON">      1.00000000</i>
    <v name="DIPOL">   -100.00000000   -100.00000000   -100.00000000</v>
    <i name="EFIELD">      0.00000000</i>
   </separator>
  </separator>
  <separator name="grids" >
   <i type="int" name="NGX">    40</i>
   <i type="int" name="NGY">    60</i>
   <i type="int" name="NGZ">    60</i>
   <i type="int" name="NGXF">    80</i>
   <i type="int" name="NGYF">   120</i>
   <i type="int" name="NGZF">   120</i>
   <i type="logical" name="ADDGRID"> F  </i>
  </separator>
  <separator name="ionic" >
   <i type="int" name="NSW">   300</i>
   <i type="int" name="IBRION">     2</i>
   <i type="int" name="ISIF">     3</i>
   <i name="PSTRESS">      0.00000000</i>
   <i name="EDIFFG">     -0.01000000</i>
   <i type="int" name="NFREE">     1</i>
   <i name="POTIM">      0.15000000</i>
   <i name="SMASS">     -3.00000000</i>
   <i name="SCALEE">      1.00000000</i>
  </separator>
  <separator name="ionic md" >
   <i name="TEBEG">      0.00010000</i>
   <i name="TEEND">      0.00010000</i>
   <i type="int" name="NBLOCK">     1</i>
   <i type="int" name="KBLOCK">   300</i>
   <i type="int" name="NPACO">   256</i>
   <i name="APACO">     16.00000000</i>
  </separator>
  <separator name="symmetry" >
   <i type="int" name="ISYM">     1</i>
   <i name="SYMPREC">      0.00001000</i>
  </separator>
  <separator name="dos" >
   <i type="logical" name="LORBIT"> F  </i>
   <v name="RWIGS">     -1.00000000     -1.00000000     -1.00000000     -1.00000000</v>
   <i type="int" name="NEDOS">   301</i>
   <i name="EMIN">     10.00000000</i>
   <i name="EMAX">    -10.00000000</i>
   <i name="EFERMI">      0.00000000</i>
  </separator>
  <separator name="writing" >
   <i type="int" name="NWRITE">     2</i>
   <i type="logical" name="LWAVE"> F  </i>
   <i type="logical" name="LCHARG"> F  </i>
   <i type="logical" name="LPARD"> F  </i>
   <i type="logical" name="LVTOT"> F  </i>
   <i type="logical" name="LVHAR"> F  </i>
   <i type="logical" name="LELF"> F  </i>
   <i type="logical" name="LOPTICS"> F  </i>
   <v name="STM">      0.00000000      0.00000000      0.00000000      0.00000000      0.00000000      0.00000000      0.00000000</v>
  </separator>
  <separator name="performance" >
   <i type="int" name="NPAR">     4</i>
   <i type="int" name="NSIM">     4</i>
   <i type="int" name="NBLK">    -1</i>
   <i type="logical" name="LPLANE"> T  </i>
   <i type="logical" name="LSCALAPACK"> T  </i>
   <i type="logical" name="LSCAAWARE"> F  </i>
   <i type="logical" name="LSCALU"> F  </i>
   <i type="logical" name="LASYNC"> F  </i>
   <i type="logical" name="LORBITALREAL"> F  </i>
  </separator>
  <separator name="miscellaneous" >
   <i type="int" name="IDIOT">     3</i>
   <i type="logical" name="LMUSIC"> F  </i>
   <v name="POMASS">    178.49000000     91.22400000     92.91000000    180.94800000</v>
   <v name="DARWINR">      0.00000000      0.00000000      0.00000000      0.00000000</v>
   <v name="DARWINV">      1.00000000      1.00000000      1.00000000      1.00000000</v>
   <i type="logical" name="LCORR"> T  </i>
  </separator>
  <i type="logical" name="GGA_COMPAT"> T  </i>
  <i type="logical" name="LBERRY"> F  </i>
  <i type="int" name="ICORELEVEL">     0</i>
  <i type="logical" name="LDAU"> F  </i>
  <i type="int" name="I_CONSTRAINED_M">     0</i>
  <separator name="electronic exchange-correlation" >
   <i type="string" name="GGA">--</i>
   <i type="int" name="VOSKOWN">     0</i>
   <i type="logical" name="LHFCALC"> F  </i>
   <i type="string" name="PRECFOCK"></i>
   <i type="logical" name="LSYMGRAD"> F  </i>
   <i type="logical" name="LHFONE"> F  </i>
   <i type="logical" name="LRHFCALC"> F  </i>
   <i type="logical" name="LTHOMAS"> F  </i>
   <i type="logical" name="LMODELHF"> F  </i>
   <i name="ENCUT4O">     -1.00000000</i>
   <i type="int" name="EXXOEP">     0</i>
   <i type="int" name="FOURORBIT">     0</i>
   <i name="AEXX">      0.00000000</i>
   <i name="HFALPHA">      0.00000000</i>
   <i name="MCALPHA">      0.00000000</i>
   <i name="ALDAX">      1.00000000</i>
   <i name="AGGAX">      1.00000000</i>
   <i name="ALDAC">      1.00000000</i>
   <i name="AGGAC">      1.00000000</i>
   <i type="int" name="NKREDX">     1</i>
   <i type="int" name="NKREDY">     1</i>
   <i type="int" name="NKREDZ">     1</i>
   <i type="logical" name="SHIFTRED"> F  </i>
   <i type="logical" name="ODDONLY"> F  </i>
   <i type="logical" name="EVENONLY"> F  </i>
   <i type="int" name="LMAXFOCK">     0</i>
   <i type="int" name="NMAXFOCKAE">     0</i>
   <i type="logical" name="LFOCKAEDFT"> F  </i>
   <i name="HFSCREEN">      0.00000000</i>
   <i name="HFSCREENC">      0.00000000</i>
   <i type="int" name="NBANDSGWLOW">     0</i>
  </separator>
  <separator name="vdW DFT" >
   <i type="logical" name="LUSE_VDW"> F  </i>
   <i name="Zab_VDW">     -0.84910000</i>
   <i name="PARAM1">      0.12340000</i>
   <i name="PARAM2">      1.00000000</i>
   <i name="PARAM3">      0.00000000</i>
  </separator>
  <separator name="model GW" >
   <i type="int" name="MODEL_GW">     0</i>
   <i name="MODEL_EPS0">     11.78478053</i>
   <i name="MODEL_ALPHA">      1.00000000</i>
  </separator>
  <separator name="linear response parameters" >
   <i type="logical" name="LEPSILON"> F  </i>
   <i type="logical" name="LRPA"> F  </i>
   <i type="logical" name="LNABLA"> F  </i>
   <i type="logical" name="LVEL"> F  </i>
   <i type="int" name="KINTER">     0</i>
   <i name="CSHIFT">      0.10000000</i>
   <i name="OMEGAMAX">     -1.00000000</i>
   <i name="DEG_THRESHOLD">      0.00200000</i>
  </separator>
  <separator name="orbital magnetization" >
   <i type="logical" name="NUCIND"> F  </i>
   <v name="MAGPOS">      0.00000000      0.00000000      0.00000000</v>
   <i type="logical" name="LNICSALL"> T  </i>
   <i type="logical" name="ORBITALMAG"> F  </i>
   <i type="logical" name="LMAGBLOCH"> F  </i>
   <i type="logical" name="LCHIMAG"> F  </i>
   <i type="logical" name="LGAUGE"> T  </i>
   <i type="int" name="MAGATOM">     0</i>
   <v name="MAGDIPOL">      0.00000000      0.00000000      0.00000000</v>
   <v name="AVECCONST">      0.00000000      0.00000000      0.00000000</v>
  </separator>
  <separator name="response functions" >
   <i type="logical" name="LADDER"> F  </i>
   <i type="logical" name="LFXC"> F  </i>
   <i type="logical" name="LHARTREE"> T  </i>
   <i type="int" name="IBSE">     0</i>
   <v type="int" name="KPOINT">    -1     0     0     0</v>
   <i type="logical" name="LTCTE"> F  </i>
   <i type="logical" name="LTETE"> F  </i>
   <i type="logical" name="LTRIPLET"> F  </i>
   <i type="logical" name="LFXCEPS"> F  </i>
   <i type="logical" name="LFXHEG"> F  </i>
   <i type="int" name="NATURALO">     0</i>
   <i type="logical" name="L2ORDER"> F  </i>
   <i type="logical" name="LUSEW"> F  </i>
   <i name="ENCUTGW">     -2.00000000</i>
   <i name="ENCUTGWSOFT">     -2.00000000</i>
   <i name="ENCUTLF">     -1.00000000</i>
   <i type="int" name="LMAXMP2">    -1</i>
   <i name="SCISSOR">      0.00000000</i>
   <i type="int" name="NOMEGA">     0</i>
   <i type="int" name="NOMEGAR">     0</i>
   <i type="int" name="NBANDSGW">    -1</i>
   <i type="int" name="NBANDSO">    -1</i>
   <i type="int" name="NBANDSV">    -1</i>
   <i type="int" name="NELM">    70</i>
   <i type="int" name="NELMHF">     1</i>
   <i type="int" name="DIM">     3</i>
   <i type="int" name="ANTIRES">     0</i>
   <i name="OMEGAMAX">    -30.00000000</i>
   <i name="OMEGAMIN">    -30.00000000</i>
   <i name="OMEGATL">   -200.00000000</i>
   <i type="int" name="OMEGAGRID">     0</i>
   <i name="CSHIFT">     -0.10000000</i>
   <i type="logical" name="SELFENERGY"> F  </i>
   <i type="logical" name="LSPECTRAL"> F  </i>
   <i type="logical" name="LSPECTRALGW"> F  </i>
   <i type="logical" name="LSINGLES"> F  </i>
   <i type="logical" name="LFERMIGW"> F  </i>
   <i type="logical" name="ODDONLYGW"> F  </i>
   <i type="logical" name="EVENONLYGW"> F  </i>
   <i type="int" name="NKREDLFX">     1</i>
   <i type="int" name="NKREDLFY">     1</i>
   <i type="int" name="NKREDLFZ">     1</i>
   <i type="int" name="MAXMEM">  1800</i>
   <i type="int" name="TELESCOPE">     0</i>
   <i type="int" name="TAUPAR">     1</i>
   <i type="int" name="OMEGAPAR">    -1</i>
   <i name="LAMBDA">      1.00000000</i>
  </separator>
  <separator name="External order field" >
   <i name="OFIELD_KAPPA">      0.00000000</i>
   <v name="OFIELD_K">      0.00000000      0.00000000      0.00000000</v>
   <i name="OFIELD_Q6_NEAR">      0.00000000</i>
   <i name="OFIELD_Q6_FAR">      0.00000000</i>
   <i name="OFIELD_A">      0.00000000</i>
  </separator>
 </parameters>
 <atominfo>
  <atoms>      36 </atoms>
  <types>       4 </types>
  <array name="atoms" >
   <dimension dim="1">ion</dimension>
   <field type="string">element</field>
   <field type="int">atomtype</field>
   <set>
    <rc><c>Hf</c><c>   1</c></rc>
    <rc><c>Hf</c><c>   1</c></rc>
    <rc><c>Hf</c><c>   1</c></rc>
    <rc><c>Hf</c><c>   1</c></rc>
    <rc><c>Hf</c><c>   1</c></rc>
    <rc><c>Hf</c><c>   1</c></rc>
    <rc><c>Hf</c><c>   1</c></rc>
    <rc><c>Zr</c><c>   2</c></rc>
    <rc><c>Zr</c><c>   2</c></rc>
    <rc><c>Zr</c><c>   2</c></rc>
    <rc><c>Zr</c><c>   2</c></rc>
    <rc><c>Zr</c><c>   2</c></rc>
    <rc><c>Zr</c><c>   2</c></rc>
    <rc><c>Zr</c><c>   2</c></rc>
    <rc><c>Nb</c><c>   3</c></rc>
    <rc><c>Nb</c><c>   3</c></rc>
    <rc><c>Nb</c><c>   3</c></rc>
    <rc><c>Nb</c><c>   3</c></rc>
    <rc><c>Nb</c><c>   3</c></rc>
    <rc><c>Nb</c><c>   3</c></rc>
    <rc><c>Nb</c><c>   3</c></rc>
    <rc><c>Nb</c><c>   3</c></rc>
    <rc><c>Nb</c><c>   3</c></rc>
    <rc><c>Nb</c><c>   3</c></rc>
    <rc><c>Ta</c><c>   4</c></rc>
    <rc><c>Ta</c><c>   4</c></rc>
    <rc><c>Ta</c><c>   4</c></rc>
    <rc><c>Ta</c><c>   4</c></rc>
    <rc><c>Ta</c><c>   4</c></rc>
    <rc><c>Ta</c><c>   4</c></rc>
    <rc><c>Ta</c><c>   4</c></rc>
    <rc><c>Ta</c><c>   4</c></rc>
    <rc><c>Ta</c><c>   4</c></rc>
    <rc><c>Ta</c><c>   4</c></rc>
    <rc><c>Ta</c><c>   4</c></rc>
    <rc><c>Ta</c><c>   4</c></rc>
   </set>
  </array>
  <array name="atomtypes" >
   <dimension dim="1">type</dimension>
   <field type="int">atomspertype</field>
   <field type="string">element</field>
   <field>mass</field>
   <field>valence</field>
   <field type="string">pseudopotential</field>
   <set>
    <rc><c>   7</c><c>Hf</c><c>    178.49000000</c><c>      4.00000000</c><c>  PAW_PBE Hf 20Jan2003                  </c></rc>
    <rc><c>   7</c><c>Zr</c><c>     91.22400000</c><c>     12.00000000</c><c>  PAW_PBE Zr_sv 04Jan2005               </c></rc>
    <rc><c>  10</c><c>Nb</c><c>     92.91000000</c><c>     13.00000000</c><c>  PAW_PBE Nb_sv 25May2007               </c></rc>
    <rc><c>  12</c><c>Ta</c><c>    180.94800000</c><c>      5.00000000</c><c>  PAW_PBE Ta 17Jan2003                  </c></rc>
   </set>
  </array>
 </atominfo>
 <structure name="initialpos" >
  <crystal>
   <varray name="basis" >
    <v>       6.80166045       0.00530756      -0.00109743 </v>
    <v>       0.00807607      10.20606231      -0.00631520 </v>
    <v>      -0.00152143      -0.00615557      10.18591452 </v>
   </varray>
   <i name="volume">    707.08683160 </i>
   <varray name="rec_basis" >
    <v>       0.14702302      -0.00011633       0.00002189 </v>
    <v>      -0.00007645       0.09798108       0.00005920 </v>
    <v>       0.00001579       0.00006074       0.09817483 </v>
   </varray>
  </crystal>
  <varray name="positions" >
   <v>       0.74399400       0.16221700       0.49266600 </v>
   <v>       0.75442200       0.83132600       0.82377800 </v>
   <v>       0.49846400       0.34140500       0.99461600 </v>
   <v>       0.24334600       0.17205100       0.17570500 </v>
   <v>       0.00341500       0.33932200       0.66439200 </v>
   <v>       0.24390800       0.83310600       0.50158800 </v>
   <v>       0.75438000       0.14732900       0.82799800 </v>
   <v>       0.76830700       0.48821900       0.17737900 </v>
   <v>       0.50209700       0.66909800       0.32870400 </v>
   <v>       0.24497100       0.14208200       0.83004100 </v>
   <v>       0.00437500       0.34058400       0.98514900 </v>
   <v>       0.50408600       0.99395100       0.01521600 </v>
   <v>       0.49774100       0.34250300       0.67264600 </v>
   <v>       0.49407800       0.66534300       0.00628900 </v>
   <v>       0.50314000       0.99451300       0.32674300 </v>
   <v>       0.99468000       0.99773500       0.33076200 </v>
   <v>       0.25311100       0.16110100       0.49209300 </v>
   <v>       0.00444700       0.00012100       0.65689900 </v>
   <v>       0.99822000       0.66787700       0.33356500 </v>
   <v>       0.00039500       0.66249500       0.66357900 </v>
   <v>       0.49551500       0.99262100       0.65489000 </v>
   <v>       0.50002100       0.66320700       0.66281200 </v>
   <v>       0.00612000       0.33476600       0.34916400 </v>
   <v>       0.49344200       0.33768700       0.34180100 </v>
   <v>       0.75528100       0.83731700       0.50316800 </v>
   <v>       0.23589200       0.48978100       0.17892400 </v>
   <v>       0.24663800       0.50773600       0.49733200 </v>
   <v>       0.24304500       0.52641700       0.82580900 </v>
   <v>       0.00811600       0.67057800       0.00194700 </v>
   <v>       0.22774000       0.83879400       0.17476200 </v>
   <v>       0.75303800       0.50161900       0.49447900 </v>
   <v>       0.77225400       0.83501200       0.17248000 </v>
   <v>       0.99497700       0.98737700       0.01046700 </v>
   <v>       0.75280900       0.16981900       0.17890100 </v>
   <v>       0.24416100       0.83109600       0.82468000 </v>
   <v>       0.75937200       0.52379700       0.82857300 </v>
  </varray>
 </structure>
 <calculation>
  <scstep>
   <time name="dav">    1.07    1.09</time>
   <time name="total">    1.20    1.51</time>
   <energy>
    <i name="alphaZ">   1635.94927934 </i>
    <i name="ewald"> -21084.53534878 </i>
    <i name="hartreedc">  -6553.14664801 </i>
    <i name="XCdc">   -252.83627504 </i>
    <i name="pawpsdc">  22502.56240596 </i>
    <i name="pawaedc"> -20878.70648083 </i>
    <i name="eentropy">     -0.00423893 </i>
    <i name="bandstr">    -68.06489395 </i>
    <i name="atom">  26639.39332331 </i>
    <i name="e_fr_energy">   1940.61112306 </i>
    <i name="e_wo_entrp">   1940.61536200 </i>
    <i name="e_0_energy">   1940.61253604 </i>
   </energy>
  </scstep>
  <scstep>
   <time name="dav">    1.21    1.26</time>
   <time name="total">    1.23    1.45</time>
   <energy>
    <i name="e_fr_energy">    -95.23759234 </i>
    <i name="e_wo_entrp">    -95.24167247 </i>
    <i name="e_0_energy">    -95.23895238 </i>
   </energy>
  </scstep>
  <scstep>
   <time name="dav">    1.62    1.66</time>
   <time name="total">    1.62    1.69</time>
   <energy>
    <i name="e_fr_energy">   -353.91328839 </i>
    <i name="e_wo_entrp">   -353.92081222 </i>
    <i name="e_0_energy">   -353.91579633 </i>
   </energy>
  </scstep>
  <scstep>
   <time name="dav">    1.60    1.62</time>
   <time name="total">    1.60    1.65</time>
   <energy>
    <i name="e_fr_energy">   -382.94553721 </i>
    <i name="e_wo_entrp">   -382.96731280 </i>
    <i name="e_0_energy">   -382.95279574 </i>
   </energy>
  </scstep>
  <scstep>
   <time name="dav">    1.44    1.45</time>
   <time name="total">    1.48    1.52</time>
   <energy>
    <i name="e_fr_energy">   -385.85846010 </i>
    <i name="e_wo_entrp">   -385.87918775 </i>
    <i name="e_0_energy">   -385.86536932 </i>
   </energy>
  </scstep>
  <scstep>
   <time name="diag">    0.08    0.08</time>
   <time name="diis">    0.83    0.83</time>
   <time name="orth">    0.01    0.01</time>
   <time name="total">    1.01    1.06</time>
   <energy>
    <i name="e_fr_energy">   -375.37665833 </i>
    <i name="e_wo_entrp">   -375.40968494 </i>
    <i name="e_0_energy">   -375.38766720 </i>
   </energy>
  </scstep>
  <scstep>
   <time name="diag">    0.09    0.09</time>
   <time name="diis">    0.82    0.83</time>
   <time name="orth">    0.01    0.01</time>
   <time name="total">    0.99    1.04</time>
   <energy>
    <i name="e_fr_energy">   -379.81992342 </i>
    <i name="e_wo_entrp">   -379.82332634 </i>
    <i name="e_0_energy">   -379.82105773 </i>
   </energy>
  </scstep>
  <scstep>
   <time name="diag">    0.08    0.08</time>
   <time name="diis">    0.77    0.78</time>
   <time name="orth">    0.01    0.01</time>
   <time name="total">    0.94    0.98</time>
   <energy>
    <i name="e_fr_energy">   -370.94507946 </i>
    <i name="e_wo_entrp">   -370.96354712 </i>
    <i name="e_0_energy">   -370.95123535 </i>
   </energy>
  </scstep>
  <scstep>
   <time name="diag">    0.08    0.09</time>
   <time name="diis">    0.86    0.87</time>
   <time name="orth">    0.01    0.01</time>
   <time name="total">    1.06    1.11</time>
   <energy>
    <i name="e_fr_energy">   -370.60163819 </i>
    <i name="e_wo_entrp">   -370.61982685 </i>
    <i name="e_0_energy">   -370.60770108 </i>
   </energy>
  </scstep>
  <scstep>
   <time name="diag">    0.19    0.20</time>
   <time name="diis">    0.82    0.86</time>
   <time name="orth">    0.01    0.01</time>
   <time name="total">    1.10    1.20</time>
   <energy>
    <i name="e_fr_energy">   -370.55987148 </i>
    <i name="e_wo_entrp">   -370.58046357 </i>
    <i name="e_0_energy">   -370.56673551 </i>
   </energy>
  </scstep>
  <scstep>
   <time name="diag">    0.16    0.16</time>
   <time name="diis">    0.82    0.82</time>
   <time name="orth">    0.01    0.01</time>
   <time name="total">    1.06    1.10</time>
   <energy>
    <i name="e_fr_energy">   -370.52276140 </i>
    <i name="e_wo_entrp">   -370.54109388 </i>
    <i name="e_0_energy">   -370.52887223 </i>
   </energy>
  </scstep>
  <scstep>
   <time name="diag">    0.08    0.08</time>
   <time name="diis">    0.83    0.83</time>
   <time name="orth">    0.01    0.01</time>
   <time name="total">    0.99    1.03</time>
   <energy>
    <i name="e_fr_energy">   -370.51377052 </i>
    <i name="e_wo_entrp">   -370.53249705 </i>
    <i name="e_0_energy">   -370.52001269 </i>
   </energy>
  </scstep>
  <scstep>
   <time name="diag">    0.08    0.08</time>
   <time name="diis">    0.86    0.87</time>
   <time name="orth">    0.01    0.01</time>
   <time name="total">    1.03    1.08</time>
   <energy>
    <i name="e_fr_energy">   -370.51003777 </i>
    <i name="e_wo_entrp">   -370.52839653 </i>
    <i name="e_0_energy">   -370.51615735 </i>
   </energy>
  </scstep>
  <scstep>
   <time name="diag">    0.09    0.09</time>
   <time name="diis">    0.83    0.83</time>
   <time name="orth">    0.01    0.01</time>
   <time name="total">    1.04    1.08</time>
   <energy>
    <i name="e_fr_energy">   -370.50911340 </i>
    <i name="e_wo_entrp">   -370.52760859 </i>
    <i name="e_0_energy">   -370.51527846 </i>
   </energy>
  </scstep>
  <scstep>
   <time name="diag">    0.08    0.08</time>
   <time name="diis">    0.90    0.91</time>
   <time name="orth">    0.01    0.01</time>
   <time name="total">    1.07    1.11</time>
   <energy>
    <i name="e_fr_energy">   -370.50906867 </i>
    <i name="e_wo_entrp">   -370.52750291 </i>
    <i name="e_0_energy">   -370.51521342 </i>
   </energy>
  </scstep>
  <scstep>
   <time name="diag">    0.08    0.08</time>
   <time name="diis">    0.79    0.79</time>
   <time name="orth">    0.01    0.01</time>
   <time name="total">    0.95    0.99</time>
   <energy>
    <i name="e_fr_energy">   -370.50907644 </i>
    <i name="e_wo_entrp">   -370.52765825 </i>
    <i name="e_0_energy">   -370.51527038 </i>
   </energy>
  </scstep>
  <scstep>
   <time name="diag">    0.08    0.08</time>
   <time name="diis">    0.72    0.73</time>
   <time name="orth">    0.01    0.01</time>
   <time name="total">    0.88    0.92</time>
   <energy>
    <i name="e_fr_energy">   -370.50899652 </i>
    <i name="e_wo_entrp">   -370.52748188 </i>
    <i name="e_0_energy">   -370.51515831 </i>
   </energy>
  </scstep>
  <scstep>
   <time name="diag">    0.08    0.08</time>
   <time name="diis">    0.70    0.71</time>
   <time name="orth">    0.01    0.01</time>
   <time name="total">    0.86    0.90</time>
   <energy>
    <i name="e_fr_energy">   -370.50899017 </i>
    <i name="e_wo_entrp">   -370.52751402 </i>
    <i name="e_0_energy">   -370.51516478 </i>
   </energy>
  </scstep>
  <scstep>
   <time name="diag">    0.08    0.08</time>
   <time name="diis">    0.56    0.57</time>
   <time name="orth">    0.02    0.02</time>
   <time name="total">    0.81    0.85</time>
   <energy>
    <i name="e_fr_energy">   -370.50899526 </i>
    <i name="e_wo_entrp">   -370.52747850 </i>
    <i name="e_0_energy">   -370.51515634 </i>
   </energy>
  </scstep>
  <scstep>
   <time name="diag">    0.12    0.12</time>
   <time name="diis">    0.43    0.45</time>
   <time name="orth">    0.01    0.01</time>
   <time name="total">    0.74    0.79</time>
   <energy>
    <i name="alphaZ">   1635.94927934 </i>
    <i name="ewald"> -21084.53534878 </i>
    <i name="hartreedc">  -6310.77412215 </i>
    <i name="XCdc">   -253.34630129 </i>
    <i name="pawpsdc">  35226.42675855 </i>
    <i name="pawaedc"> -33581.70600655 </i>
    <i name="eentropy">      0.01849860 </i>
    <i name="bandstr">  -2641.93507544 </i>
    <i name="atom">  26639.39332331 </i>
    <i name="e_fr_energy">   -370.50899441 </i>
    <i name="e_wo_entrp">   -370.52749301 </i>
    <i name="e_0_energy">   -370.51516061 </i>
   </energy>
  </scstep>
  <structure>
   <crystal>
    <varray name="basis" >
     <v>       6.80166045       0.00530756      -0.00109743 </v>
     <v>       0.00807607      10.20606231      -0.00631520 </v>
     <v>      -0.00152143      -0.00615557      10.18591452 </v>
    </varray>
    <i name="volume">    707.08683160 </i>
    <varray name="rec_basis" >
     <v>       0.14702302      -0.00011633       0.00002189 </v>
     <v>      -0.00007645       0.09798108       0.00005920 </v>
     <v>       0.00001579       0.00006074       0.09817483 </v>
    </varray>
   </crystal>
   <varray name="positions" >
    <v>       0.74399400       0.16221700       0.49266600 </v>
    <v>       0.75442200       0.83132600       0.82377800 </v>
    <v>       0.49846400       0.34140500       0.99461600 </v>
    <v>       0.24334600       0.17205100       0.17570500 </v>
    <v>       0.00341500       0.33932200       0.66439200 </v>
    <v>       0.24390800       0.83310600       0.50158800 </v>
    <v>       0.75438000       0.14732900       0.82799800 </v>
    <v>       0.76830700       0.48821900       0.17737900 </v>
    <v>       0.50209700       0.66909800       0.32870400 </v>
    <v>       0.24497100       0.14208200       0.83004100 </v>
    <v>       0.00437500       0.34058400       0.98514900 </v>
    <v>       0.50408600       0.99395100       0.01521600 </v>
    <v>       0.49774100       0.34250300       0.67264600 </v>
    <v>       0.49407800       0.66534300       0.00628900 </v>
    <v>       0.50314000       0.99451300       0.32674300 </v>
    <v>       0.99468000       0.99773500       0.33076200 </v>
    <v>       0.25311100       0.16110100       0.49209300 </v>
    <v>       0.00444700       0.00012100       0.65689900 </v>
    <v>       0.99822000       0.66787700       0.33356500 </v>
    <v>       0.00039500       0.66249500       0.66357900 </v>
    <v>       0.49551500       0.99262100       0.65489000 </v>
    <v>       0.50002100       0.66320700       0.66281200 </v>
    <v>       0.00612000       0.33476600       0.34916400 </v>
    <v>       0.49344200       0.33768700       0.34180100 </v>
    <v>       0.75528100       0.83731700       0.50316800 </v>
    <v>       0.23589200       0.48978100       0.17892400 </v>
    <v>       0.24663800       0.50773600       0.49733200 </v>
    <v>       0.24304500       0.52641700       0.82580900 </v>
    <v>       0.00811600       0.67057800       0.00194700 </v>
    <v>       0.22774000       0.83879400       0.17476200 </v>
    <v>       0.75303800       0.50161900       0.49447900 </v>
    <v>       0.77225400       0.83501200       0.17248000 </v>
    <v>       0.99497700       0.98737700       0.01046700 </v>
    <v>       0.75280900       0.16981900       0.17890100 </v>
    <v>       0.24416100       0.83109600       0.82468000 </v>
    <v>       0.75937200       0.52379700       0.82857300 </v>
   </varray>
  </structure>
  <varray name="forces" >
   <v>      -0.00141686       0.01500620      -0.00656596 </v>
   <v>      -0.00991857      -0.00694604       0.00977001 </v>
   <v>      -0.01935293      -0.01605268      -0.02298365 </v>
   <v>      -0.00675652       0.01827067      -0.00286769 </v>
   <v>       0.01032342      -0.01083068       0.00879292 </v>
   <v>      -0.00321679       0.00680195      -0.01630081 </v>
   <v>       0.00640230       0.01302090       0.01471628 </v>
   <v>      -0.11346513       0.01067067      -0.07397956 </v>
   <v>      -0.00275212       0.00577525       0.01675610 </v>
   <v>      -0.00875971       0.00064910       0.00067223 </v>
   <v>       0.02063795      -0.00486450      -0.00644002 </v>
   <v>      -0.00175132       0.00363118      -0.01076693 </v>
   <v>      -0.00184793      -0.00374465       0.00278573 </v>
   <v>       0.01787660      -0.00262530      -0.00074796 </v>
   <v>       0.00101400       0.00171951       0.00286702 </v>
   <v>       0.00002072       0.00306586       0.01424338 </v>
   <v>      -0.00038878       0.00494222      -0.00941890 </v>
   <v>      -0.00071913       0.00175619      -0.00484152 </v>
   <v>       0.01763013       0.00646265       0.01616424 </v>
   <v>      -0.01494815      -0.00680753      -0.00010556 </v>
   <v>       0.00722693      -0.00682900       0.00043932 </v>
   <v>       0.01174821       0.00055777       0.00559798 </v>
   <v>      -0.00084100       0.00040531       0.00764898 </v>
   <v>      -0.01162464      -0.01620218       0.03391179 </v>
   <v>      -0.00169638      -0.01574990      -0.00950215 </v>
   <v>       0.09145150       0.01690588       0.00968596 </v>
   <v>      -0.00414556       0.00050981      -0.02917540 </v>
   <v>      -0.00434665      -0.00312018       0.01122521 </v>
   <v>       0.02816769       0.03094101      -0.03681131 </v>
   <v>       0.00133369      -0.01687950       0.00611213 </v>
   <v>      -0.00046400       0.00822953       0.14191350 </v>
   <v>       0.00054051       0.07438932       0.00018745 </v>
   <v>      -0.00569562       0.01430784      -0.01168403 </v>
   <v>      -0.00121718      -0.13558784       0.00324241 </v>
   <v>      -0.00156110      -0.00023813       0.01057232 </v>
   <v>       0.00251240       0.00845927      -0.07511354 </v>
  </varray>
  <varray name="stress" >
   <v>       1.34726049       0.27068794      -0.02538764 </v>
   <v>       0.27068799       1.46910675      -0.09935858 </v>
   <v>      -0.02538762      -0.09935855       1.52886340 </v>
  </varray>
  <energy>
   <i name="e_fr_energy">   -370.50899441 </i>
   <i name="e_wo_entrp">   -370.51516061 </i>
   <i name="e_0_energy">      0.01849860 </i>
  </energy>
  <time name="totalsc">   23.41   24.90</time>
 </calculation>
 <calculation>
  <scstep>
   <time name="dav">    1.13    1.14</time>
   <time name="total">    1.25    1.40</time>
   <energy>
    <i name="alphaZ">   1634.68870062 </i>
    <i name="ewald"> -21079.58609530 </i>
    <i name="hartreedc">  -6308.71855737 </i>
    <i name="XCdc">   -253.58072360 </i>
    <i name="pawpsdc">  35226.53177838 </i>
    <i name="pawaedc"> -33581.81212704 </i>
    <i name="eentropy">      0.01844258 </i>
    <i name="bandstr">  -2647.44645391 </i>
    <i name="atom">  26639.39332331 </i>
    <i name="e_fr_energy">   -370.51171232 </i>
    <i name="e_wo_entrp">   -370.53015490 </i>
    <i name="e_0_energy">   -370.51785985 </i>
   </energy>
  </scstep>
  <scstep>
   <time name="diag">    0.08    0.08</time>
   <time name="diis">    0.77    0.77</time>
   <time name="orth">    0.01    0.01</time>
   <time name="total">    0.93    0.96</time>
   <energy>
    <i name="e_fr_energy">   -370.51100578 </i>
    <i name="e_wo_entrp">   -370.52970166 </i>
    <i name="e_0_energy">   -370.51723774 </i>
   </energy>
  </scstep>
  <scstep>
   <time name="diag">    0.08    0.08</time>
   <time name="diis">    0.93    0.93</time>
   <time name="orth">    0.01    0.01</time>
   <time name="total">    1.09    1.12</time>
   <energy>
    <i name="e_fr_energy">   -370.51085171 </i>
    <i name="e_wo_entrp">   -370.52923943 </i>
    <i name="e_0_energy">   -370.51698095 </i>
   </energy>
  </scstep>
  <scstep>
   <time name="diag">    0.08    0.08</time>
   <time name="diis">    0.82    0.82</time>
   <time name="orth">    0.01    0.01</time>
   <time name="total">    0.98    1.02</time>
   <energy>
    <i name="e_fr_energy">   -370.51055992 </i>
    <i name="e_wo_entrp">   -370.52912512 </i>
    <i name="e_0_energy">   -370.51674832 </i>
   </energy>
  </scstep>
  <scstep>
   <time name="diag">    0.08    0.08</time>
   <time name="diis">    0.72    0.73</time>
   <time name="orth">    0.01    0.01</time>
   <time name="total">    0.88    0.92</time>
   <energy>
    <i name="e_fr_energy">   -370.51053679 </i>
    <i name="e_wo_entrp">   -370.52910032 </i>
    <i name="e_0_energy">   -370.51672463 </i>
   </energy>
  </scstep>
  <scstep>
   <time name="diag">    0.08    0.08</time>
   <time name="diis">    0.55    0.56</time>
   <time name="orth">    0.01    0.01</time>
   <time name="total">    0.68    0.71</time>
   <energy>
    <i name="alphaZ">   1634.68870062 </i>
    <i name="ewald"> -21079.58609530 </i>
    <i name="hartreedc">  -6312.09465890 </i>
    <i name="XCdc">   -253.43615410 </i>
    <i name="pawpsdc">  35188.32120185 </i>
    <i name="pawaedc"> -33543.47643132 </i>
    <i name="eentropy">      0.01854592 </i>
    <i name="bandstr">  -2644.33896509 </i>
    <i name="atom">  26639.39332331 </i>
    <i name="e_fr_energy">   -370.51053302 </i>
    <i name="e_wo_entrp">   -370.52907893 </i>
    <i name="e_0_energy">   -370.51671499 </i>
   </energy>
  </scstep>
  <structure>
   <crystal>
    <varray name="basis" >
     <v>       6.80328655       0.00563562      -0.00112846 </v>
     <v>       0.00856819      10.20872306      -0.00649687 </v>
     <v>      -0.00156797      -0.00633682      10.18867764 </v>
    </varray>
    <i name="volume">    707.63209664 </i>
    <varray name="rec_basis" >
     <v>       0.14698789      -0.00012335       0.00002254 </v>
     <v>      -0.00008113       0.09795555       0.00006091 </v>
     <v>       0.00001623       0.00006245       0.09814820 </v>
    </varray>
   </crystal>
   <varray name="positions" >
    <v>       0.74399096       0.16223828       0.49265668 </v>
    <v>       0.75440091       0.83131617       0.82379187 </v>
    <v>       0.49842284       0.34138224       0.99458332 </v>
    <v>       0.24333159       0.17207691       0.17570094 </v>
    <v>       0.00343699       0.33930664       0.66440449 </v>
    <v>       0.24390114       0.83311564       0.50156484 </v>
    <v>       0.75439361       0.14734747       0.82801892 </v>
    <v>       0.76806552       0.48823419       0.17727387 </v>
    <v>       0.50209114       0.66910621       0.32872781 </v>
    <v>       0.24495236       0.14208293       0.83004195 </v>
    <v>       0.00441892       0.34057707       0.98513985 </v>
    <v>       0.50408226       0.99395614       0.01520070 </v>
    <v>       0.49773708       0.34249769       0.67264995 </v>
    <v>       0.49411604       0.66533926       0.00628794 </v>
    <v>       0.50314216       0.99451544       0.32674708 </v>
    <v>       0.99468004       0.99773936       0.33078224 </v>
    <v>       0.25311016       0.16110800       0.49207962 </v>
    <v>       0.00444547       0.00012349       0.65689212 </v>
    <v>       0.99825751       0.66788616       0.33358798 </v>
    <v>       0.00036320       0.66248536       0.66357884 </v>
    <v>       0.49553039       0.99261131       0.65489062 </v>
    <v>       0.50004600       0.66320778       0.66281996 </v>
    <v>       0.00611821       0.33476658       0.34917487 </v>
    <v>       0.49341730       0.33766407       0.34184917 </v>
    <v>       0.75527741       0.83729466       0.50315448 </v>
    <v>       0.23608657       0.48980488       0.17893780 </v>
    <v>       0.24662917       0.50773670       0.49729055 </v>
    <v>       0.24303576       0.52641259       0.82582495 </v>
    <v>       0.00817587       0.67062181       0.00189473 </v>
    <v>       0.22774287       0.83877007       0.17477067 </v>
    <v>       0.75303704       0.50163079       0.49468065 </v>
    <v>       0.77225502       0.83511749       0.17248033 </v>
    <v>       0.99496485       0.98739729       0.01045041 </v>
    <v>       0.75280664       0.16962673       0.17890549 </v>
    <v>       0.24415768       0.83109567       0.82469502 </v>
    <v>       0.75937731       0.52380893       0.82846628 </v>
   </varray>
  </structure>
  <varray name="forces" >
   <v>      -0.00097856       0.01459369      -0.00910148 </v>
   <v>      -0.00721608      -0.00639574       0.00891320 </v>
   <v>      -0.01922942      -0.01472028      -0.02212271 </v>
   <v>      -0.00729894       0.01842849       0.00012012 </v>
   <v>       0.01116670      -0.00813260       0.00628777 </v>
   <v>      -0.00372282       0.00608367      -0.01532882 </v>
   <v>       0.00753166       0.00987177       0.01309500 </v>
   <v>      -0.10101271       0.00835724      -0.06364695 </v>
   <v>       0.00025831       0.00558747       0.01673823 </v>
   <v>      -0.00937037      -0.00322851       0.00110606 </v>
   <v>       0.01972891       0.00004525      -0.00238407 </v>
   <v>      -0.00300174       0.00222906      -0.00813609 </v>
   <v>      -0.00346044      -0.00110643       0.00292249 </v>
   <v>       0.01554399      -0.00240760      -0.00189759 </v>
   <v>       0.00037911       0.00073463       0.00176129 </v>
   <v>       0.00033927       0.00202540       0.01023353 </v>
   <v>      -0.00009581       0.00390958      -0.01147123 </v>
   <v>      -0.00024401       0.00069603      -0.00573946 </v>
   <v>       0.01294923       0.00274949       0.01106491 </v>
   <v>      -0.01067962      -0.00662939      -0.00047947 </v>
   <v>       0.00565460      -0.00804018      -0.00091943 </v>
   <v>       0.00791154      -0.00044485       0.00528402 </v>
   <v>      -0.00142279       0.00570170       0.00468206 </v>
   <v>      -0.01098997      -0.01385672       0.03263265 </v>
   <v>      -0.00039604      -0.01314930      -0.00899483 </v>
   <v>       0.08097284       0.01237613       0.01275247 </v>
   <v>      -0.00604217       0.00025834      -0.02788471 </v>
   <v>      -0.00481458       0.00106304       0.00989962 </v>
   <v>       0.02531031       0.02701961      -0.03211558 </v>
   <v>      -0.00217864      -0.01492933       0.00645299 </v>
   <v>       0.00085413       0.00762867       0.12438435 </v>
   <v>       0.00541530       0.06766443       0.00127084 </v>
   <v>      -0.00495866       0.01015678      -0.00641222 </v>
   <v>       0.00092229      -0.12228455       0.00652204 </v>
   <v>      -0.00305073      -0.00130639       0.00794177 </v>
   <v>       0.00522590       0.00945141      -0.06743076 </v>
  </varray>
  <varray name="stress" >
   <v>       0.36279912       0.22772337      -0.01289226 </v>
   <v>       0.22772338       0.44249437      -0.07732284 </v>
   <v>      -0.01289228      -0.07732289       0.57439002 </v>
  </varray>
  <energy>
   <i name="e_fr_energy">   -370.51053302 </i>
   <i name="e_wo_entrp">   -370.51671499 </i>
   <i name="e_0_energy">      0.01854592 </i>
  </energy>
  <time name="totalsc">    7.52    7.97</time>
 </calculation>
 <calculation>
  <scstep>
   <time name="dav">    1.16    1.17</time>
   <time name="total">    1.35    1.54</time>
   <energy>
    <i name="alphaZ">   1631.23896702 </i>
    <i name="ewald"> -21066.00348151 </i>
    <i name="hartreedc">  -6306.38653229 </i>
    <i name="XCdc">   -254.08208592 </i>
    <i name="pawpsdc">  35189.91019171 </i>
    <i name="pawaedc"> -33545.09777871 </i>
    <i name="eentropy">      0.01841533 </i>
    <i name="bandstr">  -2659.51195646 </i>
    <i name="atom">  26639.39332331 </i>
    <i name="e_fr_energy">   -370.52093750 </i>
    <i name="e_wo_entrp">   -370.53935283 </i>
    <i name="e_0_energy">   -370.52707594 </i>
   </energy>
  </scstep>
  <scstep>
   <time name="diag">    0.09    0.09</time>
   <time name="diis">    0.77    0.77</time>
   <time name="orth">    0.01    0.01</time>
   <time name="total">    1.02    1.06</time>
   <energy>
    <i name="e_fr_energy">   -370.51534497 </i>
    <i name="e_wo_entrp">   -370.53445487 </i>
    <i name="e_0_energy">   -370.52171494 </i>
   </energy>
  </scstep>
  <scstep>
   <time name="diag">    0.08    0.13</time>
   <time name="diis">    0.82    0.84</time>
   <time name="orth">    0.01    0.01</time>
   <time name="total">    0.97    1.09</time>
   <energy>
    <i name="e_fr_energy">   -370.51414703 </i>
    <i name="e_wo_entrp">   -370.53240490 </i>
    <i name="e_0_energy">   -370.52023299 </i>
   </energy>
  </scstep>
  <scstep>
   <time name="diag">    0.08    0.08</time>
   <time name="diis">    0.83    0.84</time>
   <time name="orth">    0.01    0.01</time>
   <time name="total">    0.99    1.03</time>
   <energy>
    <i name="e_fr_energy">   -370.51203548 </i>
    <i name="e_wo_entrp">   -370.53078723 </i>
    <i name="e_0_energy">   -370.51828606 </i>
   </energy>
  </scstep>
  <scstep>
   <time name="diag">    0.08    0.08</time>
   <time name="diis">    0.90    0.91</time>
   <time name="orth">    0.01    0.01</time>
   <time name="total">    1.06    1.10</time>
   <energy>
    <i name="e_fr_energy">   -370.51190310 </i>
    <i name="e_wo_entrp">   -370.53065446 </i>
    <i name="e_0_energy">   -370.51815355 </i>
   </energy>
  </scstep>
  <scstep>
   <time name="diag">    0.08    0.08</time>
   <time name="diis">    0.78    0.78</time>
   <time name="orth">    0.01    0.01</time>
   <time name="total">    0.94    0.97</time>
   <energy>
    <i name="e_fr_energy">   -370.51192927 </i>
    <i name="e_wo_entrp">   -370.53062877 </i>
    <i name="e_0_energy">   -370.51816244 </i>
   </energy>
  </scstep>
  <scstep>
   <time name="diag">    0.08    0.08</time>
   <time name="diis">    0.72    0.72</time>
   <time name="orth">    0.01    0.01</time>
   <time name="total">    0.87    0.91</time>
   <energy>
    <i name="e_fr_energy">   -370.51191438 </i>
    <i name="e_wo_entrp">   -370.53066610 </i>
    <i name="e_0_energy">   -370.51816495 </i>
   </energy>
  </scstep>
  <scstep>
   <time name="diag">    0.08    0.08</time>
   <time name="diis">    0.65    0.65</time>
   <time name="orth">    0.01    0.01</time>
   <time name="total">    0.80    0.84</time>
   <energy>
    <i name="e_fr_energy">   -370.51191935 </i>
    <i name="e_wo_entrp">   -370.53066473 </i>
    <i name="e_0_energy">   -370.51816781 </i>
   </energy>
  </scstep>
  <scstep>
   <time name="diag">    0.08    0.08</time>
   <time name="diis">    0.52    0.52</time>
   <time name="orth">    0.01    0.01</time>
   <time name="total">    0.65    0.68</time>
   <energy>
    <i name="alphaZ">   1631.23896702 </i>
    <i name="ewald"> -21066.00348151 </i>
    <i name="hartreedc">  -6315.33383004 </i>
    <i name="XCdc">   -253.69712903 </i>
    <i name="pawpsdc">  35093.80389649 </i>
    <i name="pawaedc"> -33449.06737459 </i>
    <i name="eentropy">      0.01873193 </i>
    <i name="bandstr">  -2650.86502866 </i>
    <i name="atom">  26639.39332331 </i>
    <i name="e_fr_energy">   -370.51192507 </i>
    <i name="e_wo_entrp">   -370.53065700 </i>
    <i name="e_0_energy">   -370.51816905 </i>
   </energy>
  </scstep>
  <structure>
   <crystal>
    <varray name="basis" >
     <v>       6.80774522       0.00653515      -0.00121353 </v>
     <v>       0.00991755      10.21601867      -0.00699499 </v>
     <v>      -0.00169559      -0.00683376      10.19625391 </v>
    </varray>
    <i name="volume">    709.12859242 </i>
    <varray name="rec_basis" >
     <v>       0.14689165      -0.00014258       0.00002433 </v>
     <v>      -0.00009395       0.09788563       0.00006559 </v>
     <v>       0.00001742       0.00006714       0.09807528 </v>
    </varray>
   </crystal>
   <varray name="positions" >
    <v>       0.74398261       0.16229660       0.49263115 </v>
    <v>       0.75434310       0.83128922       0.82382990 </v>
    <v>       0.49831001       0.34131984       0.99449375 </v>
    <v>       0.24329209       0.17214795       0.17568981 </v>
    <v>       0.00349726       0.33926452       0.66443871 </v>
    <v>       0.24388233       0.83314205       0.50150137 </v>
    <v>       0.75443090       0.14739810       0.82807628 </v>
    <v>       0.76740357       0.48827586       0.17698568 </v>
    <v>       0.50207507       0.66912871       0.32879309 </v>
    <v>       0.24490126       0.14208548       0.83004457 </v>
    <v>       0.00453932       0.34055808       0.98511477 </v>
    <v>       0.50407202       0.99397024       0.01515878 </v>
    <v>       0.49772632       0.34248315       0.67266079 </v>
    <v>       0.49422033       0.66532899       0.00628503 </v>
    <v>       0.50314806       0.99452213       0.32675825 </v>
    <v>       0.99468016       0.99775131       0.33083772 </v>
    <v>       0.25310786       0.16112719       0.49204295 </v>
    <v>       0.00444126       0.00013030       0.65687327 </v>
    <v>       0.99836033       0.66791126       0.33365096 </v>
    <v>       0.00027605       0.66245895       0.66357840 </v>
    <v>       0.49557258       0.99258474       0.65489232 </v>
    <v>       0.50011453       0.66320993       0.66284177 </v>
    <v>       0.00611331       0.33476818       0.34920466 </v>
    <v>       0.49334961       0.33760120       0.34198120 </v>
    <v>       0.75526759       0.83723342       0.50311743 </v>
    <v>       0.23661993       0.48987033       0.17897562 </v>
    <v>       0.24660496       0.50773863       0.49717691 </v>
    <v>       0.24301043       0.52640050       0.82586866 </v>
    <v>       0.00833999       0.67074191       0.00175145 </v>
    <v>       0.22775074       0.83870446       0.17479443 </v>
    <v>       0.75303442       0.50166313       0.49523340 </v>
    <v>       0.77225781       0.83540665       0.17248125 </v>
    <v>       0.99493155       0.98745289       0.01040493 </v>
    <v>       0.75280021       0.16909969       0.17891778 </v>
    <v>       0.24414859       0.83109478       0.82473620 </v>
    <v>       0.75939185       0.52384162       0.82817375 </v>
   </varray>
  </structure>
  <varray name="forces" >
   <v>       0.00163704       0.01004989      -0.00878486 </v>
   <v>      -0.00123207      -0.00207578       0.00323248 </v>
   <v>      -0.01936853      -0.01318449      -0.02597086 </v>
   <v>      -0.01181271       0.01704754       0.00494033 </v>
   <v>       0.01431025      -0.00375427       0.00336374 </v>
   <v>      -0.00579645       0.00736612      -0.00629530 </v>
   <v>       0.01099037      -0.00146357       0.00418877 </v>
   <v>      -0.06510624       0.00046554      -0.03719541 </v>
   <v>       0.00878536       0.00633928       0.01706826 </v>
   <v>      -0.01157113      -0.01309255      -0.00134812 </v>
   <v>       0.01802670       0.01194339       0.00477182 </v>
   <v>      -0.00680169      -0.00195394      -0.00379663 </v>
   <v>      -0.00791803       0.00446136       0.00418046 </v>
   <v>       0.00897781      -0.00043674      -0.00755895 </v>
   <v>      -0.00132485      -0.00398170      -0.00329983 </v>
   <v>       0.00192708      -0.00209313      -0.00060906 </v>
   <v>      -0.00270125      -0.00116969      -0.01138685 </v>
   <v>      -0.00111998      -0.00201350      -0.00403675 </v>
   <v>       0.00072691      -0.00617763      -0.00279158 </v>
   <v>       0.00081444      -0.00598859       0.00112327 </v>
   <v>       0.00353983      -0.01018340      -0.00187696 </v>
   <v>      -0.00209541      -0.00303851       0.00595991 </v>
   <v>      -0.00183123       0.01963870       0.00066646 </v>
   <v>      -0.01072689      -0.00604918       0.02806640 </v>
   <v>       0.00409012      -0.00405517      -0.00115002 </v>
   <v>       0.04998885      -0.00126445       0.02117979 </v>
   <v>      -0.01250221       0.00023758      -0.02056604 </v>
   <v>      -0.00585691       0.01037219       0.00260554 </v>
   <v>       0.01863381       0.01746213      -0.02219659 </v>
   <v>      -0.01453584      -0.00644940       0.00702827 </v>
   <v>       0.00572756       0.00739001       0.08463102 </v>
   <v>       0.02127286       0.05370995       0.00380809 </v>
   <v>      -0.00272784       0.00107956       0.00250477 </v>
   <v>       0.00918655      -0.08966801       0.01262703 </v>
   <v>      -0.00617055      -0.00088468      -0.00161877 </v>
   <v>       0.01256425       0.01141512      -0.05146380 </v>
  </varray>
  <varray name="stress" >
   <v>      -2.75838036       0.06975431       0.04181922 </v>
   <v>       0.06975432      -2.80367587      -0.03837079 </v>
   <v>       0.04181920      -0.03837078      -2.60410588 </v>
  </varray>
  <energy>
   <i name="e_fr_energy">   -370.51192507 </i>
   <i name="e_wo_entrp">   -370.51816905 </i>
   <i name="e_0_energy">      0.01873193 </i>
  </energy>
  <time name="totalsc">   10.52   11.20</time>
 </calculation>
 <calculation>
  <scstep>
   <time name="dav">    1.01    1.02</time>
   <time name="total">    1.11    1.26</time>
   <energy>
    <i name="alphaZ">   1631.59755090 </i>
    <i name="ewald"> -21067.91185811 </i>
    <i name="hartreedc">  -6315.34858257 </i>
    <i name="XCdc">   -253.63585559 </i>
    <i name="pawpsdc">  35094.55223431 </i>
    <i name="pawaedc"> -33449.90825604 </i>
    <i name="eentropy">      0.01873094 </i>
    <i name="bandstr">  -2649.27030605 </i>
    <i name="atom">  26639.39332331 </i>
    <i name="e_fr_energy">   -370.51301891 </i>
    <i name="e_wo_entrp">   -370.53174984 </i>
    <i name="e_0_energy">   -370.51926255 </i>
   </energy>
  </scstep>
  <scstep>
   <time name="diag">    0.09    0.09</time>
   <time name="diis">    0.86    0.87</time>
   <time name="orth">    0.01    0.01</time>
   <time name="total">    1.04    1.08</time>
   <energy>
    <i name="e_fr_energy">   -370.51306730 </i>
    <i name="e_wo_entrp">   -370.53178920 </i>
    <i name="e_0_energy">   -370.51930793 </i>
   </energy>
  </scstep>
  <scstep>
   <time name="diag">    0.09    0.09</time>
   <time name="diis">    0.77    0.77</time>
   <time name="orth">    0.01    0.01</time>
   <time name="total">    0.97    1.03</time>
   <energy>
    <i name="e_fr_energy">   -370.51302428 </i>
    <i name="e_wo_entrp">   -370.53175550 </i>
    <i name="e_0_energy">   -370.51926802 </i>
   </energy>
  </scstep>
  <scstep>
   <time name="diag">    0.08    0.08</time>
   <time name="diis">    0.81    0.81</time>
   <time name="orth">    0.01    0.01</time>
   <time name="total">    0.97    1.01</time>
   <energy>
    <i name="e_fr_energy">   -370.51300214 </i>
    <i name="e_wo_entrp">   -370.53171282 </i>
    <i name="e_0_energy">   -370.51923903 </i>
   </energy>
  </scstep>
  <scstep>
   <time name="diag">    0.08    0.08</time>
   <time name="diis">    0.46    0.46</time>
   <time name="orth">    0.01    0.01</time>
   <time name="total">    0.59    0.62</time>
   <energy>
    <i name="alphaZ">   1631.59755090 </i>
    <i name="ewald"> -21067.91185811 </i>
    <i name="hartreedc">  -6314.19531187 </i>
    <i name="XCdc">   -253.68510971 </i>
    <i name="pawpsdc">  35104.01848271 </i>
    <i name="pawaedc"> -33459.55724807 </i>
    <i name="eentropy">      0.01873023 </i>
    <i name="bandstr">  -2650.19155617 </i>
    <i name="atom">  26639.39332331 </i>
    <i name="e_fr_energy">   -370.51299679 </i>
    <i name="e_wo_entrp">   -370.53172702 </i>
    <i name="e_0_energy">   -370.51924020 </i>
   </energy>
  </scstep>
  <structure>
   <crystal>
    <varray name="basis" >
     <v>       6.80713502       0.00681584      -0.00120865 </v>
     <v>       0.01033862      10.21521855      -0.00716190 </v>
     <v>      -0.00168833      -0.00700026      10.19572642 </v>
    </varray>
    <i name="volume">    708.97274389 </i>
    <varray name="rec_basis" >
     <v>       0.14690483      -0.00014866       0.00002422 </v>
     <v>      -0.00009801       0.09789330       0.00006720 </v>
     <v>       0.00001735       0.00006875       0.09808036 </v>
    </varray>
   </crystal>
   <varray name="positions" >
    <v>       0.74398226       0.16231954       0.49261777 </v>
    <v>       0.75432649       0.83128057       0.82384236 </v>
    <v>       0.49825834       0.34129345       0.99445048 </v>
    <v>       0.24326826       0.17217956       0.17569064 </v>
    <v>       0.00352939       0.33925059       0.66445027 </v>
    <v>       0.24387078       0.83315457       0.50147990 </v>
    <v>       0.75445320       0.14741031       0.82809454 </v>
    <v>       0.76715543       0.48828721       0.17688164 </v>
    <v>       0.50208082       0.66913943       0.32882321 </v>
    <v>       0.24487469       0.14207625       0.83004422 </v>
    <v>       0.00459146       0.34056211       0.98511180 </v>
    <v>       0.50406160       0.99397247       0.01514486 </v>
    <v>       0.49771449       0.34248271       0.67266682 </v>
    <v>       0.49425797       0.66532595       0.00627853 </v>
    <v>       0.50314812       0.99452087       0.32675868 </v>
    <v>       0.99468238       0.99775287       0.33085186 </v>
    <v>       0.25310419       0.16113135       0.49202466 </v>
    <v>       0.00443888       0.00013057       0.65686525 </v>
    <v>       0.99838821       0.66791319       0.33366541 </v>
    <v>       0.00025405       0.66244747       0.66357914 </v>
    <v>       0.49558771       0.99257004       0.65489134 </v>
    <v>       0.50013018       0.66320819       0.66285203 </v>
    <v>       0.00610992       0.33478347       0.34921301 </v>
    <v>       0.49331963       0.33758011       0.34203722 </v>
    <v>       0.75526966       0.83721423       0.50310681 </v>
    <v>       0.23681705       0.48988655       0.17900165 </v>
    <v>       0.24658438       0.50773931       0.49713141 </v>
    <v>       0.24299710       0.52640518       0.82588214 </v>
    <v>       0.00840431       0.67078669       0.00169693 </v>
    <v>       0.22773631       0.83868234       0.17480601 </v>
    <v>       0.75304025       0.50167727       0.49544302 </v>
    <v>       0.77228264       0.83552338       0.17248441 </v>
    <v>       0.99491968       0.98746834       0.01039487 </v>
    <v>       0.75280908       0.16889315       0.17893054 </v>
    <v>       0.24413919       0.83109388       0.82474580 </v>
    <v>       0.75940993       0.52385882       0.82805776 </v>
   </varray>
  </structure>
  <varray name="forces" >
   <v>       0.00246947       0.00977390      -0.00637640 </v>
   <v>      -0.00125600       0.00004311       0.00274616 </v>
   <v>      -0.01862931      -0.01346035      -0.02684595 </v>
   <v>      -0.01235416       0.01709620       0.00383834 </v>
   <v>       0.01517637      -0.00462655       0.00349141 </v>
   <v>      -0.00539734       0.00663351      -0.00443435 </v>
   <v>       0.01065766      -0.00207795       0.00294275 </v>
   <v>      -0.05527458      -0.00043318      -0.03002930 </v>
   <v>       0.01171524       0.00668174       0.01616335 </v>
   <v>      -0.01076186      -0.01386959      -0.00231432 </v>
   <v>       0.01675625       0.01350129       0.00700676 </v>
   <v>      -0.00897177      -0.00218351      -0.00523912 </v>
   <v>      -0.00930723       0.00332267       0.00546436 </v>
   <v>       0.00860077       0.00057193      -0.00778359 </v>
   <v>      -0.00301257      -0.00502208      -0.00290612 </v>
   <v>       0.00347539      -0.00107249      -0.00086883 </v>
   <v>      -0.00267553      -0.00154389      -0.00994748 </v>
   <v>      -0.00198638      -0.00083772      -0.00309223 </v>
   <v>      -0.00317179      -0.00910910      -0.00560878 </v>
   <v>       0.00319003      -0.00330892      -0.00035473 </v>
   <v>       0.00329910      -0.00860898      -0.00139670 </v>
   <v>      -0.00412601      -0.00185857       0.00433517 </v>
   <v>      -0.00283226       0.02182726      -0.00131515 </v>
   <v>      -0.00980518      -0.00497307       0.02664070 </v>
   <v>       0.00440205      -0.00404658      -0.00005480 </v>
   <v>       0.04218403      -0.00295681       0.02049911 </v>
   <v>      -0.01307406      -0.00080304      -0.01731073 </v>
   <v>      -0.00398435       0.00794381       0.00278047 </v>
   <v>       0.01405811       0.01292669      -0.01677637 </v>
   <v>      -0.01200246      -0.00715749       0.00527975 </v>
   <v>       0.00595172       0.00844477       0.07065533 </v>
   <v>       0.01909539       0.04418605       0.00381959 </v>
   <v>      -0.00101503       0.00174442       0.00202143 </v>
   <v>       0.01100205      -0.07426001       0.01047821 </v>
   <v>      -0.00485060       0.00037006      -0.00261927 </v>
   <v>       0.01245485       0.00714247      -0.04288868 </v>
  </varray>
  <varray name="stress" >
   <v>      -2.65360729       0.02694181       0.04441259 </v>
   <v>       0.02694183      -2.72523876      -0.03573354 </v>
   <v>       0.04441260      -0.03573347      -2.54286706 </v>
  </varray>
  <energy>
   <i name="e_fr_energy">   -370.51299679 </i>
   <i name="e_wo_entrp">   -370.51924020 </i>
   <i name="e_0_energy">      0.01873023 </i>
  </energy>
  <time name="totalsc">    6.33    6.78</time>
 </calculation>
 <calculation>
  <scstep>
   <time name="dav">    1.08    1.09</time>
   <time name="total">    1.21    1.38</time>
   <energy>
    <i name="alphaZ">   1632.67397947 </i>
    <i name="ewald"> -21073.61073323 </i>
    <i name="hartreedc">  -6314.50787548 </i>
    <i name="XCdc">   -253.49039936 </i>
    <i name="pawpsdc">  35103.50183673 </i>
    <i name="pawaedc"> -33459.06089195 </i>
    <i name="eentropy">      0.01872807 </i>
    <i name="bandstr">  -2645.43323760 </i>
    <i name="atom">  26639.39332331 </i>
    <i name="e_fr_energy">   -370.51527002 </i>
    <i name="e_wo_entrp">   -370.53399809 </i>
    <i name="e_0_energy">   -370.52151271 </i>
   </energy>
  </scstep>
  <scstep>
   <time name="diag">    0.08    0.08</time>
   <time name="diis">    0.78    0.91</time>
   <time name="orth">    0.02    0.02</time>
   <time name="total">    0.97    1.14</time>
   <energy>
    <i name="e_fr_energy">   -370.51580405 </i>
    <i name="e_wo_entrp">   -370.53449041 </i>
    <i name="e_0_energy">   -370.52203284 </i>
   </energy>
  </scstep>
  <scstep>
   <time name="diag">    0.09    0.11</time>
   <time name="diis">    0.81    0.81</time>
   <time name="orth">    0.01    0.01</time>
   <time name="total">    0.98    1.06</time>
   <energy>
    <i name="e_fr_energy">   -370.51543502 </i>
    <i name="e_wo_entrp">   -370.53416004 </i>
    <i name="e_0_energy">   -370.52167669 </i>
   </energy>
  </scstep>
  <scstep>
   <time name="diag">    0.08    0.08</time>
   <time name="diis">    0.83    0.83</time>
   <time name="orth">    0.01    0.01</time>
   <time name="total">    0.99    1.03</time>
   <energy>
    <i name="e_fr_energy">   -370.51528327 </i>
    <i name="e_wo_entrp">   -370.53393921 </i>
    <i name="e_0_energy">   -370.52150192 </i>
   </energy>
  </scstep>
  <scstep>
   <time name="diag">    0.08    0.08</time>
   <time name="diis">    0.82    0.83</time>
   <time name="orth">    0.01    0.01</time>
   <time name="total">    0.98    1.02</time>
   <energy>
    <i name="e_fr_energy">   -370.51526217 </i>
    <i name="e_wo_entrp">   -370.53398031 </i>
    <i name="e_0_energy">   -370.52150155 </i>
   </energy>
  </scstep>
  <scstep>
   <time name="diag">    0.08    0.08</time>
   <time name="diis">    0.74    0.74</time>
   <time name="orth">    0.01    0.01</time>
   <time name="total">    0.90    0.93</time>
   <energy>
    <i name="e_fr_energy">   -370.51525980 </i>
    <i name="e_wo_entrp">   -370.53391526 </i>
    <i name="e_0_energy">   -370.52147829 </i>
   </energy>
  </scstep>
  <scstep>
   <time name="diag">    0.08    0.08</time>
   <time name="diis">    0.51    0.51</time>
   <time name="orth">    0.01    0.01</time>
   <time name="total">    0.64    0.68</time>
   <energy>
    <i name="alphaZ">   1632.67397947 </i>
    <i name="ewald"> -21073.61073323 </i>
    <i name="hartreedc">  -6311.62730308 </i>
    <i name="XCdc">   -253.61167223 </i>
    <i name="pawpsdc">  35131.21872849 </i>
    <i name="pawaedc"> -33486.86113391 </i>
    <i name="eentropy">      0.01868057 </i>
    <i name="bandstr">  -2648.10913441 </i>
    <i name="atom">  26639.39332331 </i>
    <i name="e_fr_energy">   -370.51526502 </i>
    <i name="e_wo_entrp">   -370.53394559 </i>
    <i name="e_0_energy">   -370.52149188 </i>
   </energy>
  </scstep>
  <structure>
   <crystal>
    <varray name="basis" >
     <v>       6.80530443       0.00765791      -0.00119400 </v>
     <v>       0.01160180      10.21281819      -0.00766264 </v>
     <v>      -0.00166658      -0.00749974      10.19414395 </v>
    </varray>
    <i name="volume">    708.50531528 </i>
    <varray name="rec_basis" >
     <v>       0.14694439      -0.00016691       0.00002390 </v>
     <v>      -0.00011017       0.09791635       0.00007202 </v>
     <v>       0.00001713       0.00007358       0.09809559 </v>
    </varray>
   </crystal>
   <varray name="positions" >
    <v>       0.74398120       0.16238838       0.49257765 </v>
    <v>       0.75427667       0.83125460       0.82387972 </v>
    <v>       0.49810330       0.34121427       0.99432066 </v>
    <v>       0.24319674       0.17227438       0.17569312 </v>
    <v>       0.00362576       0.33920879       0.66448494 </v>
    <v>       0.24383614       0.83319215       0.50141548 </v>
    <v>       0.75452009       0.14744693       0.82814935 </v>
    <v>       0.76641095       0.48832130       0.17656951 </v>
    <v>       0.50209806       0.66917160       0.32891358 </v>
    <v>       0.24479496       0.14204857       0.83004320 </v>
    <v>       0.00474791       0.34057420       0.98510288 </v>
    <v>       0.50403034       0.99397917       0.01510313 </v>
    <v>       0.49767900       0.34248139       0.67268489 </v>
    <v>       0.49437089       0.66531681       0.00625904 </v>
    <v>       0.50314828       0.99451711       0.32675998 </v>
    <v>       0.99468905       0.99775755       0.33089427 </v>
    <v>       0.25309316       0.16114383       0.49196981 </v>
    <v>       0.00443174       0.00013138       0.65684118 </v>
    <v>       0.99847187       0.66791896       0.33370877 </v>
    <v>       0.00018804       0.66241303       0.66358134 </v>
    <v>       0.49563312       0.99252593       0.65488839 </v>
    <v>       0.50017716       0.66320299       0.66288280 </v>
    <v>       0.00609974       0.33482933       0.34923808 </v>
    <v>       0.49322968       0.33751683       0.34220528 </v>
    <v>       0.75527586       0.83715667       0.50307494 </v>
    <v>       0.23740846       0.48993521       0.17907972 </v>
    <v>       0.24652265       0.50774136       0.49699492 </v>
    <v>       0.24295712       0.52641921       0.82592258 </v>
    <v>       0.00859727       0.67092105       0.00153338 </v>
    <v>       0.22769302       0.83861595       0.17484074 </v>
    <v>       0.75305772       0.50171973       0.49607190 </v>
    <v>       0.77235709       0.83587356       0.17249391 </v>
    <v>       0.99488408       0.98751470       0.01036468 </v>
    <v>       0.75283573       0.16827348       0.17896880 </v>
    <v>       0.24411098       0.83109118       0.82477462 </v>
    <v>       0.75946415       0.52391043       0.82770979 </v>
   </varray>
  </structure>
  <varray name="forces" >
   <v>       0.00405899       0.00951490      -0.00198100 </v>
   <v>       0.00006972       0.00574921       0.00083733 </v>
   <v>      -0.01671143      -0.01607705      -0.02985562 </v>
   <v>      -0.01394563       0.01536398       0.00299064 </v>
   <v>       0.01671379      -0.00649606       0.00236306 </v>
   <v>      -0.00406143       0.00548401      -0.00083519 </v>
   <v>       0.01009430      -0.00341617      -0.00105997 </v>
   <v>      -0.02618310      -0.00662957      -0.00939149 </v>
   <v>       0.02021413       0.00918847       0.01557986 </v>
   <v>      -0.00893362      -0.01556152      -0.00288650 </v>
   <v>       0.01332952       0.01796104       0.01304981 </v>
   <v>      -0.01531046      -0.00298288      -0.00790844 </v>
   <v>      -0.01301935       0.00057312       0.00914052 </v>
   <v>       0.00734164       0.00471134      -0.00941824 </v>
   <v>      -0.00916220      -0.00838706      -0.00177605 </v>
   <v>       0.00998832       0.00020172      -0.00111666 </v>
   <v>      -0.00269479      -0.00295343      -0.00583924 </v>
   <v>      -0.00494794       0.00152425      -0.00070772 </v>
   <v>      -0.01588096      -0.01817910      -0.01532877 </v>
   <v>       0.01231136       0.00678976      -0.00518208 </v>
   <v>       0.00366828      -0.00558916      -0.00084342 </v>
   <v>      -0.01189023       0.00304320      -0.00018731 </v>
   <v>      -0.00933927       0.03012702      -0.00853072 </v>
   <v>      -0.00448332      -0.00276934       0.02188075 </v>
   <v>       0.00557145      -0.00312708       0.00126539 </v>
   <v>       0.01907768      -0.01039536       0.02044840 </v>
   <v>      -0.01323016      -0.00505229      -0.00711650 </v>
   <v>       0.00174046       0.00123176       0.00103724 </v>
   <v>       0.00145736      -0.00000521      -0.00049603 </v>
   <v>      -0.00489002      -0.00510153       0.00258585 </v>
   <v>       0.00494086       0.00931404       0.03185677 </v>
   <v>       0.01368503       0.02068068       0.00542197 </v>
   <v>       0.00353016       0.00496760       0.00204471 </v>
   <v>       0.01658903      -0.03168046       0.00695089 </v>
   <v>      -0.00205886       0.00302996      -0.00621656 </v>
   <v>       0.01236073      -0.00505280      -0.02077566 </v>
  </varray>
  <varray name="stress" >
   <v>      -1.79346981      -0.13785657       0.08151601 </v>
   <v>      -0.13785654      -1.92284632      -0.02852068 </v>
   <v>       0.08151598      -0.02852075      -1.67735147 </v>
  </varray>
  <energy>
   <i name="e_fr_energy">   -370.51526502 </i>
   <i name="e_wo_entrp">   -370.52149188 </i>
   <i name="e_0_energy">      0.01868057 </i>
  </energy>
  <time name="totalsc">    8.35    9.03</time>
 </calculation>
 <calculation>
  <scstep>
   <time name="dav">    0.97    0.98</time>
   <time name="total">    1.08    1.24</time>
   <energy>
    <i name="alphaZ">   1634.82988715 </i>
    <i name="ewald"> -21084.89032856 </i>
    <i name="hartreedc">  -6312.43753655 </i>
    <i name="XCdc">   -253.21856133 </i>
    <i name="pawpsdc">  35130.75395605 </i>
    <i name="pawaedc"> -33486.37264869 </i>
    <i name="eentropy">      0.01876194 </i>
    <i name="bandstr">  -2638.59242013 </i>
    <i name="atom">  26639.39332331 </i>
    <i name="e_fr_energy">   -370.51556681 </i>
    <i name="e_wo_entrp">   -370.53432875 </i>
    <i name="e_0_energy">   -370.52182079 </i>
   </energy>
  </scstep>
  <scstep>
   <time name="diag">    0.08    0.08</time>
   <time name="diis">    0.81    0.81</time>
   <time name="orth">    0.01    0.01</time>
   <time name="total">    0.97    1.00</time>
   <energy>
    <i name="e_fr_energy">   -370.51766248 </i>
    <i name="e_wo_entrp">   -370.53636232 </i>
    <i name="e_0_energy">   -370.52389576 </i>
   </energy>
  </scstep>
  <scstep>
   <time name="diag">    0.08    0.08</time>
   <time name="diis">    0.91    0.92</time>
   <time name="orth">    0.01    0.01</time>
   <time name="total">    1.07    1.10</time>
   <energy>
    <i name="e_fr_energy">   -370.51615240 </i>
    <i name="e_wo_entrp">   -370.53493448 </i>
    <i name="e_0_energy">   -370.52241309 </i>
   </energy>
  </scstep>
  <scstep>
   <time name="diag">    0.14    0.14</time>
   <time name="diis">    0.87    0.87</time>
   <time name="orth">    0.03    0.03</time>
   <time name="total">    1.17    1.21</time>
   <energy>
    <i name="e_fr_energy">   -370.51553816 </i>
    <i name="e_wo_entrp">   -370.53418817 </i>
    <i name="e_0_energy">   -370.52175483 </i>
   </energy>
  </scstep>
  <scstep>
   <time name="diag">    0.08    0.08</time>
   <time name="diis">    0.90    0.91</time>
   <time name="orth">    0.01    0.01</time>
   <time name="total">    1.07    1.12</time>
   <energy>
    <i name="e_fr_energy">   -370.51544614 </i>
    <i name="e_wo_entrp">   -370.53422141 </i>
    <i name="e_0_energy">   -370.52170457 </i>
   </energy>
  </scstep>
  <scstep>
   <time name="diag">    0.08    0.14</time>
   <time name="diis">    0.82    0.84</time>
   <time name="orth">    0.01    0.01</time>
   <time name="total">    0.99    1.10</time>
   <energy>
    <i name="e_fr_energy">   -370.51543386 </i>
    <i name="e_wo_entrp">   -370.53408781 </i>
    <i name="e_0_energy">   -370.52165184 </i>
   </energy>
  </scstep>
  <scstep>
   <time name="diag">    0.08    0.08</time>
   <time name="diis">    0.72    0.73</time>
   <time name="orth">    0.01    0.01</time>
   <time name="total">    0.88    0.92</time>
   <energy>
    <i name="e_fr_energy">   -370.51544696 </i>
    <i name="e_wo_entrp">   -370.53414268 </i>
    <i name="e_0_energy">   -370.52167887 </i>
   </energy>
  </scstep>
  <scstep>
   <time name="diag">    0.08    0.08</time>
   <time name="diis">    0.65    0.65</time>
   <time name="orth">    0.01    0.01</time>
   <time name="total">    0.80    0.84</time>
   <energy>
    <i name="e_fr_energy">   -370.51545991 </i>
    <i name="e_wo_entrp">   -370.53414855 </i>
    <i name="e_0_energy">   -370.52168945 </i>
   </energy>
  </scstep>
  <scstep>
   <time name="diag">    0.09    0.09</time>
   <time name="diis">    0.53    0.53</time>
   <time name="orth">    0.01    0.01</time>
   <time name="total">    0.70    0.73</time>
   <energy>
    <i name="e_fr_energy">   -370.51547055 </i>
    <i name="e_wo_entrp">   -370.53415412 </i>
    <i name="e_0_energy">   -370.52169840 </i>
   </energy>
  </scstep>
  <scstep>
   <time name="diag">    0.08    0.08</time>
   <time name="diis">    0.40    0.40</time>
   <time name="orth">    0.01    0.01</time>
   <time name="total">    0.52    0.55</time>
   <energy>
    <i name="alphaZ">   1634.82988715 </i>
    <i name="ewald"> -21084.89032856 </i>
    <i name="hartreedc">  -6306.83562824 </i>
    <i name="XCdc">   -253.45476124 </i>
    <i name="pawpsdc">  35189.07204096 </i>
    <i name="pawaedc"> -33544.60929971 </i>
    <i name="eentropy">      0.01869742 </i>
    <i name="bandstr">  -2644.03940839 </i>
    <i name="atom">  26639.39332331 </i>
    <i name="e_fr_energy">   -370.51547730 </i>
    <i name="e_wo_entrp">   -370.53417472 </i>
    <i name="e_0_energy">   -370.52170977 </i>
   </energy>
  </scstep>
  <structure>
   <crystal>
    <varray name="basis" >
     <v>       6.80164324       0.00934205      -0.00116469 </v>
     <v>       0.01412816      10.20801745      -0.00866412 </v>
     <v>      -0.00162307      -0.00849870      10.19097902 </v>
    </varray>
    <i name="volume">    707.57098440 </i>
    <varray name="rec_basis" >
     <v>       0.14702358      -0.00020346       0.00002325 </v>
     <v>      -0.00013454       0.09796247       0.00008167 </v>
     <v>       0.00001669       0.00008326       0.09812607 </v>
    </varray>
   </crystal>
   <varray name="positions" >
    <v>       0.74397906       0.16252610       0.49249739 </v>
    <v>       0.75417701       0.83120266       0.82395447 </v>
    <v>       0.49779318       0.34105588       0.99406096 </v>
    <v>       0.24305365       0.17246409       0.17569810 </v>
    <v>       0.00381858       0.33912516       0.66455428 </v>
    <v>       0.24376683       0.83326732       0.50128664 </v>
    <v>       0.75465390       0.14752019       0.82825899 </v>
    <v>       0.76492157       0.48838957       0.17594516 </v>
    <v>       0.50213254       0.66923595       0.32909436 </v>
    <v>       0.24463547       0.14199319       0.83004113 </v>
    <v>       0.00506088       0.34059835       0.98508505 </v>
    <v>       0.50396779       0.99399256       0.01501964 </v>
    <v>       0.49760801       0.34247875       0.67272104 </v>
    <v>       0.49459679       0.66529851       0.00622005 </v>
    <v>       0.50314860       0.99450958       0.32676259 </v>
    <v>       0.99470238       0.99776691       0.33097909 </v>
    <v>       0.25307109       0.16116879       0.49186007 </v>
    <v>       0.00441747       0.00013299       0.65679303 </v>
    <v>       0.99863924       0.66793051       0.33379550 </v>
    <v>       0.00005601       0.66234413       0.66358573 </v>
    <v>       0.49572398       0.99243767       0.65488249 </v>
    <v>       0.50027113       0.66319259       0.66294435 </v>
    <v>       0.00607937       0.33492109       0.34928822 </v>
    <v>       0.49304976       0.33739028       0.34254144 </v>
    <v>       0.75528830       0.83704151       0.50301119 </v>
    <v>       0.23859159       0.49003247       0.17923589 </v>
    <v>       0.24639915       0.50774546       0.49672189 </v>
    <v>       0.24287712       0.52644730       0.82600348 </v>
    <v>       0.00898325       0.67118978       0.00120623 </v>
    <v>       0.22760645       0.83848315       0.17491021 </v>
    <v>       0.75309266       0.50180471       0.49732985 </v>
    <v>       0.77250591       0.83657410       0.17251293 </v>
    <v>       0.99481285       0.98760744       0.01030429 </v>
    <v>       0.75288928       0.16703385       0.17904529 </v>
    <v>       0.24405455       0.83108578       0.82483225 </v>
    <v>       0.75957261       0.52401362       0.82701373 </v>
   </varray>
  </structure>
  <varray name="forces" >
   <v>       0.00813400       0.00956995       0.00638060 </v>
   <v>       0.00159508       0.01680215      -0.00123938 </v>
   <v>      -0.01222107      -0.01890514      -0.03390596 </v>
   <v>      -0.01700608       0.01385722       0.00055963 </v>
   <v>       0.02058038      -0.01049709       0.00173335 </v>
   <v>      -0.00126272       0.00181857       0.00657770 </v>
   <v>       0.00925543      -0.00622144      -0.00745138 </v>
   <v>       0.02912077      -0.01639157       0.02913982 </v>
   <v>       0.03715691       0.01170285       0.01158945 </v>
   <v>      -0.00556874      -0.02005384      -0.00461500 </v>
   <v>       0.00604885       0.02798184       0.02700301 </v>
   <v>      -0.02821160      -0.00430104      -0.01460999 </v>
   <v>      -0.02080041      -0.00579221       0.01690583 </v>
   <v>       0.00436685       0.01129620      -0.01068684 </v>
   <v>      -0.02083099      -0.01473377       0.00168867 </v>
   <v>       0.02223803       0.00398420      -0.00183093 </v>
   <v>      -0.00306863      -0.00507427       0.00290378 </v>
   <v>      -0.01111592       0.00763746       0.00449538 </v>
   <v>      -0.04029307      -0.03649408      -0.03468127 </v>
   <v>       0.03065621       0.02740231      -0.01444123 </v>
   <v>       0.00394486       0.00162375       0.00090402 </v>
   <v>      -0.02706587       0.01316975      -0.00932287 </v>
   <v>      -0.01931003       0.04429972      -0.02387488 </v>
   <v>       0.00511984       0.00434649       0.00823217 </v>
   <v>       0.00826835      -0.00237740       0.00410220 </v>
   <v>      -0.02504308      -0.02403965       0.01879767 </v>
   <v>      -0.01541323      -0.01268608       0.01145438 </v>
   <v>       0.01276343      -0.01246540       0.00123574 </v>
   <v>      -0.02482144      -0.02699561       0.03172749 </v>
   <v>       0.01037222      -0.00509222      -0.00508959 </v>
   <v>       0.00417417       0.01246977      -0.04720547 </v>
   <v>       0.00112675      -0.03149748       0.00683112 </v>
   <v>       0.01351450       0.01035821       0.00207569 </v>
   <v>       0.02766943       0.05685222      -0.00163524 </v>
   <v>       0.00402851       0.00846417      -0.01202082 </v>
   <v>       0.01189832      -0.03001855       0.02827314 </v>
  </varray>
[...]
       <r>    7.1807    1.0000 </r>
       <r>    7.1922    1.0000 </r>
       <r>    7.2524    1.0000 </r>
       <r>    7.3101    1.0002 </r>
       <r>    7.3293    1.0004 </r>
       <r>    7.3649    1.0013 </r>
       <r>    7.3946    1.0029 </r>
       <r>    7.4411    1.0088 </r>
       <r>    7.4632    1.0136 </r>
       <r>    7.5133    1.0282 </r>
       <r>    7.5327    1.0332 </r>
       <r>    7.5536    1.0355 </r>
       <r>    7.5750    1.0314 </r>
       <r>    7.5943    1.0189 </r>
       <r>    7.6125    0.9966 </r>
       <r>    7.6640    0.8608 </r>
       <r>    7.6829    0.7823 </r>
       <r>    7.7198    0.5937 </r>
       <r>    7.7525    0.4103 </r>
       <r>    7.8127    0.1258 </r>
       <r>    7.8516    0.0188 </r>
       <r>    7.8785   -0.0186 </r>
       <r>    7.8963   -0.0306 </r>
       <r>    7.9527   -0.0302 </r>
       <r>    7.9862   -0.0201 </r>
       <r>    8.0198   -0.0113 </r>
       <r>    8.0513   -0.0057 </r>
       <r>    8.0647   -0.0042 </r>
       <r>    8.1279   -0.0007 </r>
       <r>    8.1634   -0.0002 </r>
       <r>    8.2091   -0.0000 </r>
       <r>    8.2456   -0.0000 </r>
       <r>    8.2693   -0.0000 </r>
       <r>    8.3724   -0.0000 </r>
       <r>    8.4482   -0.0000 </r>
       <r>    8.5354   -0.0000 </r>
       <r>    8.5466   -0.0000 </r>
       <r>    8.8250   -0.0000 </r>
       <r>    8.9485   -0.0000 </r>
       <r>    8.9821   -0.0000 </r>
       <r>    9.6475   -0.0000 </r>
       <r>    9.7210   -0.0000 </r>
       <r>    9.7487   -0.0000 </r>
       <r>    9.7985   -0.0000 </r>
       <r>    9.9267   -0.0000 </r>
       <r>    9.9748   -0.0000 </r>
       <r>   10.0258   -0.0000 </r>
       <r>   10.0964   -0.0000 </r>
       <r>   10.1525   -0.0000 </r>
      </set>
     </set>
    </set>
   </array>
  </eigenvalues>
  <separator name="orbital magnetization" >
   <v name="MAGDIPOLOUT">      0.00000000      0.00000000      0.00000000</v>
  </separator>
  <dos>
   <i name="efermi">      7.73653627 </i>
   <total>
    <array>
     <dimension dim="1">gridpoints</dimension>
     <dimension dim="2">spin</dimension>
     <field>energy</field>
     <field>total</field>
     <field>integrated</field>
     <set>
      <set comment="spin 1">
       <r>   -49.3525     0.0000     0.0000 </r>
       <r>   -49.1447     0.0000     0.0000 </r>
       <r>   -48.9368     0.0000     0.0000 </r>
       <r>   -48.7289     0.0000     0.0000 </r>
       <r>   -48.5210     0.0000     0.0000 </r>
       <r>   -48.3131     0.0000     0.0000 </r>
       <r>   -48.1053     0.0000     0.0000 </r>
       <r>   -47.8974    -0.0000    -0.0000 </r>
       <r>   -47.6895    -0.0000    -0.0000 </r>
       <r>   -47.4816    -0.0000    -0.0000 </r>
       <r>   -47.2738    -0.0000    -0.0000 </r>
       <r>   -47.0659    -0.0000    -0.0000 </r>
       <r>   -46.8580    -0.0355    -0.0074 </r>
       <r>   -46.6501    -0.8311    -0.1801 </r>
       <r>   -46.4422    18.2489     3.6134 </r>
       <r>   -46.2344    66.8282    17.5055 </r>
       <r>   -46.0265    13.0050    20.2090 </r>
       <r>   -45.8186    -1.0001    20.0011 </r>
       <r>   -45.6107    -0.0053    20.0000 </r>
       <r>   -45.4028    -0.0000    20.0000 </r>
       <r>   -45.1950    -0.0000    20.0000 </r>
       <r>   -44.9871     0.0000    20.0000 </r>
       <r>   -44.7792     0.0000    20.0000 </r>
       <r>   -44.5713     0.0000    20.0000 </r>
       <r>   -44.3635     0.0000    20.0000 </r>
       <r>   -44.1556     0.0000    20.0000 </r>
       <r>   -43.9477     0.0000    20.0000 </r>
       <r>   -43.7398     0.0000    20.0000 </r>
       <r>   -43.5319     0.0000    20.0000 </r>
       <r>   -43.3241     0.0000    20.0000 </r>
       <r>   -43.1162     0.0000    20.0000 </r>
       <r>   -42.9083     0.0000    20.0000 </r>
       <r>   -42.7004     0.0000    20.0000 </r>
       <r>   -42.4926     0.0000    20.0000 </r>
       <r>   -42.2847     0.0000    20.0000 </r>
       <r>   -42.0768     0.0000    20.0000 </r>
       <r>   -41.8689    -0.0000    20.0000 </r>
       <r>   -41.6610    -0.0000    20.0000 </r>
       <r>   -41.4532    -0.0000    20.0000 </r>
       <r>   -41.2453    -0.0000    20.0000 </r>
       <r>   -41.0374    -0.0000    20.0000 </r>
       <r>   -40.8295    -0.0173    19.9964 </r>
       <r>   -40.6216    -1.0663    19.7748 </r>
       <r>   -40.4138    18.1332    23.5443 </r>
       <r>   -40.2059    48.7202    33.6721 </r>
       <r>   -39.9980     1.8731    34.0615 </r>
       <r>   -39.7901    -0.2954    34.0001 </r>
       <r>   -39.5823    -0.0005    34.0000 </r>
       <r>   -39.3744    -0.0000    34.0000 </r>
       <r>   -39.1665    -0.0000    34.0000 </r>
       <r>   -38.9586     0.0000    34.0000 </r>
       <r>   -38.7507     0.0000    34.0000 </r>
       <r>   -38.5429     0.0000    34.0000 </r>
       <r>   -38.3350     0.0000    34.0000 </r>
       <r>   -38.1271     0.0000    34.0000 </r>
       <r>   -37.9192     0.0000    34.0000 </r>
       <r>   -37.7114     0.0000    34.0000 </r>
       <r>   -37.5035     0.0000    34.0000 </r>
       <r>   -37.2956     0.0000    34.0000 </r>
       <r>   -37.0877     0.0000    34.0000 </r>
       <r>   -36.8798     0.0000    34.0000 </r>
       <r>   -36.6720     0.0000    34.0000 </r>
       <r>   -36.4641     0.0000    34.0000 </r>
       <r>   -36.2562     0.0000    34.0000 </r>
       <r>   -36.0483     0.0000    34.0000 </r>
       <r>   -35.8404     0.0000    34.0000 </r>
       <r>   -35.6326     0.0000    34.0000 </r>
       <r>   -35.4247     0.0000    34.0000 </r>
       <r>   -35.2168     0.0000    34.0000 </r>
       <r>   -35.0089     0.0000    34.0000 </r>
       <r>   -34.8011     0.0000    34.0000 </r>
       <r>   -34.5932     0.0000    34.0000 </r>
       <r>   -34.3853     0.0000    34.0000 </r>
       <r>   -34.1774     0.0000    34.0000 </r>
       <r>   -33.9695     0.0000    34.0000 </r>
       <r>   -33.7617     0.0000    34.0000 </r>
       <r>   -33.5538     0.0000    34.0000 </r>
       <r>   -33.3459     0.0000    34.0000 </r>
       <r>   -33.1380     0.0000    34.0000 </r>
       <r>   -32.9302     0.0000    34.0000 </r>
       <r>   -32.7223     0.0000    34.0000 </r>
       <r>   -32.5144     0.0000    34.0000 </r>
       <r>   -32.3065     0.0000    34.0000 </r>
       <r>   -32.0986     0.0000    34.0000 </r>
       <r>   -31.8908     0.0000    34.0000 </r>
       <r>   -31.6829     0.0000    34.0000 </r>
       <r>   -31.4750     0.0000    34.0000 </r>
       <r>   -31.2671     0.0000    34.0000 </r>
       <r>   -31.0592     0.0000    34.0000 </r>
       <r>   -30.8514     0.0000    34.0000 </r>
       <r>   -30.6435     0.0000    34.0000 </r>
       <r>   -30.4356     0.0000    34.0000 </r>
       <r>   -30.2277     0.0000    34.0000 </r>
       <r>   -30.0199     0.0000    34.0000 </r>
       <r>   -29.8120     0.0000    34.0000 </r>
       <r>   -29.6041     0.0000    34.0000 </r>
       <r>   -29.3962     0.0000    34.0000 </r>
       <r>   -29.1883     0.0000    34.0000 </r>
       <r>   -28.9805     0.0000    34.0000 </r>
       <r>   -28.7726     0.0000    34.0000 </r>
       <r>   -28.5647     0.0000    34.0000 </r>
       <r>   -28.3568     0.0000    34.0000 </r>
       <r>   -28.1490     0.0000    34.0000 </r>
       <r>   -27.9411     0.0000    34.0000 </r>
       <r>   -27.7332     0.0000    34.0000 </r>
       <r>   -27.5253     0.0000    34.0000 </r>
       <r>   -27.3174     0.0000    34.0000 </r>
       <r>   -27.1096     0.0000    34.0000 </r>
       <r>   -26.9017     0.0000    34.0000 </r>
       <r>   -26.6938     0.0000    34.0000 </r>
       <r>   -26.4859     0.0000    34.0000 </r>
       <r>   -26.2780     0.0000    34.0000 </r>
       <r>   -26.0702     0.0000    34.0000 </r>
       <r>   -25.8623     0.0000    34.0000 </r>
       <r>   -25.6544     0.0000    34.0000 </r>
       <r>   -25.4465     0.0000    34.0000 </r>
       <r>   -25.2387     0.0000    34.0000 </r>
       <r>   -25.0308     0.0000    34.0000 </r>
       <r>   -24.8229     0.0000    34.0000 </r>
       <r>   -24.6150     0.0000    34.0000 </r>
       <r>   -24.4071     0.0000    34.0000 </r>
       <r>   -24.1993    -0.0000    34.0000 </r>
       <r>   -23.9914    -0.0000    34.0000 </r>
       <r>   -23.7835    -0.0000    34.0000 </r>
       <r>   -23.5756    -0.0000    34.0000 </r>
       <r>   -23.3677    -0.0002    34.0000 </r>
       <r>   -23.1599    -0.1751    33.9635 </r>
       <r>   -22.9520     1.2775    34.2291 </r>
       <r>   -22.7441    22.5974    38.9266 </r>
       <r>   -22.5362    66.2122    52.6907 </r>
       <r>   -22.3284   160.2746    86.0083 </r>
       <r>   -22.1205    36.7653    93.6510 </r>
       <r>   -21.9126     1.9678    94.0601 </r>
       <r>   -21.7047    -0.2882    94.0002 </r>
       <r>   -21.4968    -0.0009    94.0000 </r>
       <r>   -21.2890    -0.0000    94.0000 </r>
       <r>   -21.0811    -0.0000    94.0000 </r>
       <r>   -20.8732     0.0000    94.0000 </r>
       <r>   -20.6653     0.0000    94.0000 </r>
       <r>   -20.4575     0.0000    94.0000 </r>
       <r>   -20.2496    -0.0000    94.0000 </r>
       <r>   -20.0417    -0.0000    94.0000 </r>
       <r>   -19.8338    -0.0000    94.0000 </r>
       <r>   -19.6259    -0.0000    94.0000 </r>
       <r>   -19.4181    -0.0000    94.0000 </r>
       <r>   -19.2102    -0.0528    93.9890 </r>
       <r>   -19.0023     0.1621    94.0227 </r>
       <r>   -18.7944     9.1344    95.9216 </r>
       <r>   -18.5865    40.7738   104.3976 </r>
       <r>   -18.3787    93.2661   123.7855 </r>
       <r>   -18.1708    49.5805   134.0922 </r>
       <r>   -17.9629     9.7150   136.1118 </r>
       <r>   -17.7550    -0.5180   136.0041 </r>
       <r>   -17.5472    -0.0197   136.0000 </r>
       <r>   -17.3393    -0.0000   136.0000 </r>
       <r>   -17.1314    -0.0000   136.0000 </r>
       <r>   -16.9235     0.0000   136.0000 </r>
       <r>   -16.7156     0.0000   136.0000 </r>
       <r>   -16.5078     0.0000   136.0000 </r>
       <r>   -16.2999     0.0000   136.0000 </r>
       <r>   -16.0920     0.0000   136.0000 </r>
       <r>   -15.8841     0.0000   136.0000 </r>
       <r>   -15.6763     0.0000   136.0000 </r>
       <r>   -15.4684     0.0000   136.0000 </r>
       <r>   -15.2605     0.0000   136.0000 </r>
       <r>   -15.0526     0.0000   136.0000 </r>
       <r>   -14.8447     0.0000   136.0000 </r>
       <r>   -14.6369     0.0000   136.0000 </r>
       <r>   -14.4290     0.0000   136.0000 </r>
       <r>   -14.2211     0.0000   136.0000 </r>
       <r>   -14.0132     0.0000   136.0000 </r>
       <r>   -13.8053     0.0000   136.0000 </r>
       <r>   -13.5975     0.0000   136.0000 </r>
       <r>   -13.3896     0.0000   136.0000 </r>
       <r>   -13.1817     0.0000   136.0000 </r>
       <r>   -12.9738     0.0000   136.0000 </r>
       <r>   -12.7660     0.0000   136.0000 </r>
       <r>   -12.5581     0.0000   136.0000 </r>
       <r>   -12.3502     0.0000   136.0000 </r>
       <r>   -12.1423     0.0000   136.0000 </r>
       <r>   -11.9344     0.0000   136.0000 </r>
       <r>   -11.7266     0.0000   136.0000 </r>
       <r>   -11.5187     0.0000   136.0000 </r>
       <r>   -11.3108     0.0000   136.0000 </r>
       <r>   -11.1029     0.0000   136.0000 </r>
       <r>   -10.8951     0.0000   136.0000 </r>
       <r>   -10.6872     0.0000   136.0000 </r>
       <r>   -10.4793     0.0000   136.0000 </r>
       <r>   -10.2714     0.0000   136.0000 </r>
       <r>   -10.0635     0.0000   136.0000 </r>
       <r>    -9.8557     0.0000   136.0000 </r>
       <r>    -9.6478     0.0000   136.0000 </r>
       <r>    -9.4399     0.0000   136.0000 </r>
       <r>    -9.2320     0.0000   136.0000 </r>
       <r>    -9.0241     0.0000   136.0000 </r>
       <r>    -8.8163     0.0000   136.0000 </r>
       <r>    -8.6084     0.0000   136.0000 </r>
       <r>    -8.4005     0.0000   136.0000 </r>
       <r>    -8.1926     0.0000   136.0000 </r>
       <r>    -7.9848     0.0000   136.0000 </r>
       <r>    -7.7769     0.0000   136.0000 </r>
       <r>    -7.5690     0.0000   136.0000 </r>
       <r>    -7.3611     0.0000   136.0000 </r>
       <r>    -7.1532     0.0000   136.0000 </r>
       <r>    -6.9454     0.0000   136.0000 </r>
       <r>    -6.7375     0.0000   136.0000 </r>
       <r>    -6.5296     0.0000   136.0000 </r>
       <r>    -6.3217     0.0000   136.0000 </r>
       <r>    -6.1139     0.0000   136.0000 </r>
       <r>    -5.9060     0.0000   136.0000 </r>
       <r>    -5.6981     0.0000   136.0000 </r>
       <r>    -5.4902     0.0000   136.0000 </r>
       <r>    -5.2823     0.0000   136.0000 </r>
       <r>    -5.0745     0.0000   136.0000 </r>
       <r>    -4.8666     0.0000   136.0000 </r>
       <r>    -4.6587     0.0000   136.0000 </r>
       <r>    -4.4508     0.0000   136.0000 </r>
       <r>    -4.2429     0.0000   136.0000 </r>
       <r>    -4.0351     0.0000   136.0000 </r>
       <r>    -3.8272     0.0000   136.0000 </r>
       <r>    -3.6193     0.0000   136.0000 </r>
       <r>    -3.4114     0.0000   136.0000 </r>
       <r>    -3.2036     0.0000   136.0000 </r>
       <r>    -2.9957     0.0000   136.0000 </r>
       <r>    -2.7878     0.0000   136.0000 </r>
       <r>    -2.5799     0.0000   136.0000 </r>
       <r>    -2.3720     0.0000   136.0000 </r>
       <r>    -2.1642     0.0000   136.0000 </r>
       <r>    -1.9563     0.0000   136.0000 </r>
       <r>    -1.7484     0.0000   136.0000 </r>
       <r>    -1.5405     0.0000   136.0000 </r>
       <r>    -1.3327     0.0000   136.0000 </r>
       <r>    -1.1248     0.0000   136.0000 </r>
       <r>    -0.9169     0.0000   136.0000 </r>
       <r>    -0.7090     0.0000   136.0000 </r>
       <r>    -0.5011     0.0000   136.0000 </r>
       <r>    -0.2933    -0.0000   136.0000 </r>
       <r>    -0.0854    -0.0000   136.0000 </r>
       <r>     0.1225    -0.0000   136.0000 </r>
       <r>     0.3304    -0.0000   136.0000 </r>
       <r>     0.5383    -0.0001   136.0000 </r>
       <r>     0.7461    -0.0115   135.9976 </r>
       <r>     0.9540     0.1519   136.0292 </r>
       <r>     1.1619     0.6925   136.1731 </r>
       <r>     1.3698     1.4131   136.4669 </r>
       <r>     1.5776     1.7539   136.8315 </r>
       <r>     1.7855     2.7748   137.4083 </r>
       <r>     1.9934     4.6327   138.3713 </r>
       <r>     2.2013     1.7623   138.7377 </r>
       <r>     2.4092     4.4053   139.6534 </r>
       <r>     2.6170     3.6244   140.4069 </r>
       <r>     2.8249     3.3632   141.1060 </r>
       <r>     3.0328     5.3107   142.2100 </r>
       <r>     3.2407     8.3136   143.9382 </r>
       <r>     3.4486     8.7658   145.7604 </r>
       <r>     3.6564     8.9784   147.6269 </r>
       <r>     3.8643    12.0176   150.1251 </r>
       <r>     4.0722    17.1310   153.6862 </r>
       <r>     4.2801    23.3633   158.5429 </r>
       <r>     4.4879    23.9109   163.5135 </r>
       <r>     4.6958    26.2881   168.9782 </r>
       <r>     4.9037    32.0711   175.6451 </r>
       <r>     5.1116    36.8623   183.3080 </r>
       <r>     5.3195    39.7087   191.5626 </r>
       <r>     5.5273    39.7455   199.8248 </r>
       <r>     5.7352    33.3317   206.7537 </r>
       <r>     5.9431    31.9760   213.4008 </r>
       <r>     6.1510    15.5959   216.6429 </r>
       <r>     6.3588    31.9504   223.2847 </r>
       <r>     6.5667    68.3024   237.4833 </r>
       <r>     6.7746    61.5590   250.2800 </r>
       <r>     6.9825    48.1917   260.2981 </r>
       <r>     7.1904    52.3955   271.1899 </r>
       <r>     7.3982    56.4382   282.9222 </r>
       <r>     7.6061    59.1502   295.2183 </r>
       <r>     7.8140    49.5826   305.5254 </r>
       <r>     8.0219    47.5213   315.4041 </r>
       <r>     8.2298    48.3438   325.4537 </r>
       <r>     8.4376    36.3253   333.0049 </r>
       <r>     8.6455    26.4963   338.5129 </r>
       <r>     8.8534    18.4529   342.3489 </r>
       <r>     9.0613    17.6671   346.0215 </r>
       <r>     9.2691    11.1268   348.3345 </r>
       <r>     9.4770    16.8717   351.8418 </r>
       <r>     9.6849    27.4797   357.5542 </r>
       <r>     9.8928    25.9989   362.9588 </r>
       <r>    10.1007    19.5726   367.0276 </r>
       <r>    10.3085     4.9712   368.0610 </r>
       <r>    10.5164    -0.2864   368.0014 </r>
       <r>    10.7243    -0.0069   368.0000 </r>
       <r>    10.9322    -0.0000   368.0000 </r>
       <r>    11.1400    -0.0000   368.0000 </r>
       <r>    11.3479     0.0000   368.0000 </r>
       <r>    11.5558     0.0000   368.0000 </r>
       <r>    11.7637     0.0000   368.0000 </r>
       <r>    11.9716     0.0000   368.0000 </r>
       <r>    12.1794     0.0000   368.0000 </r>
       <r>    12.3873     0.0000   368.0000 </r>
       <r>    12.5952     0.0000   368.0000 </r>
       <r>    12.8031     0.0000   368.0000 </r>
       <r>    13.0110     0.0000   368.0000 </r>
      </set>
     </set>
    </array>
   </total>
  </dos>
 </calculation>
 <structure name="finalpos" >
  <crystal>
   <varray name="basis" >
    <v>       6.80233953       0.00573346      -0.00014900 </v>
    <v>       0.00871637      10.20446038      -0.00897095 </v>
    <v>      -0.00009691      -0.00880125      10.19350021 </v>
   </varray>
   <i name="volume">    707.57265860 </i>
   <varray name="rec_basis" >
    <v>       0.14700835      -0.00012557       0.00000129 </v>
    <v>      -0.00008260       0.09799651       0.00008461 </v>
    <v>       0.00000208       0.00008624       0.09810180 </v>
   </varray>
  </crystal>
  <varray name="positions" >
   <v>       0.74400694       0.16263808       0.49245112 </v>
   <v>       0.75437663       0.83141683       0.82401227 </v>
   <v>       0.49730147       0.34060250       0.99334021 </v>
   <v>       0.24255618       0.17278132       0.17588947 </v>
   <v>       0.00439442       0.33892341       0.66466738 </v>
   <v>       0.24357867       0.83329695       0.50120324 </v>
   <v>       0.75505645       0.14757671       0.82841026 </v>
   <v>       0.76409729       0.48779224       0.17601603 </v>
   <v>       0.50292531       0.66942164       0.32949237 </v>
   <v>       0.24411514       0.14136979       0.82989076 </v>
   <v>       0.00583299       0.34103014       0.98548983 </v>
   <v>       0.50321079       0.99402450       0.01481949 </v>
   <v>       0.49706506       0.34233795       0.67288823 </v>
   <v>       0.49479964       0.66538917       0.00605133 </v>
   <v>       0.50292003       0.99449008       0.32666006 </v>
   <v>       0.99504349       0.99777957       0.33087622 </v>
   <v>       0.25318870       0.16117439       0.49181754 </v>
   <v>       0.00402599       0.00027848       0.65654184 </v>
   <v>       0.99776636       0.66755825       0.33332766 </v>
   <v>       0.00046697       0.66263041       0.66357038 </v>
   <v>       0.49619203       0.99229527       0.65483888 </v>
   <v>       0.50007965       0.66348391       0.66288583 </v>
   <v>       0.00553140       0.33557023       0.34893081 </v>
   <v>       0.49317758       0.33749382       0.34301683 </v>
   <v>       0.75567336       0.83709797       0.50313267 </v>
   <v>       0.23903840       0.48985021       0.17960835 </v>
   <v>       0.24600082       0.50779381       0.49683880 </v>
   <v>       0.24292353       0.52662908       0.82598009 </v>
   <v>       0.00843942       0.67070994       0.00162207 </v>
   <v>       0.22770391       0.83820862       0.17488469 </v>
   <v>       0.75340194       0.50199848       0.49711534 </v>
   <v>       0.77243012       0.83641757       0.17232059 </v>
   <v>       0.99510901       0.98763214       0.01055248 </v>
   <v>       0.75343991       0.16770290       0.17892266 </v>
   <v>       0.24420392       0.83105365       0.82470709 </v>
   <v>       0.75992451       0.52355201       0.82722410 </v>
  </varray>
 </structure>
</modeling>
