 vasp.5.4.1 05Feb16 (build Jan 29 2020 16:04:39) complex                        
  
 executed on           IFC91_ompi date 2020.06.15  12:12:04
 running on  160 total cores
 distrk:  each k-point on   20 cores,    8 groups
 distr:  one band on NCORES_PER_BAND=   5 cores,    4 groups


--------------------------------------------------------------------------------------------------------


 INCAR:
 POTCAR:    PAW_PBE Hf 20Jan2003                  
 POTCAR:    PAW_PBE Nb_sv 25May2007               
 POTCAR:    PAW_PBE Ta 17Jan2003                  
 POTCAR:    PAW_PBE Zr_sv 04Jan2005               

 ----------------------------------------------------------------------------- 
|                                                                             |
|           W    W    AA    RRRRR   N    N  II  N    N   GGGG   !!!           |
|           W    W   A  A   R    R  NN   N  II  NN   N  G    G  !!!           |
|           W    W  A    A  R    R  N N  N  II  N N  N  G       !!!           |
|           W WW W  AAAAAA  RRRRR   N  N N  II  N  N N  G  GGG   !            |
|           WW  WW  A    A  R   R   N   NN  II  N   NN  G    G                |
|           W    W  A    A  R    R  N    N  II  N    N   GGGG   !!!           |
|                                                                             |
|      For optimal performance we recommend to set                            |
|        NCORE= 4 - approx SQRT( number of cores)                             |
|      NCORE specifies how many cores store one orbital (NPAR=cpu/NCORE).     |
|      This setting can  greatly improve the performance of VASP for DFT.     |
|      The default, NPAR=number of cores might be grossly inefficient         |
|      on modern multi-core architectures or massively parallel machines.     |
|      Do your own testing !!!!                                               |
|      Unfortunately you need to use the default for GW and RPA calculations. |
|      (for HF NCORE is supported but not extensively tested yet)             |
|                                                                             |
 ----------------------------------------------------------------------------- 


 ----------------------------------------------------------------------------- 
|                                                                             |
|           W    W    AA    RRRRR   N    N  II  N    N   GGGG   !!!           |
|           W    W   A  A   R    R  NN   N  II  NN   N  G    G  !!!           |
|           W    W  A    A  R    R  N N  N  II  N N  N  G       !!!           |
|           W WW W  AAAAAA  RRRRR   N  N N  II  N  N N  G  GGG   !            |
|           WW  WW  A    A  R   R   N   NN  II  N   NN  G    G                |
|           W    W  A    A  R    R  N    N  II  N    N   GGGG   !!!           |
|                                                                             |
|      You have enabled k-point parallelism (KPAR>1).                         |
|      This developmental code was originally  written by Paul Kent at ORNL,  |
|      and carefully double checked in Vienna.                                |
|      GW as well as linear response parallelism added by Martijn Marsman     |
|      and Georg Kresse.                                                      |
|      Carefully verify results versus KPAR=1.                                |
|      Report problems to Paul Kent and Vienna.                               |
|                                                                             |
 ----------------------------------------------------------------------------- 

 POTCAR:    PAW_PBE Hf 20Jan2003                  
   VRHFIN =Hf: 6s5d                                                             
   LEXCH  = PE                                                                  
   EATOM  =    75.9011 eV,    5.5786 Ry                                         
                                                                                
   TITEL  = PAW_PBE Hf 20Jan2003                                                
   LULTRA =        F    use ultrasoft PP ?                                      
   IUNSCR =        1    unscreen: 0-lin 1-nonlin 2-no                           
   RPACOR =    2.500    partial core radius                                     
   POMASS =  178.490; ZVAL   =    4.000    mass and valenz                      
   RCORE  =    3.000    outmost cutoff radius                                   
   RWIGS  =    3.050; RWIGS  =    1.614    wigner-seitz radius (au A)           
   ENMAX  =  220.334; ENMIN  =  165.250 eV                                      
   RCLOC  =    2.212    cutoff for local pot                                    
   LCOR   =        T    correct aug charges                                     
   LPAW   =        T    paw PP                                                  
   EAUG   =  335.116                                                            
   DEXC   =    0.000                                                            
   RMAX   =    3.077    core radius for proj-oper                               
   RAUG   =    1.300    factor for augmentation sphere                          
   RDEP   =    3.047    radius for radial grids                                 
   RDEPT  =    2.344    core radius for aug-charge                              
                                                                                
   Atomic configuration                                                         
   16 entries                                                                   
     n  l   j            E        occ.                                          
     1  0  0.50    -65259.4397   2.0000                                         
     2  0  0.50    -11157.9882   2.0000                                         
     2  1  1.50     -9795.2113   6.0000                                         
     3  0  0.50     -2541.4058   2.0000                                         
     3  1  1.50     -2134.4770   6.0000                                         
     3  2  2.50     -1653.5418  10.0000                                         
     4  0  0.50      -510.9575   2.0000                                         
     4  1  1.50      -377.5023   6.0000                                         
     4  2  2.50      -205.2085  10.0000                                         
     4  3  3.50       -15.4905  14.0000                                         
     5  0  0.50       -65.6020   2.0000                                         
     5  1  1.50       -34.2798   6.0000                                         
     5  2  2.50        -1.9877   3.0000                                         
     6  0  0.50        -4.7357   1.0000                                         
     6  1  1.50        -1.3606   0.0000                                         
     5  3  2.50        -1.3606   0.0000                                         
   Description                                                                  
     l       E           TYP  RCUT    TYP  RCUT                                 
     2     -1.9876627     23  2.500                                             
     2      0.0744703     23  2.500                                             
     0     -4.7356889     23  2.600                                             
     0      3.2364747     23  2.600                                             
     1     -1.3605826     23  3.000                                             
     1     27.2116520     23  3.000                                             
  local pseudopotential read in
  partial core-charges read in
  partial kinetic energy density read in
  atomic valenz-charges read in
  non local Contribution for L=           2  read in
    real space projection operators read in
  non local Contribution for L=           2  read in
    real space projection operators read in
  non local Contribution for L=           0  read in
    real space projection operators read in
  non local Contribution for L=           0  read in
    real space projection operators read in
  non local Contribution for L=           1  read in
    real space projection operators read in
  non local Contribution for L=           1  read in
    real space projection operators read in
    PAW grid and wavefunctions read in
 
   number of l-projection  operators is LMAX  =           6
   number of lm-projection operators is LMMAX =          18
 
 POTCAR:    PAW_PBE Nb_sv 25May2007               
   VRHFIN =Nb: 4p5s4d                                                           
   LEXCH  = PE                                                                  
   EATOM  =  1555.1913 eV,  114.3033 Ry                                         
                                                                                
   TITEL  = PAW_PBE Nb_sv 25May2007                                             
   LULTRA =        F    use ultrasoft PP ?                                      
   IUNSCR =        1    unscreen: 0-lin 1-nonlin 2-no                           
   RPACOR =    1.800    partial core radius                                     
   POMASS =   92.910; ZVAL   =   13.000    mass and valenz                      
   RCORE  =    2.400    outmost cutoff radius                                   
   RWIGS  =    2.400; RWIGS  =    1.270    wigner-seitz radius (au A)           
   ENMAX  =  293.235; ENMIN  =  219.927 eV                                      
   ICORE  =        3    local potential                                         
   LCOR   =        T    correct aug charges                                     
   LPAW   =        T    paw PP                                                  
   EAUG   =  455.659                                                            
   DEXC   =    0.000                                                            
   RMAX   =    2.456    core radius for proj-oper                               
   RAUG   =    1.300    factor for augmentation sphere                          
   RDEP   =    2.451    radius for radial grids                                 
   RDEPT  =    1.956    core radius for aug-charge                              
                                                                                
   Atomic configuration                                                         
   11 entries                                                                   
     n  l   j            E        occ.                                          
     1  0  0.50    -18805.2457   2.0000                                         
     2  0  0.50     -2630.2869   2.0000                                         
     2  1  1.50     -2348.4046   6.0000                                         
     3  0  0.50      -438.8757   2.0000                                         
     3  1  1.50      -346.7588   6.0000                                         
     3  2  2.50      -196.2560  10.0000                                         
     4  0  0.50       -58.3859   2.0000                                         
     5  0  0.50        -3.9816   1.0000                                         
     4  1  1.50       -34.5141   6.0000                                         
     4  2  2.50        -3.0408   4.0000                                         
     4  3  2.50        -1.3606   0.0000                                         
   Description                                                                  
     l       E           TYP  RCUT    TYP  RCUT                                 
     0    -58.3859094     23  2.200                                             
     0     -3.9816262     23  2.200                                             
     1    -34.5140738     23  2.200                                             
     1     13.6058260     23  2.200                                             
     2     -3.0408010     23  2.200                                             
     2     -0.1283038     23  2.200                                             
     3     -1.3605826     23  2.400                                             
  local pseudopotential read in
  partial core-charges read in
  partial kinetic energy density read in
  atomic valenz-charges read in
  non local Contribution for L=           0  read in
    real space projection operators read in
  non local Contribution for L=           0  read in
    real space projection operators read in
  non local Contribution for L=           1  read in
    real space projection operators read in
  non local Contribution for L=           1  read in
    real space projection operators read in
  non local Contribution for L=           2  read in
    real space projection operators read in
  non local Contribution for L=           2  read in
    real space projection operators read in
    PAW grid and wavefunctions read in
 
   number of l-projection  operators is LMAX  =           6
   number of lm-projection operators is LMMAX =          18
 
 POTCAR:    PAW_PBE Ta 17Jan2003                  
   VRHFIN =Ta:  6s5d                                                            
   LEXCH  = PE                                                                  
   EATOM  =   130.6506 eV,    9.6025 Ry                                         
                                                                                
   TITEL  = PAW_PBE Ta 17Jan2003                                                
   LULTRA =        F    use ultrasoft PP ?                                      
   IUNSCR =        1    unscreen: 0-lin 1-nonlin 2-no                           
   RPACOR =    2.330    partial core radius                                     
   POMASS =  180.948; ZVAL   =    5.000    mass and valenz                      
   RCORE  =    2.900    outmost cutoff radius                                   
   RWIGS  =    2.840; RWIGS  =    1.503    wigner-seitz radius (au A)           
   ENMAX  =  223.667; ENMIN  =  167.750 eV                                      
   RCLOC  =    2.205    cutoff for local pot                                    
   LCOR   =        T    correct aug charges                                     
   LPAW   =        T    paw PP                                                  
   EAUG   =  332.075                                                            
   DEXC   =    0.000                                                            
   RMAX   =    2.970    core radius for proj-oper                               
   RAUG   =    1.300    factor for augmentation sphere                          
   RDEP   =    3.060    radius for radial grids                                 
   RDEPT  =    2.354    core radius for aug-charge                              
                                                                                
   Atomic configuration                                                         
   16 entries                                                                   
     n  l   j            E        occ.                                          
     1  0  0.50    -67341.2807   2.0000                                         
     2  0  0.50    -11566.9376   2.0000                                         
     2  1  1.50    -10134.1182   6.0000                                         
     3  0  0.50     -2648.5620   2.0000                                         
     3  1  1.50     -2222.6012   6.0000                                         
     3  2  2.50     -1726.3120  10.0000                                         
     4  0  0.50      -538.6961   2.0000                                         
     4  1  1.50      -399.0129   6.0000                                         
     4  2  2.50      -220.3959  10.0000                                         
     4  3  3.50       -23.0374  14.0000                                         
     5  0  0.50       -71.2901   2.0000                                         
     5  1  1.50       -37.8225   6.0000                                         
     5  2  2.50        -2.6455   4.0000                                         
     6  0  0.50        -4.9623   1.0000                                         
     6  1  1.50        -1.3606   0.0000                                         
     5  3  2.50        -1.3606   0.0000                                         
   Description                                                                  
     l       E           TYP  RCUT    TYP  RCUT                                 
     2     -2.6455043     23  2.500                                             
     2     -0.6258895     23  2.500                                             
     0     -4.9622780     23  2.500                                             
     0      4.7531321     23  2.500                                             
     1     -1.3605826     23  2.900                                             
     1     27.2116520     23  2.900                                             
  local pseudopotential read in
  partial core-charges read in
  partial kinetic energy density read in
  atomic valenz-charges read in
  non local Contribution for L=           2  read in
    real space projection operators read in
  non local Contribution for L=           2  read in
    real space projection operators read in
  non local Contribution for L=           0  read in
    real space projection operators read in
  non local Contribution for L=           0  read in
    real space projection operators read in
  non local Contribution for L=           1  read in
    real space projection operators read in
  non local Contribution for L=           1  read in
    real space projection operators read in
    PAW grid and wavefunctions read in
 
   number of l-projection  operators is LMAX  =           6
   number of lm-projection operators is LMMAX =          18
 
 POTCAR:    PAW_PBE Zr_sv 04Jan2005               
   VRHFIN =Zr: 4s4p5s4d                                                         
   LEXCH  = PE                                                                  
   EATOM  =  1284.2219 eV,   94.3876 Ry                                         
                                                                                
   TITEL  = PAW_PBE Zr_sv 04Jan2005                                             
   LULTRA =        F    use ultrasoft PP ?                                      
   IUNSCR =        1    unscreen: 0-lin 1-nonlin 2-no                           
   RPACOR =    2.200    partial core radius                                     
   POMASS =   91.224; ZVAL   =   12.000    mass and valenz                      
   RCORE  =    2.500    outmost cutoff radius                                   
   RWIGS  =    3.070; RWIGS  =    1.625    wigner-seitz radius (au A)           
   ENMAX  =  229.898; ENMIN  =  172.424 eV                                      
   ICORE  =        3    local potential                                         
   LCOR   =        T    correct aug charges                                     
   LPAW   =        T    paw PP                                                  
   EAUG   =  461.257                                                            
   DEXC   =    0.000                                                            
   RMAX   =    2.561    core radius for proj-oper                               
   RAUG   =    1.300    factor for augmentation sphere                          
   RDEP   =    2.597    radius for radial grids                                 
   RDEPT  =    2.007    core radius for aug-charge                              
                                                                                
   Atomic configuration                                                         
   11 entries                                                                   
     n  l   j            E        occ.                                          
     1  0  0.50    -17820.0161   2.0000                                         
     2  0  0.50     -2467.0882   2.0000                                         
     2  1  1.50     -2199.6095   6.0000                                         
     3  0  0.50      -402.4863   2.0000                                         
     3  1  1.50      -315.3675   6.0000                                         
     3  2  2.50      -172.4472  10.0000                                         
     4  0  0.50       -52.4146   2.0000                                         
     5  0  0.50        -3.8421   1.0000                                         
     4  1  1.50       -30.5054   6.0000                                         
     4  2  2.50        -2.3341   3.0000                                         
     4  3  2.50        -1.3606   0.0000                                         
   Description                                                                  
     l       E           TYP  RCUT    TYP  RCUT                                 
     0    -52.4145962     23  2.200                                             
     0     -3.8421270     23  2.500                                             
     1    -30.5053914     23  2.200                                             
     1     20.4087390     23  2.200                                             
     2     -2.3340816     23  2.500                                             
     2     -0.6120942     23  2.500                                             
     3     -4.0817478     23  2.500                                             
  local pseudopotential read in
  partial core-charges read in
  partial kinetic energy density read in
  atomic valenz-charges read in
  non local Contribution for L=           0  read in
    real space projection operators read in
  non local Contribution for L=           0  read in
    real space projection operators read in
  non local Contribution for L=           1  read in
    real space projection operators read in
  non local Contribution for L=           1  read in
    real space projection operators read in
  non local Contribution for L=           2  read in
    real space projection operators read in
  non local Contribution for L=           2  read in
    real space projection operators read in
    PAW grid and wavefunctions read in
 
   number of l-projection  operators is LMAX  =           6
   number of lm-projection operators is LMMAX =          18
 
 Optimization of the real space projectors (new method)

 maximal supplied QI-value         = 12.47
 optimisation between [QCUT,QGAM] = [  8.86, 17.71] = [ 21.96, 87.83] Ry 
 Optimized for a Real-space Cutoff    1.90 Angstroem

   l    n(q)    QCUT    max X(q) W(low)/X(q) W(high)/X(q)  e(spline) 
   2      9     8.855    48.111    0.22E-03    0.80E-04    0.10E-05
   2      9     8.855    40.545    0.21E-03    0.76E-04    0.95E-06
   0     10     8.855   121.658    0.27E-04    0.12E-04    0.11E-06
   0     10     8.855    71.177    0.22E-04    0.11E-04    0.99E-07
   1     10     8.855    14.183    0.65E-04    0.10E-03    0.98E-07
   1     10     8.855     8.257    0.43E-04    0.73E-04    0.72E-07
 Optimization of the real space projectors (new method)

 maximal supplied QI-value         = 15.68
 optimisation between [QCUT,QGAM] = [  8.78, 17.72] = [ 21.60, 87.97] Ry 
 Optimized for a Real-space Cutoff    1.96 Angstroem

   l    n(q)    QCUT    max X(q) W(low)/X(q) W(high)/X(q)  e(spline) 
   0     10     8.783    10.201    0.29E-04    0.25E-05    0.69E-07
   0     10     8.783     8.174    0.45E-04    0.57E-05    0.14E-06
   1     10     8.783     3.488    0.76E-05    0.24E-04    0.95E-07
   1     10     8.783     4.917    0.78E-04    0.14E-03    0.46E-06
   2      9     8.783   153.744    0.22E-03    0.34E-04    0.15E-05
   2      9     8.783   126.342    0.22E-03    0.35E-04    0.15E-05
 Optimization of the real space projectors (new method)

 maximal supplied QI-value         = 12.85
 optimisation between [QCUT,QGAM] = [  8.87, 17.73] = [ 22.01, 88.06] Ry 
 Optimized for a Real-space Cutoff    1.90 Angstroem

   l    n(q)    QCUT    max X(q) W(low)/X(q) W(high)/X(q)  e(spline) 
   2      9     8.867    62.315    0.23E-03    0.62E-04    0.11E-05
   2      9     8.867    52.185    0.23E-03    0.62E-04    0.11E-05
   0     10     8.867   103.837    0.15E-04    0.23E-04    0.98E-07
   0     10     8.867    59.728    0.12E-04    0.21E-04    0.89E-07
   1     10     8.867    13.958    0.50E-04    0.22E-04    0.14E-06
   1     10     8.867     8.441    0.36E-04    0.19E-04    0.98E-07
 Optimization of the real space projectors (new method)

 maximal supplied QI-value         = 15.12
 optimisation between [QCUT,QGAM] = [  8.77, 17.69] = [ 21.53, 87.61] Ry 
 Optimized for a Real-space Cutoff    1.74 Angstroem

   l    n(q)    QCUT    max X(q) W(low)/X(q) W(high)/X(q)  e(spline) 
   0      9     8.768    12.107    0.28E-04    0.53E-06    0.29E-07
   0      9     8.768     9.948    0.36E-04    0.50E-05    0.64E-07
   1      9     8.768     3.563    0.14E-04    0.16E-04    0.88E-07
   1      9     8.768     4.524    0.21E-03    0.33E-03    0.19E-06
   2      8     8.768    87.261    0.19E-03    0.25E-03    0.24E-06
   2      8     8.768    70.950    0.19E-03    0.24E-03    0.24E-06
  PAW_PBE Hf 20Jan2003                  :
 energy of atom  1       EATOM=  -75.9011
 kinetic energy error for atom=    0.0071 (will be added to EATOM!!)
  PAW_PBE Nb_sv 25May2007               :
 energy of atom  2       EATOM=-1555.1913
 kinetic energy error for atom=    0.0655 (will be added to EATOM!!)
  PAW_PBE Ta 17Jan2003                  :
 energy of atom  3       EATOM= -130.6506
 kinetic energy error for atom=    0.0121 (will be added to EATOM!!)
  PAW_PBE Zr_sv 04Jan2005               :
 energy of atom  4       EATOM=-1284.2219
 kinetic energy error for atom=    0.0483 (will be added to EATOM!!)
 
 
 POSCAR: generated by pypospack                  
  positions in direct lattice
  No initial velocities read in
 exchange correlation table for  LEXCH =        8
   RHO(1)=    0.500       N(1)  =     2000
   RHO(2)=  100.500       N(2)  =     4000
 


--------------------------------------------------------------------------------------------------------


 ion  position               nearest neighbor table
   1  0.268  0.505  0.167-  15 2.96  19 2.97  16 2.97  13 2.98  23 3.02  25 3.04   5 3.05   6 3.06
                            21 3.20   3 3.28   7 3.29  35 3.29
   2  0.491  0.665  0.646-  24 2.96  18 2.98   9 3.01  35 3.01   3 3.02  10 3.03  23 3.07  36 3.11
                            34 3.14  12 3.27  33 3.40   8 3.42
   3  0.262  0.509  0.845-  19 2.97   5 3.00  17 3.02   2 3.02  13 3.05  12 3.05  33 3.06   6 3.12
                            10 3.21   1 3.28  36 3.43  36 3.54  35 3.64
   4  0.226  0.169  0.485-  22 2.92  28 2.96  17 2.96  15 2.98  27 2.98   8 3.00  16 3.01  33 3.06
                            11 3.13  30 3.20  35 3.34  18 3.44  30 3.76
   5  0.007  0.331  0.004-  20 2.92  11 3.00   3 3.00  32 3.05   1 3.05  36 3.07  31 3.08  21 3.11
                            16 3.17  17 3.27  29 3.33  19 3.34   6 3.42
   6  0.968  0.664  0.019-  21 2.89  14 2.90  13 2.97  36 3.02   7 3.05   1 3.06  34 3.07  25 3.12
                             3 3.12  10 3.14   5 3.42  29 3.52
   7  0.263  0.825  0.166-  27 2.93  28 2.94  26 2.94  13 2.97  23 2.99  25 3.01  29 3.04   6 3.05
                            10 3.24  18 3.27   1 3.29  14 3.29
   8  0.471  0.999  0.655-  18 2.93  20 2.94   4 3.00  10 3.02  22 3.03   9 3.06  30 3.09  34 3.10
                            31 3.12  27 3.21   2 3.42  33 3.43  26 3.58
   9  0.770  0.839  0.501-  28 2.88  25 2.90  12 2.93  23 2.97  27 2.99   2 3.01  22 3.04   8 3.06
                            18 3.22  14 3.28  34 3.28  30 3.33  24 3.44
  10  0.265  0.822  0.847-  26 2.97  22 2.99  13 3.00  12 3.01  29 3.02   8 3.02   2 3.03   6 3.14
                             3 3.21   7 3.24  34 3.42  34 3.56
  11  0.254  0.166  0.178-  26 2.81  19 2.87  28 2.89  16 2.94  27 2.96  29 2.96   5 3.00  15 3.01
                             4 3.13  32 3.33
  12  0.021  0.671  0.658-  18 2.81  35 2.86   9 2.93  24 2.99  10 3.01  34 3.02   3 3.05  36 3.06
                             2 3.27
  13  0.541  0.667  0.009-  21 2.80  14 2.82  36 2.95  34 2.97   6 2.97   7 2.97   1 2.98  10 3.00
                             3 3.05
  14  0.735  0.837  0.181-  27 2.81  28 2.81  13 2.82  23 2.84  25 2.87   6 2.90  26 3.11  29 3.13
                             9 3.28   7 3.29  32 3.40
  15  0.504  0.341  0.342-  21 2.76  35 2.90  32 2.92  24 2.93   1 2.96   4 2.98  11 3.01  30 3.03
                            33 3.21
  16  0.985  0.343  0.315-  21 2.76  24 2.87  32 2.90  35 2.91  11 2.94   1 2.97   4 3.01  30 3.01
                             5 3.17  25 3.31
  17  0.016  0.329  0.682-  20 2.79  36 2.87  31 2.92   4 2.96  35 2.97   3 3.02  30 3.08  24 3.15
                             5 3.27  33 3.31
  18  0.233  0.834  0.487-  12 2.81  27 2.83  28 2.87  22 2.89  23 2.93   8 2.93  25 2.96   2 2.98
                             9 3.22   7 3.27   4 3.44  35 3.47
  19  0.486  0.318  0.000-  20 2.82  11 2.87  32 2.91   1 2.97  31 2.97   3 2.97  21 3.08  26 3.11
                            36 3.17   5 3.34
  20  0.250  0.169  0.834-  17 2.79  22 2.82  19 2.82  26 2.87  29 2.91   5 2.92   8 2.94  33 2.97
                            31 3.47
  21  0.727  0.495  0.178-  15 2.76  16 2.76  13 2.80  23 2.87   6 2.89  25 2.91  19 3.08   5 3.11
                             1 3.20  24 3.23  32 3.34  36 3.62
  22  0.036  0.998  0.675-  20 2.82  18 2.89   4 2.92  34 2.95  10 2.99   8 3.03  31 3.03   9 3.04
                            30 3.12  29 3.35  28 3.64
  23  0.513  0.670  0.345-  14 2.84  21 2.87  24 2.90  18 2.93   9 2.97   7 2.99   1 3.02  35 3.04
                             2 3.07  25 3.26  27 3.29
  24  0.767  0.504  0.494-  25 2.80  16 2.87  23 2.90  15 2.93   2 2.96  12 2.99  33 3.07  17 3.15
                            35 3.19  21 3.23  36 3.35   9 3.44  30 3.48
  25  0.981  0.666  0.325-  24 2.80  14 2.87   9 2.90  21 2.91  18 2.96  35 2.97   7 3.01   1 3.04
                             6 3.12  23 3.26  16 3.31  28 3.33
  26  0.481  0.014  0.006-  11 2.81  20 2.87  32 2.93   7 2.94  10 2.97  31 3.00  14 3.11  19 3.11
                            34 3.20  29 3.27  27 3.40   8 3.58  29 3.69
  27  0.492  0.991  0.339-  14 2.81  18 2.83   7 2.93  11 2.96   4 2.98  32 2.99   9 2.99  30 3.08
                             8 3.21  23 3.29  26 3.40  28 3.44  28 3.53
  28  0.999  0.991  0.319-  14 2.81  18 2.87   9 2.88  11 2.89   7 2.94   4 2.96  32 3.00  30 3.01
                            29 3.21  25 3.33  27 3.44  27 3.53  22 3.64
  29  0.011  0.006  0.004-  20 2.91  11 2.96  10 3.02  31 3.03   7 3.04  32 3.07  34 3.09  14 3.13
                            28 3.21  26 3.27   5 3.33  22 3.35   6 3.52  26 3.69
  30  0.766  0.165  0.498-  28 3.01  16 3.01  33 3.03  15 3.03  17 3.08  27 3.08   8 3.09  22 3.12
                             4 3.20  32 3.32   9 3.33  31 3.36  24 3.48   4 3.76
  31  0.749  0.163  0.829-  17 2.92  19 2.97  26 3.00  29 3.03  22 3.03  33 3.07   5 3.08   8 3.12
                            34 3.32  30 3.36  36 3.44  20 3.47  32 3.51
  32  0.733  0.169  0.174-  16 2.90  19 2.91  15 2.92  26 2.93  27 2.99  28 3.00   5 3.05  29 3.07
                            30 3.32  11 3.33  21 3.34  14 3.40  31 3.51
  33  0.491  0.333  0.657-  20 2.97  35 3.02  36 3.03  30 3.03   3 3.06   4 3.06  31 3.07  24 3.07
                            15 3.21  17 3.31   2 3.40   8 3.43
  34  0.755  0.839  0.824-  22 2.95  13 2.97  12 3.02   6 3.07  29 3.09   8 3.10   2 3.14  26 3.20
                             9 3.28  31 3.32  10 3.42  36 3.49  10 3.56
  35  0.227  0.495  0.489-  12 2.86  15 2.90  16 2.91  17 2.97  25 2.97   2 3.01  33 3.02  23 3.04
                            24 3.19   1 3.29   4 3.34  18 3.47   3 3.64
  36  0.755  0.498  0.823-  17 2.87  13 2.95   6 3.02  33 3.03  12 3.06   5 3.07   2 3.11  19 3.17
                            24 3.35   3 3.43  31 3.44  34 3.49   3 3.54  21 3.62
 
  LATTYP: Found a triclinic cell.
 ALAT       =    14.4432817718
 B/A-ratio  =     0.7094410795
 C/A-ratio  =     0.8585137534
 COS(alpha) =     0.0001189806
 COS(beta)  =     0.5836881631
 COS(gamma) =     0.7093415901
  
  Lattice vectors:
  
 A1 = (  -0.0651622935, -10.2453751779, -10.1801979194)
 A2 = (  -0.0022048330, -10.2466571735,   0.0001696025)
 A3 = (  -7.0168810862,  -0.0001346844, -10.2233717425)


Analysis of symmetry for initial positions (statically):
=====================================================================
 Subroutine PRICEL returns:
 Original cell was already a primitive cell.
 

 Routine SETGRP: Setting up the symmetry group for a 
 triclinic supercell.


 Subroutine GETGRP returns: Found  1 space group operations
 (whereof  1 operations were pure point group operations)
 out of a pool of  2 trial point group operations.


The static configuration has the point symmetry C_1 .


Analysis of symmetry for dynamics (positions and initial velocities):
=====================================================================
 Subroutine PRICEL returns:
 Original cell was already a primitive cell.
 

 Routine SETGRP: Setting up the symmetry group for a 
 triclinic supercell.


 Subroutine GETGRP returns: Found  1 space group operations
 (whereof  1 operations were pure point group operations)
 out of a pool of  2 trial point group operations.


The dynamic configuration has the point symmetry C_1 .


 Subroutine INISYM returns: Found  1 space group operations
 (whereof  1 operations are pure point group operations),
 and found     1 'primitive' translations

 
 
 KPOINTS: k-points                                

Automatic generation of k-mesh.
Space group operators:
 irot       det(A)        alpha          n_x          n_y          n_z        tau_x        tau_y        tau_z
    1     1.000000     0.000001     1.000000     0.000000     0.000000     0.000000     0.000000     0.000000
 
 Subroutine IBZKPT returns following result:
 ===========================================
 
 Found     14 irreducible k-points:
 
 Following reciprocal coordinates:
            Coordinates               Weight
  0.000000  0.000000  0.000000      1.000000
  0.333333  0.000000  0.000000      2.000000
  0.000000  0.333333  0.000000      2.000000
  0.333333  0.333333  0.000000      2.000000
 -0.333333  0.333333  0.000000      2.000000
  0.000000  0.000000  0.333333      2.000000
  0.333333  0.000000  0.333333      2.000000
 -0.333333 -0.000000  0.333333      2.000000
  0.000000  0.333333  0.333333      2.000000
  0.333333  0.333333  0.333333      2.000000
 -0.333333  0.333333  0.333333      2.000000
  0.000000 -0.333333  0.333333      2.000000
  0.333333 -0.333333  0.333333      2.000000
 -0.333333 -0.333333  0.333333      2.000000
 
 Following cartesian coordinates:
            Coordinates               Weight
  0.000000  0.000000  0.000000      1.000000
  0.239122 -0.000051 -0.001479      2.000000
 -0.000033  0.162274  0.000021      2.000000
  0.239088  0.162223 -0.001458      2.000000
 -0.239155  0.162326  0.001499      2.000000
 -0.001010  0.000003  0.163337      2.000000
  0.238112 -0.000049  0.161859      2.000000
 -0.240132  0.000054  0.164816      2.000000
 -0.001043  0.162277  0.163358      2.000000
  0.238078  0.162226  0.161879      2.000000
 -0.240165  0.162329  0.164837      2.000000
 -0.000977 -0.162271  0.163317      2.000000
  0.238145 -0.162323  0.161838      2.000000
 -0.240099 -0.162220  0.164795      2.000000
 


--------------------------------------------------------------------------------------------------------




 Dimension of arrays:
   k-points           NKPTS =     14   k-points in BZ     NKDIM =     14   number of bands    NBANDS=    188
   number of dos      NEDOS =    301   number of ions     NIONS =     36
   non local maximal  LDIM  =      6   non local SUM 2l+1 LMDIM =     18
   total plane-waves  NPLWV = 144000
   max r-space proj   IRMAX =   6316   max aug-charges    IRDMAX=  13711
   dimension x,y,z NGX =    40 NGY =   60 NGZ =   60
   dimension x,y,z NGXF=    80 NGYF=  120 NGZF=  120
   support grid    NGXF=    80 NGYF=  120 NGZF=  120
   ions per type =              10  10   7   9
 NGX,Y,Z   is equivalent  to a cutoff of   9.56,  9.73,  9.80 a.u.
 NGXF,Y,Z  is equivalent  to a cutoff of  19.13, 19.47, 19.60 a.u.


 I would recommend the setting:
   dimension x,y,z NGX =    39 NGY =   58 NGZ =   58
 SYSTEM =  automatically generated by mexm         
 POSCAR =  generated by pypospack                  

 Startparameter for this run:
   NWRITE =      2    write-flag & timer
   PREC   = accura    normal or accurate (medium, high low for compatibility)
   ISTART =      0    job   : 0-new  1-cont  2-samecut
   ICHARG =      2    charge: 1-file 2-atom 10-const
   ISPIN  =      1    spin polarized calculation?
   LNONCOLLINEAR =      F non collinear calculations
   LSORBIT =      F    spin-orbit coupling
   INIWAV =      1    electr: 0-lowe 1-rand  2-diag
   LASPH  =      F    aspherical Exc in radial PAW
   METAGGA=      F    non-selfconsistent MetaGGA calc.

 Electronic Relaxation 1
   ENCUT  =  300.0 eV  22.05 Ry    4.70 a.u.   9.82 14.47 14.38*2*pi/ulx,y,z
   ENINI  =  300.0     initial cutoff
   ENAUG  =  461.3 eV  augmentation charge cutoff
   NELM   =     70;   NELMIN=  2; NELMDL= -5     # of ELM steps 
   EDIFF  = 0.1E-04   stopping-criterion for ELM
   LREAL  =      T    real-space projection
   NLSPLINE    = F    spline interpolate recip. space projectors
   LCOMPAT=      F    compatible to vasp.4.4
   GGA_COMPAT  = T    GGA compatible to vasp.4.4-vasp.4.6
   LMAXPAW     = -100 max onsite density
   LMAXMIX     =    2 max onsite mixed and CHGCAR
   VOSKOWN=      0    Vosko Wilk Nusair interpolation
   ROPT   =   -0.00025  -0.00025  -0.00025  -0.00025
 Ionic relaxation
   EDIFFG = -.1E-01   stopping-criterion for IOM
   NSW    =    300    number of steps for IOM
   NBLOCK =      1;   KBLOCK =    300    inner block; outer block 
   IBRION =      2    ionic relax: 0-MD 1-quasi-New 2-CG
   NFREE  =      1    steps in history (QN), initial steepest desc. (CG)
   ISIF   =      3    stress and relaxation
   IWAVPR =     11    prediction:  0-non 1-charg 2-wave 3-comb
   ISYM   =      1    0-nonsym 1-usesym 2-fastsym
   LCORR  =      T    Harris-Foulkes like correction to forces

   POTIM  = 0.1500    time-step for ionic-motion
   TEIN   =    0.0    initial temperature
   TEBEG  =    0.0;   TEEND  =   0.0 temperature during run
   SMASS  =  -3.00    Nose mass-parameter (am)
   estimated Nose-frequenzy (Omega)   =  0.10E-29 period in steps =****** mass=  -0.111E-26a.u.
   SCALEE = 1.0000    scale energy and forces
   NPACO  =    256;   APACO  = 16.0  distance and # of slots for P.C.
   PSTRESS=    0.0 pullay stress

  Mass of Ions in am
   POMASS = 178.49 92.91180.95 91.22
  Ionic Valenz
   ZVAL   =   4.00 13.00  5.00 12.00
  Atomic Wigner-Seitz radii
   RWIGS  =  -1.00 -1.00 -1.00 -1.00
  virtual crystal weights 
   VCA    =   1.00  1.00  1.00  1.00
   NELECT =     313.0000    total number of electrons
   NUPDOWN=      -1.0000    fix difference up-down

 DOS related values:
   EMIN   =  10.00;   EMAX   =-10.00  energy-range for DOS
   EFERMI =   0.00
   ISMEAR =     1;   SIGMA  =   0.15  broadening in eV -4-tet -1-fermi 0-gaus

 Electronic relaxation 2 (details)
   IALGO  =     68    algorithm
   LDIAG  =      T    sub-space diagonalisation (order eigenvalues)
   LSUBROT=      F    optimize rotation matrix (better conditioning)
   TURBO    =      0    0=normal 1=particle mesh
   IRESTART =      0    0=no restart 2=restart with 2 vectors
   NREBOOT  =      0    no. of reboots
   NMIN     =      0    reboot dimension
   EREF     =   0.00    reference energy to select bands
   IMIX   =      4    mixing-type and parameters
     AMIX     =   0.40;   BMIX     =  1.00
     AMIX_MAG =   1.60;   BMIX_MAG =  1.00
     AMIN     =   0.10
     WC   =   100.;   INIMIX=   1;  MIXPRE=   1;  MAXMIX= -45

 Intra band minimization:
   WEIMIN = 0.0010     energy-eigenvalue tresh-hold
   EBREAK =  0.13E-07  absolut break condition
   DEPER  =   0.30     relativ break condition  

   TIME   =   0.40     timestep for ELM

  volume/ion in A,a.u.               =      20.15       135.97
  Fermi-wavevector in a.u.,A,eV,Ry     =   1.237096  2.337772 20.822434  1.530406
  Thomas-Fermi vector in A             =   2.371677
 
 Write flags
   LWAVE  =      F    write WAVECAR
   LCHARG =      F    write CHGCAR
   LVTOT  =      F    write LOCPOT, total local potential
   LVHAR  =      F    write LOCPOT, Hartree potential only
   LELF   =      F    write electronic localiz. function (ELF)
   LORBIT =      0    0 simple, 1 ext, 2 COOP (PROOUT)


 Dipole corrections
   LMONO  =      F    monopole corrections only (constant potential shift)
   LDIPOL =      F    correct potential (dipole corrections)
   IDIPOL =      0    1-x, 2-y, 3-z, 4-all directions 
   EPSILON=  1.0000000 bulk dielectric constant

 Exchange correlation treatment:
   GGA     =    --    GGA type
   LEXCH   =     8    internal setting for exchange type
   VOSKOWN=      0    Vosko Wilk Nusair interpolation
   LHFCALC =     F    Hartree Fock is set to
   LHFONE  =     F    Hartree Fock one center treatment
   AEXX    =    0.0000 exact exchange contribution

 Linear response parameters
   LEPSILON=     F    determine dielectric tensor
   LRPA    =     F    only Hartree local field effects (RPA)
   LNABLA  =     F    use nabla operator in PAW spheres
   LVEL    =     F    velocity operator in full k-point grid
   LINTERFAST=   F  fast interpolation
   KINTER  =     0    interpolate to denser k-point grid
   CSHIFT  =0.1000    complex shift for real part using Kramers Kronig
   OMEGAMAX=  -1.0    maximum frequency
   DEG_THRESHOLD= 0.2000000E-02 threshold for treating states as degnerate
   RTIME   =    0.100 relaxation time in fs

 Orbital magnetization related:
   ORBITALMAG=     F  switch on orbital magnetization
   LCHIMAG   =     F  perturbation theory with respect to B field
   DQ        =  0.001000  dq finite difference perturbation B field



--------------------------------------------------------------------------------------------------------


 conjugate gradient relaxation of ions
 charge density and potential will be updated during run
 non-spin polarized calculation
 RMM-DIIS sequential band-by-band and
  variant of blocked Davidson during initial phase
 perform sub-space diagonalisation
    before iterative eigenvector-optimisation
 modified Broyden-mixing scheme, WC =      100.0
 initial mixing is a Kerker type mixing with AMIX =  0.4000 and BMIX =      1.0000
 Hartree-type preconditioning will be used
 using additional bands           31
 real space projection scheme for non local part
 use partial core corrections
 calculate Harris-corrections to forces 
   (improved forces if not selfconsistent)
 use gradient corrections 
 use of overlap-Matrix (Vanderbilt PP)
 Methfessel and Paxton  Order N= 1 SIGMA  =   0.15


--------------------------------------------------------------------------------------------------------


  energy-cutoff  :      300.00
  volume of cell :      725.37
      direct lattice vectors                 reciprocal lattice vectors
     6.953923626  0.001416680  0.043004221     0.143809214 -0.000030959 -0.000889349
     0.002204833 10.246657174 -0.000169603    -0.000019959  0.097592808  0.000012413
     0.062957461 -0.001281996 10.180367522    -0.000607484  0.000001757  0.098232038

  length of vectors
     6.954056741 10.246657412 10.180562272     0.143811967  0.097592811  0.098233916


 
 k-points in units of 2pi/SCALE and weight: k-points                                
   0.00000000  0.00000000  0.00000000       0.037
   0.23912165 -0.00005148 -0.00147878       0.074
  -0.00003319  0.16227439  0.00002064       0.074
   0.23908846  0.16222292 -0.00145814       0.074
  -0.23915483  0.16232587  0.00149942       0.074
  -0.00101011  0.00000292  0.16333729       0.074
   0.23811154 -0.00004856  0.16185850       0.074
  -0.24013175  0.00005440  0.16481607       0.074
  -0.00104329  0.16227731  0.16335793       0.074
   0.23807835  0.16222584  0.16187914       0.074
  -0.24016494  0.16232879  0.16483671       0.074
  -0.00097692 -0.16227147  0.16331665       0.074
   0.23814473 -0.16232295  0.16183786       0.074
  -0.24009857 -0.16221999  0.16479543       0.074
 
 k-points in reciprocal lattice and weights: k-points                                
   0.00000000  0.00000000  0.00000000       0.037
   0.33333333  0.00000000  0.00000000       0.074
   0.00000000  0.33333333  0.00000000       0.074
   0.33333333  0.33333333  0.00000000       0.074
  -0.33333333  0.33333333  0.00000000       0.074
   0.00000000  0.00000000  0.33333333       0.074
   0.33333333  0.00000000  0.33333333       0.074
  -0.33333333 -0.00000000  0.33333333       0.074
   0.00000000  0.33333333  0.33333333       0.074
   0.33333333  0.33333333  0.33333333       0.074
  -0.33333333  0.33333333  0.33333333       0.074
   0.00000000 -0.33333333  0.33333333       0.074
   0.33333333 -0.33333333  0.33333333       0.074
  -0.33333333 -0.33333333  0.33333333       0.074
 
 position of ions in fractional coordinates (direct lattice) 
   0.26810400  0.50488700  0.16707600
   0.49115600  0.66543400  0.64613400
   0.26245500  0.50853000  0.84496100
   0.22602500  0.16921700  0.48510800
   0.00697300  0.33091400  0.00397000
   0.96760800  0.66361600  0.01865600
   0.26270200  0.82547400  0.16567400
   0.47127900  0.99901700  0.65474500
   0.77047900  0.83931200  0.50135200
   0.26489000  0.82175800  0.84748400
   0.25395700  0.16637000  0.17840600
   0.02118900  0.67145700  0.65761300
   0.54120100  0.66734800  0.00887800
   0.73521000  0.83711600  0.18051500
   0.50412700  0.34084400  0.34168900
   0.98480200  0.34300600  0.31528000
   0.01579600  0.32932100  0.68228200
   0.23302600  0.83357500  0.48685100
   0.48638900  0.31750900  0.00025000
   0.24992900  0.16861300  0.83363000
   0.72698000  0.49518000  0.17849100
   0.03585600  0.99814000  0.67498200
   0.51251500  0.67027900  0.34509200
   0.76742200  0.50387200  0.49379500
   0.98107900  0.66631200  0.32524100
   0.48052500  0.01428200  0.00621700
   0.49216000  0.99068100  0.33944700
   0.99892700  0.99124500  0.31908600
   0.01122600  0.00571500  0.00405100
   0.76580800  0.16465900  0.49831400
   0.74863600  0.16269100  0.82875200
   0.73321600  0.16879400  0.17351600
   0.49112200  0.33345300  0.65689300
   0.75542300  0.83866100  0.82350100
   0.22656600  0.49485700  0.48878400
   0.75523800  0.49787000  0.82327900
 
 position of ions in cartesian coordinates  (Angst):
   1.87600661  5.17356963  1.71233906
   3.45760744  6.81834154  6.59889051
   1.87940985  5.21002115  8.61321395
   1.60267485  1.73360689  4.94826906
   0.04946926  3.39076710  0.04065980
   6.73130983  6.80119252  0.23142361
   1.83906009  8.45850885  1.69777950
   3.32066192 10.23641298  6.68564228
   5.39126651  8.60059112  5.13693912
   1.89719211  8.41956130  8.63895060
   1.77759639  1.70486741  1.82713165
   0.19022878  6.87937665  6.69553936
   3.76550075  6.83884150  0.11354205
   5.12580466  8.57845080  1.86918420
   3.52792403  3.49278776  3.50014138
   6.86884339  3.51565585  3.25195874
   0.15352502  3.37358708  6.94650495
   1.65293380  8.54106324  4.96620183
   3.38302775  3.25409461  0.02340802
   1.79084217  1.72700497  8.49737918
   5.06769253  5.07474077  1.84828320
   0.29403577 10.22678386  6.87293750
   3.58719414  6.86840279  3.53509002
   5.36879301  5.16345779  5.05993151
   6.84429389  6.82844355  3.35315044
   3.34195705  0.14701554  0.08395353
   3.44599806 10.15143064  3.47669215
   6.96873644 10.15795378  3.29120271
   0.07833239  0.05857036  0.04172246
   5.35710597  1.68765039  5.10592471
   5.25849240  1.66703702  8.46916686
   5.11002435  1.73039054  1.79795941
   3.45731640  3.41663220  6.70847593
   5.30684849  8.59348622  8.41588697
   1.60738634  5.07032438  4.98566012
   5.30479665  5.10151770  8.41367677
 


--------------------------------------------------------------------------------------------------------


 k-point  1 :   0.0000 0.0000 0.0000  plane waves:    8607
 k-point  2 :   0.3333 0.0000 0.0000  plane waves:    8567
 k-point  3 :   0.0000 0.3333 0.0000  plane waves:    8554
 k-point  4 :   0.3333 0.3333 0.0000  plane waves:    8565
 k-point  5 :  -0.3333 0.3333 0.0000  plane waves:    8564
 k-point  6 :   0.0000 0.0000 0.3333  plane waves:    8555
 k-point  7 :   0.3333 0.0000 0.3333  plane waves:    8567
 k-point  8 :  -0.3333-0.0000 0.3333  plane waves:    8544
 k-point  9 :   0.0000 0.3333 0.3333  plane waves:    8550
 k-point 10 :   0.3333 0.3333 0.3333  plane waves:    8568
 k-point 11 :  -0.3333 0.3333 0.3333  plane waves:    8569
 k-point 12 :   0.0000-0.3333 0.3333  plane waves:    8552
 k-point 13 :   0.3333-0.3333 0.3333  plane waves:    8565
 k-point 14 :  -0.3333-0.3333 0.3333  plane waves:    8569

 maximum and minimum number of plane-waves per node :      1734     1700

 maximum number of plane-waves:      8607
 maximum index in each direction: 
   IXMAX=   10   IYMAX=   14   IZMAX=   14
   IXMIN=  -10   IYMIN=  -14   IZMIN=  -14

 WARNING: aliasing errors must be expected set NGX to  42 to avoid them
 NGY is ok and might be reduce to  58
 NGZ is ok and might be reduce to  58
 aliasing errors are usually negligible using standard VASP settings
 and one can safely disregard these warnings

 real space projection operators:
  total allocation   :      27255.23 KBytes
  max/ min on nodes  :       5500.69       5383.12


 parallel 3D FFT for wavefunctions:
    minimum data exchange during FFTs selected (reduces bandwidth)
 parallel 3D FFT for charge:
    minimum data exchange during FFTs selected (reduces bandwidth)


 total amount of memory used by VASP on root node    68400. kBytes
========================================================================

   base      :      30000. kBytes
   nonlr-proj:      10478. kBytes
   fftplans  :       2814. kBytes
   grid      :       5360. kBytes
   one-center:        124. kBytes
   wavefun   :      19624. kBytes
 
     INWAV:  cpu time    0.0000: real time    0.0000
 Broyden mixing: mesh for mixing (old mesh)
   NGX = 19   NGY = 29   NGZ = 29
  (NGX  = 80   NGY  =120   NGZ  =120)
  gives a total of  15979 points

 initial charge density was supplied:
 charge density of overlapping atoms calculated
 number of electron     313.0000000 magnetization 
 keeping initial charge density in first step


--------------------------------------------------------------------------------------------------------


 Maximum index for non-local projection operator         1236
 Maximum index for augmentation-charges          681 (set IRDMAX)


--------------------------------------------------------------------------------------------------------


 First call to EWALD:  gamma=   0.197
 Maximum number of real-space cells 3x 2x 2
 Maximum number of reciprocal cells 2x 3x 3

 FEWALD executed in parallel
    FEWALD:  cpu time    0.0330: real time    0.0331


----------------------------------------- Iteration    1(   1)  ---------------------------------------


    POTLOK:  cpu time    0.0475: real time    0.0583
    SETDIJ:  cpu time    0.1608: real time    0.1612
     EDDAV:  cpu time    1.1628: real time    1.1853
       DOS:  cpu time    0.0025: real time    0.0025
    --------------------------------------------
      LOOP:  cpu time    1.3819: real time    1.7518

 eigenvalue-minimisations  :  5792
 total energy-change (2. order) : 0.2137418E+04  (-0.1199803E+05)
 number of electron     313.0000000 magnetization 
 augmentation part      313.0000000 magnetization 

 Free energy of the ion-electron system (eV)
  ---------------------------------------------------
  alpha Z        PSCENC =      1615.90487139
  Ewald energy   TEWEN  =    -21950.13011612
  -Hartree energ DENC   =     -7559.83760712
  -exchange      EXHF   =         0.00000000
  -V(xc)+E(xc)   XCENC  =        20.88188282
  PAW double counting   =     23935.00175755   -22469.38616956
  entropy T*S    EENTRO =         0.00200076
  eigenvalues    EBANDS =      -237.24829095
  atomic energy  EATOM  =     28782.22992582
  Solvation  Ediel_sol  =         0.00000000
  ---------------------------------------------------
  free energy    TOTEN  =      2137.41825459 eV

  energy without entropy =     2137.41625383  energy(sigma->0) =     2137.41758767


--------------------------------------------------------------------------------------------------------




----------------------------------------- Iteration    1(   2)  ---------------------------------------


     EDDAV:  cpu time    1.0780: real time    1.1158
       DOS:  cpu time    0.0010: real time    0.0010
    --------------------------------------------
      LOOP:  cpu time    1.0796: real time    1.3092

 eigenvalue-minimisations  :  5968
 total energy-change (2. order) :-0.2196343E+04  (-0.2125197E+04)
 number of electron     313.0000000 magnetization 
 augmentation part      313.0000000 magnetization 

 Free energy of the ion-electron system (eV)
  ---------------------------------------------------
  alpha Z        PSCENC =      1615.90487139
  Ewald energy   TEWEN  =    -21950.13011612
  -Hartree energ DENC   =     -7559.83760712
  -exchange      EXHF   =         0.00000000
  -V(xc)+E(xc)   XCENC  =        20.88188282
  PAW double counting   =     23935.00175755   -22469.38616956
  entropy T*S    EENTRO =        -0.00041906
  eigenvalues    EBANDS =     -2433.58881356
  atomic energy  EATOM  =     28782.22992582
  Solvation  Ediel_sol  =         0.00000000
  ---------------------------------------------------
  free energy    TOTEN  =       -58.92468783 eV

  energy without entropy =      -58.92426877  energy(sigma->0) =      -58.92454815


--------------------------------------------------------------------------------------------------------




----------------------------------------- Iteration    1(   3)  ---------------------------------------


     EDDAV:  cpu time    1.6385: real time    1.6775
       DOS:  cpu time    0.0009: real time    0.0009
    --------------------------------------------
      LOOP:  cpu time    1.6398: real time    1.7155

 eigenvalue-minimisations  :  8960
 total energy-change (2. order) :-0.2767542E+03  (-0.2635410E+03)
 number of electron     313.0000000 magnetization 
 augmentation part      313.0000000 magnetization 

 Free energy of the ion-electron system (eV)
  ---------------------------------------------------
  alpha Z        PSCENC =      1615.90487139
  Ewald energy   TEWEN  =    -21950.13011612
  -Hartree energ DENC   =     -7559.83760712
  -exchange      EXHF   =         0.00000000
  -V(xc)+E(xc)   XCENC  =        20.88188282
  PAW double counting   =     23935.00175755   -22469.38616956
  entropy T*S    EENTRO =        -0.00032799
  eigenvalues    EBANDS =     -2710.34309399
  atomic energy  EATOM  =     28782.22992582
  Solvation  Ediel_sol  =         0.00000000
  ---------------------------------------------------
  free energy    TOTEN  =      -335.67887720 eV

  energy without entropy =     -335.67854921  energy(sigma->0) =     -335.67876787


--------------------------------------------------------------------------------------------------------




----------------------------------------- Iteration    1(   4)  ---------------------------------------


     EDDAV:  cpu time    1.4900: real time    1.5625
       DOS:  cpu time    0.0014: real time    0.0014
    --------------------------------------------
      LOOP:  cpu time    1.4923: real time    1.6218

 eigenvalue-minimisations  :  8824
 total energy-change (2. order) :-0.3303472E+02  (-0.3150293E+02)
 number of electron     313.0000000 magnetization 
 augmentation part      313.0000000 magnetization 

 Free energy of the ion-electron system (eV)
  ---------------------------------------------------
  alpha Z        PSCENC =      1615.90487139
  Ewald energy   TEWEN  =    -21950.13011612
  -Hartree energ DENC   =     -7559.83760712
  -exchange      EXHF   =         0.00000000
  -V(xc)+E(xc)   XCENC  =        20.88188282
  PAW double counting   =     23935.00175755   -22469.38616956
  entropy T*S    EENTRO =         0.00269047
  eigenvalues    EBANDS =     -2743.38083270
  atomic energy  EATOM  =     28782.22992582
  Solvation  Ediel_sol  =         0.00000000
  ---------------------------------------------------
  free energy    TOTEN  =      -368.71359745 eV

  energy without entropy =     -368.71628792  energy(sigma->0) =     -368.71449427


--------------------------------------------------------------------------------------------------------




----------------------------------------- Iteration    1(   5)  ---------------------------------------


     EDDAV:  cpu time    1.4498: real time    1.6003
       DOS:  cpu time    0.0011: real time    0.0011
    CHARGE:  cpu time    0.0411: real time    0.0412
    MIXING:  cpu time    0.0019: real time    0.0019
    --------------------------------------------
      LOOP:  cpu time    1.4945: real time    1.7108

 eigenvalue-minimisations  :  8512
 total energy-change (2. order) :-0.3399288E+01  (-0.3326278E+01)
 number of electron     312.9999992 magnetization 
 augmentation part       17.9312993 magnetization 

 Broyden mixing:
  rms(total) = 0.63556E+01    rms(broyden)= 0.63552E+01
  rms(prec ) = 0.66229E+01
  weight for this iteration     100.00

 Free energy of the ion-electron system (eV)
  ---------------------------------------------------
  alpha Z        PSCENC =      1615.90487139
  Ewald energy   TEWEN  =    -21950.13011612
  -Hartree energ DENC   =     -7559.83760712
  -exchange      EXHF   =         0.00000000
  -V(xc)+E(xc)   XCENC  =        20.88188282
  PAW double counting   =     23935.00175755   -22469.38616956
  entropy T*S    EENTRO =         0.00270463
  eigenvalues    EBANDS =     -2746.78013491
  atomic energy  EATOM  =     28782.22992582
  Solvation  Ediel_sol  =         0.00000000
  ---------------------------------------------------
  free energy    TOTEN  =      -372.11288549 eV

  energy without entropy =     -372.11559012  energy(sigma->0) =     -372.11378703


--------------------------------------------------------------------------------------------------------




----------------------------------------- Iteration    1(   6)  ---------------------------------------


    POTLOK:  cpu time    0.0298: real time    0.0309
    SETDIJ:  cpu time    0.0036: real time    0.0037
    EDDIAG:  cpu time    0.1106: real time    0.1122
  RMM-DIIS:  cpu time    0.7594: real time    0.7892
    ORTHCH:  cpu time    0.0135: real time    0.0140
       DOS:  cpu time    0.0022: real time    0.0023
    CHARGE:  cpu time    0.0331: real time    0.0339
    MIXING:  cpu time    0.0016: real time    0.0023
    --------------------------------------------
      LOOP:  cpu time    0.9545: real time    1.0236

 eigenvalue-minimisations  :  7272
 total energy-change (2. order) : 0.1015375E+02  (-0.2402985E+01)
 number of electron     312.9999992 magnetization 
 augmentation part       18.6937872 magnetization 

 Broyden mixing:
  rms(total) = 0.29688E+01    rms(broyden)= 0.29687E+01
  rms(prec ) = 0.32382E+01
  weight for this iteration     100.00

 eigenvalues of (default mixing * dielectric matrix)
  average eigenvalue GAMMA=   1.7888
  1.7888

 Free energy of the ion-electron system (eV)
  ---------------------------------------------------
  alpha Z        PSCENC =      1615.90487139
  Ewald energy   TEWEN  =    -21950.13011612
  -Hartree energ DENC   =     -7374.04241619
  -exchange      EXHF   =         0.00000000
  -V(xc)+E(xc)   XCENC  =        15.70609084
  PAW double counting   =     29636.22846967   -28176.49608812
  entropy T*S    EENTRO =         0.00257097
  eigenvalues    EBANDS =     -2911.36244829
  atomic energy  EATOM  =     28782.22992582
  Solvation  Ediel_sol  =         0.00000000
  ---------------------------------------------------
  free energy    TOTEN  =      -361.95914004 eV

  energy without entropy =     -361.96171101  energy(sigma->0) =     -361.95999703


--------------------------------------------------------------------------------------------------------




----------------------------------------- Iteration    1(   7)  ---------------------------------------


    POTLOK:  cpu time    0.0285: real time    0.0295
    SETDIJ:  cpu time    0.0049: real time    0.0050
    EDDIAG:  cpu time    0.0937: real time    0.0972
  RMM-DIIS:  cpu time    0.8273: real time    0.8535
    ORTHCH:  cpu time    0.0130: real time    0.0135
       DOS:  cpu time    0.0025: real time    0.0025
    CHARGE:  cpu time    0.0312: real time    0.0318
    MIXING:  cpu time    0.0012: real time    0.0012
    --------------------------------------------
      LOOP:  cpu time    1.0028: real time    1.0734

 eigenvalue-minimisations  :  7770
 total energy-change (2. order) :-0.1187352E+01  (-0.2420693E+01)
 number of electron     312.9999992 magnetization 
 augmentation part       19.1364323 magnetization 

 Broyden mixing:
  rms(total) = 0.11554E+01    rms(broyden)= 0.11549E+01
  rms(prec ) = 0.31782E+01
  weight for this iteration     100.00

 eigenvalues of (default mixing * dielectric matrix)
  average eigenvalue GAMMA=   1.1643
  1.8104  0.5181

 Free energy of the ion-electron system (eV)
  ---------------------------------------------------
  alpha Z        PSCENC =      1615.90487139
  Ewald energy   TEWEN  =    -21950.13011612
  -Hartree energ DENC   =     -7294.28577095
  -exchange      EXHF   =         0.00000000
  -V(xc)+E(xc)   XCENC  =        15.44218749
  PAW double counting   =     34879.92463139   -33412.25795141
  entropy T*S    EENTRO =         0.00368369
  eigenvalues    EBANDS =     -2999.97795365
  atomic energy  EATOM  =     28782.22992582
  Solvation  Ediel_sol  =         0.00000000
  ---------------------------------------------------
  free energy    TOTEN  =      -363.14649235 eV

  energy without entropy =     -363.15017604  energy(sigma->0) =     -363.14772025


--------------------------------------------------------------------------------------------------------




----------------------------------------- Iteration    1(   8)  ---------------------------------------


    POTLOK:  cpu time    0.0285: real time    0.0298
    SETDIJ:  cpu time    0.0036: real time    0.0036
    EDDIAG:  cpu time    0.0900: real time    0.0924
  RMM-DIIS:  cpu time    0.8354: real time    0.8637
    ORTHCH:  cpu time    0.0131: real time    0.0135
       DOS:  cpu time    0.0029: real time    0.0029
    CHARGE:  cpu time    0.0335: real time    0.0337
    MIXING:  cpu time    0.0013: real time    0.0013
    --------------------------------------------
      LOOP:  cpu time    1.0088: real time    1.0782

 eigenvalue-minimisations  :  7903
 total energy-change (2. order) : 0.5135001E+01  (-0.5995459E+00)
 number of electron     312.9999992 magnetization 
 augmentation part       18.8798270 magnetization 

 Broyden mixing:
  rms(total) = 0.44342E+00    rms(broyden)= 0.44273E+00
  rms(prec ) = 0.74592E+00
  weight for this iteration     100.00

 eigenvalues of (default mixing * dielectric matrix)
  average eigenvalue GAMMA=   1.1276
  1.7996  1.1960  0.3872

 Free energy of the ion-electron system (eV)
  ---------------------------------------------------
  alpha Z        PSCENC =      1615.90487139
  Ewald energy   TEWEN  =    -21950.13011612
  -Hartree energ DENC   =     -7273.88183373
  -exchange      EXHF   =         0.00000000
  -V(xc)+E(xc)   XCENC  =        15.38438295
  PAW double counting   =     35819.24620952   -34348.17774745
  entropy T*S    EENTRO =         0.01151836
  eigenvalues    EBANDS =     -3018.59870248
  atomic energy  EATOM  =     28782.22992582
  Solvation  Ediel_sol  =         0.00000000
  ---------------------------------------------------
  free energy    TOTEN  =      -358.01149174 eV

  energy without entropy =     -358.02301011  energy(sigma->0) =     -358.01533120


--------------------------------------------------------------------------------------------------------




----------------------------------------- Iteration    1(   9)  ---------------------------------------


    POTLOK:  cpu time    0.0283: real time    0.0295
    SETDIJ:  cpu time    0.0036: real time    0.0037
    EDDIAG:  cpu time    0.0883: real time    0.0915
  RMM-DIIS:  cpu time    0.9896: real time    1.0346
    ORTHCH:  cpu time    0.0132: real time    0.0136
       DOS:  cpu time    0.0150: real time    0.0153
    CHARGE:  cpu time    0.0437: real time    0.0446
    MIXING:  cpu time    0.0013: real time    0.0014
    --------------------------------------------
      LOOP:  cpu time    1.1836: real time    1.2881

 eigenvalue-minimisations  :  7899
 total energy-change (2. order) : 0.2107282E+00  (-0.2178644E+00)
 number of electron     312.9999992 magnetization 
 augmentation part       18.7573632 magnetization 

 Broyden mixing:
  rms(total) = 0.29764E+00    rms(broyden)= 0.29749E+00
  rms(prec ) = 0.41885E+00
  weight for this iteration     100.00

 eigenvalues of (default mixing * dielectric matrix)
  average eigenvalue GAMMA=   1.1106
  1.7979  1.7979  0.4776  0.3693

 Free energy of the ion-electron system (eV)
  ---------------------------------------------------
  alpha Z        PSCENC =      1615.90487139
  Ewald energy   TEWEN  =    -21950.13011612
  -Hartree energ DENC   =     -7281.39197948
  -exchange      EXHF   =         0.00000000
  -V(xc)+E(xc)   XCENC  =        16.06380819
  PAW double counting   =     36044.56516551   -34568.61565152
  entropy T*S    EENTRO =         0.01599870
  eigenvalues    EBANDS =     -3016.44278600
  atomic energy  EATOM  =     28782.22992582
  Solvation  Ediel_sol  =         0.00000000
  ---------------------------------------------------
  free energy    TOTEN  =      -357.80076353 eV

  energy without entropy =     -357.81676222  energy(sigma->0) =     -357.80609643


--------------------------------------------------------------------------------------------------------




----------------------------------------- Iteration    1(  10)  ---------------------------------------


    POTLOK:  cpu time    0.0289: real time    0.0299
    SETDIJ:  cpu time    0.0100: real time    0.0101
    EDDIAG:  cpu time    0.0874: real time    0.0904
  RMM-DIIS:  cpu time    0.8756: real time    0.9203
    ORTHCH:  cpu time    0.0129: real time    0.0133
       DOS:  cpu time    0.0093: real time    0.0095
    CHARGE:  cpu time    0.0597: real time    0.0610
    MIXING:  cpu time    0.0013: real time    0.0014
    --------------------------------------------
      LOOP:  cpu time    1.0856: real time    1.1706

 eigenvalue-minimisations  :  7842
 total energy-change (2. order) : 0.4810589E-01  (-0.4297961E-01)
 number of electron     312.9999992 magnetization 
 augmentation part       18.6587606 magnetization 

 Broyden mixing:
  rms(total) = 0.14735E+00    rms(broyden)= 0.14728E+00
  rms(prec ) = 0.28347E+00
  weight for this iteration     100.00

 eigenvalues of (default mixing * dielectric matrix)
  average eigenvalue GAMMA=   1.0990
  2.0321  1.8323  0.8054  0.4500  0.3752

 Free energy of the ion-electron system (eV)
  ---------------------------------------------------
  alpha Z        PSCENC =      1615.90487139
  Ewald energy   TEWEN  =    -21950.13011612
  -Hartree energ DENC   =     -7296.07977177
  -exchange      EXHF   =         0.00000000
  -V(xc)+E(xc)   XCENC  =        17.10661295
  PAW double counting   =     36321.14336252   -34836.85263426
  entropy T*S    EENTRO =         0.01403030
  eigenvalues    EBANDS =     -3011.08893847
  atomic energy  EATOM  =     28782.22992582
  Solvation  Ediel_sol  =         0.00000000
  ---------------------------------------------------
  free energy    TOTEN  =      -357.75265764 eV

  energy without entropy =     -357.76668794  energy(sigma->0) =     -357.75733441


--------------------------------------------------------------------------------------------------------




----------------------------------------- Iteration    1(  11)  ---------------------------------------


    POTLOK:  cpu time    0.0284: real time    0.0294
    SETDIJ:  cpu time    0.0151: real time    0.0153
    EDDIAG:  cpu time    0.6722: real time    0.6840
  RMM-DIIS:  cpu time    0.8085: real time    0.8502
    ORTHCH:  cpu time    0.0326: real time    0.0334
       DOS:  cpu time    0.0008: real time    0.0008
    CHARGE:  cpu time    0.0324: real time    0.0334
    MIXING:  cpu time    0.0014: real time    0.0015
    --------------------------------------------
      LOOP:  cpu time    1.5919: real time    1.6778

 eigenvalue-minimisations  :  7844
 total energy-change (2. order) : 0.3542541E-01  (-0.1317455E-01)
 number of electron     312.9999992 magnetization 
 augmentation part       18.6207208 magnetization 

 Broyden mixing:
  rms(total) = 0.70306E-01    rms(broyden)= 0.70255E-01
  rms(prec ) = 0.12179E+00
  weight for this iteration     100.00

 eigenvalues of (default mixing * dielectric matrix)
  average eigenvalue GAMMA=   1.0751
  2.2313  1.8097  1.1274  0.4983  0.3636  0.4205

 Free energy of the ion-electron system (eV)
  ---------------------------------------------------
  alpha Z        PSCENC =      1615.90487139
  Ewald energy   TEWEN  =    -21950.13011612
  -Hartree energ DENC   =     -7300.03791309
  -exchange      EXHF   =         0.00000000
  -V(xc)+E(xc)   XCENC  =        17.51001329
  PAW double counting   =     36487.31667169   -34998.94248384
  entropy T*S    EENTRO =         0.01494165
  eigenvalues    EBANDS =     -3011.58314302
  atomic energy  EATOM  =     28782.22992582
  Solvation  Ediel_sol  =         0.00000000
  ---------------------------------------------------
  free energy    TOTEN  =      -357.71723223 eV

  energy without entropy =     -357.73217388  energy(sigma->0) =     -357.72221278


--------------------------------------------------------------------------------------------------------




----------------------------------------- Iteration    1(  12)  ---------------------------------------


    POTLOK:  cpu time    0.0284: real time    0.0297
    SETDIJ:  cpu time    0.0036: real time    0.0037
    EDDIAG:  cpu time    0.0885: real time    0.0929
  RMM-DIIS:  cpu time    0.8178: real time    0.8593
    ORTHCH:  cpu time    0.0130: real time    0.0135
       DOS:  cpu time    0.0026: real time    0.0027
    CHARGE:  cpu time    0.0309: real time    0.0317
    MIXING:  cpu time    0.0014: real time    0.0015
    --------------------------------------------
      LOOP:  cpu time    0.9868: real time    1.0635

 eigenvalue-minimisations  :  7936
 total energy-change (2. order) : 0.1311025E-02  (-0.5493589E-02)
 number of electron     312.9999992 magnetization 
 augmentation part       18.6164678 magnetization 

 Broyden mixing:
  rms(total) = 0.41529E-01    rms(broyden)= 0.41509E-01
  rms(prec ) = 0.66550E-01
  weight for this iteration     100.00

 eigenvalues of (default mixing * dielectric matrix)
  average eigenvalue GAMMA=   1.0370
  2.2662  1.8224  1.2982  0.6216  0.5115  0.3808  0.3580

 Free energy of the ion-electron system (eV)
  ---------------------------------------------------
  alpha Z        PSCENC =      1615.90487139
  Ewald energy   TEWEN  =    -21950.13011612
  -Hartree energ DENC   =     -7302.54735627
  -exchange      EXHF   =         0.00000000
  -V(xc)+E(xc)   XCENC  =        17.68374708
  PAW double counting   =     36609.86035039   -35119.24298148
  entropy T*S    EENTRO =         0.01447563
  eigenvalues    EBANDS =     -3011.48883765
  atomic energy  EATOM  =     28782.22992582
  Solvation  Ediel_sol  =         0.00000000
  ---------------------------------------------------
  free energy    TOTEN  =      -357.71592120 eV

  energy without entropy =     -357.73039684  energy(sigma->0) =     -357.72074641


--------------------------------------------------------------------------------------------------------




----------------------------------------- Iteration    1(  13)  ---------------------------------------


    POTLOK:  cpu time    0.0285: real time    0.0294
    SETDIJ:  cpu time    0.0258: real time    0.0265
    EDDIAG:  cpu time    0.0912: real time    0.0946
  RMM-DIIS:  cpu time    1.1290: real time    1.1755
    ORTHCH:  cpu time    0.0222: real time    0.0224
       DOS:  cpu time    0.0509: real time    0.0511
    CHARGE:  cpu time    0.2477: real time    0.2512
    MIXING:  cpu time    0.0028: real time    0.0029
    --------------------------------------------
      LOOP:  cpu time    1.5988: real time    1.6933

 eigenvalue-minimisations  :  7922
 total energy-change (2. order) : 0.1576093E-02  (-0.1773117E-02)
 number of electron     312.9999992 magnetization 
 augmentation part       18.6142085 magnetization 

 Broyden mixing:
  rms(total) = 0.23654E-01    rms(broyden)= 0.23641E-01
  rms(prec ) = 0.33535E-01
  weight for this iteration     100.00

 eigenvalues of (default mixing * dielectric matrix)
  average eigenvalue GAMMA=   1.0659
  2.3096  1.9860  1.5335  0.9677  0.5322  0.4683  0.3670  0.3632

 Free energy of the ion-electron system (eV)
  ---------------------------------------------------
  alpha Z        PSCENC =      1615.90487139
  Ewald energy   TEWEN  =    -21950.13011612
  -Hartree energ DENC   =     -7302.85890529
  -exchange      EXHF   =         0.00000000
  -V(xc)+E(xc)   XCENC  =        17.70607427
  PAW double counting   =     36663.60639786   -35172.11251423
  entropy T*S    EENTRO =         0.01481654
  eigenvalues    EBANDS =     -3012.07489535
  atomic energy  EATOM  =     28782.22992582
  Solvation  Ediel_sol  =         0.00000000
  ---------------------------------------------------
  free energy    TOTEN  =      -357.71434511 eV

  energy without entropy =     -357.72916165  energy(sigma->0) =     -357.71928396


--------------------------------------------------------------------------------------------------------




----------------------------------------- Iteration    1(  14)  ---------------------------------------


    POTLOK:  cpu time    0.0376: real time    0.0430
    SETDIJ:  cpu time    0.2174: real time    0.2185
    EDDIAG:  cpu time    0.3710: real time    0.3759
  RMM-DIIS:  cpu time    0.8627: real time    0.9274
    ORTHCH:  cpu time    0.0140: real time    0.0143
       DOS:  cpu time    0.0032: real time    0.0032
    CHARGE:  cpu time    0.0319: real time    0.0325
    MIXING:  cpu time    0.0016: real time    0.0016
    --------------------------------------------
      LOOP:  cpu time    1.5404: real time    1.6530

 eigenvalue-minimisations  :  8240
 total energy-change (2. order) :-0.2382095E-03  (-0.7944295E-03)
 number of electron     312.9999992 magnetization 
 augmentation part       18.6132766 magnetization 

 Broyden mixing:
  rms(total) = 0.13244E-01    rms(broyden)= 0.13239E-01
  rms(prec ) = 0.21052E-01
  weight for this iteration     100.00

 eigenvalues of (default mixing * dielectric matrix)
  average eigenvalue GAMMA=   1.0740
  2.5448  2.1011  1.5472  1.1799  0.5676  0.5676  0.4223  0.3557  0.3801

 Free energy of the ion-electron system (eV)
  ---------------------------------------------------
  alpha Z        PSCENC =      1615.90487139
  Ewald energy   TEWEN  =    -21950.13011612
  -Hartree energ DENC   =     -7303.11234941
  -exchange      EXHF   =         0.00000000
  -V(xc)+E(xc)   XCENC  =        17.70710105
  PAW double counting   =     36692.17375374   -35200.14813381
  entropy T*S    EENTRO =         0.01471005
  eigenvalues    EBANDS =     -3012.35434603
  atomic energy  EATOM  =     28782.22992582
  Solvation  Ediel_sol  =         0.00000000
  ---------------------------------------------------
  free energy    TOTEN  =      -357.71458332 eV

  energy without entropy =     -357.72929337  energy(sigma->0) =     -357.71948667


--------------------------------------------------------------------------------------------------------




----------------------------------------- Iteration    1(  15)  ---------------------------------------


    POTLOK:  cpu time    0.0291: real time    0.0306
    SETDIJ:  cpu time    0.1904: real time    0.1910
    EDDIAG:  cpu time    0.0919: real time    0.0938
  RMM-DIIS:  cpu time    0.9022: real time    0.9099
    ORTHCH:  cpu time    0.0136: real time    0.0136
       DOS:  cpu time    0.0021: real time    0.0022
    CHARGE:  cpu time    0.0343: real time    0.0344
    MIXING:  cpu time    0.0016: real time    0.0016
    --------------------------------------------
      LOOP:  cpu time    1.2658: real time    1.3261

 eigenvalue-minimisations  :  8025
 total energy-change (2. order) :-0.1865334E-03  (-0.3444821E-03)
 number of electron     312.9999992 magnetization 
 augmentation part       18.6125284 magnetization 

 Broyden mixing:
  rms(total) = 0.64779E-02    rms(broyden)= 0.64745E-02
  rms(prec ) = 0.13499E-01
  weight for this iteration     100.00

 eigenvalues of (default mixing * dielectric matrix)
  average eigenvalue GAMMA=   1.0437
  2.6231  2.1215  1.5862  1.2149  0.6549  0.6514  0.4359  0.4273  0.3556  0.3665

 Free energy of the ion-electron system (eV)
  ---------------------------------------------------
  alpha Z        PSCENC =      1615.90487139
  Ewald energy   TEWEN  =    -21950.13011612
  -Hartree energ DENC   =     -7303.38030673
  -exchange      EXHF   =         0.00000000
  -V(xc)+E(xc)   XCENC  =        17.71818028
  PAW double counting   =     36712.17764720   -35219.71929691
  entropy T*S    EENTRO =         0.01467466
  eigenvalues    EBANDS =     -3012.53034944
  atomic energy  EATOM  =     28782.22992582
  Solvation  Ediel_sol  =         0.00000000
  ---------------------------------------------------
  free energy    TOTEN  =      -357.71476985 eV

  energy without entropy =     -357.72944452  energy(sigma->0) =     -357.71966141


--------------------------------------------------------------------------------------------------------




----------------------------------------- Iteration    1(  16)  ---------------------------------------


    POTLOK:  cpu time    0.0286: real time    0.0296
    SETDIJ:  cpu time    0.0037: real time    0.0038
    EDDIAG:  cpu time    0.0909: real time    0.0939
  RMM-DIIS:  cpu time    0.7425: real time    0.7665
    ORTHCH:  cpu time    0.0134: real time    0.0135
       DOS:  cpu time    0.0038: real time    0.0039
    CHARGE:  cpu time    0.0344: real time    0.0346
    MIXING:  cpu time    0.0018: real time    0.0018
    --------------------------------------------
      LOOP:  cpu time    0.9197: real time    1.0019

 eigenvalue-minimisations  :  6898
 total energy-change (2. order) :-0.4140910E-04  (-0.1480016E-03)
 number of electron     312.9999992 magnetization 
 augmentation part       18.6119502 magnetization 

 Broyden mixing:
  rms(total) = 0.29393E-02    rms(broyden)= 0.29371E-02
  rms(prec ) = 0.53195E-02
  weight for this iteration     100.00

 eigenvalues of (default mixing * dielectric matrix)
  average eigenvalue GAMMA=   1.0207
  2.6154  2.1014  1.5985  1.2772  0.9388  0.6367  0.4822  0.4822  0.3499  0.3726
  0.3726

 Free energy of the ion-electron system (eV)
  ---------------------------------------------------
  alpha Z        PSCENC =      1615.90487139
  Ewald energy   TEWEN  =    -21950.13011612
  -Hartree energ DENC   =     -7303.73968336
  -exchange      EXHF   =         0.00000000
  -V(xc)+E(xc)   XCENC  =        17.72773274
  PAW double counting   =     36721.83557300   -35229.18859104
  entropy T*S    EENTRO =         0.01478867
[...]
    110       5.8035      2.00000
    111       5.8476      2.00000
    112       5.9103      2.00000
    113       5.9485      2.00000
    114       5.9898      2.00000
    115       6.0287      2.00000
    116       6.0923      2.00000
    117       6.1726      2.00000
    118       6.2853      2.00000
    119       6.3739      2.00000
    120       6.4058      2.00000
    121       6.4321      2.00000
    122       6.4734      2.00000
    123       6.4943      2.00000
    124       6.5402      2.00000
    125       6.6011      2.00000
    126       6.6667      2.00000
    127       6.6908      2.00000
    128       6.7142      2.00000
    129       6.7531      2.00000
    130       6.7636      2.00000
    131       6.8250      2.00000
    132       6.8535      2.00000
    133       6.8683      2.00000
    134       6.9034      2.00000
    135       6.9335      2.00000
    136       6.9824      2.00000
    137       7.0384      2.00000
    138       7.0570      2.00000
    139       7.0966      2.00000
    140       7.1199      2.00000
    141       7.1911      2.00000
    142       7.2014      2.00000
    143       7.2807      2.00000
    144       7.3071      2.00001
    145       7.3390      2.00005
    146       7.3860      2.00029
    147       7.4224      2.00100
    148       7.4563      2.00285
    149       7.4910      2.00733
    150       7.5267      2.01685
    151       7.5529      2.02820
    152       7.5732      2.03942
    153       7.6178      2.06521
    154       7.6395      2.07090
    155       7.6881      2.02532
    156       7.7374      1.82059
    157       7.8091      1.16920
    158       7.8279      0.95851
    159       7.8708      0.50109
    160       7.9075      0.20195
    161       7.9438      0.02143
    162       7.9542     -0.01022
    163       8.0052     -0.07081
    164       8.0205     -0.06898
    165       8.0768     -0.03852
    166       8.1072     -0.02265
    167       8.1601     -0.00686
    168       8.1891     -0.00312
    169       8.2507     -0.00044
    170       8.2713     -0.00021
    171       8.3209     -0.00003
    172       8.3373     -0.00001
    173       8.3752     -0.00000
    174       8.4162     -0.00000
    175       8.4864     -0.00000
    176       8.5517     -0.00000
    177       8.6105     -0.00000
    178       8.6478     -0.00000
    179       8.6969     -0.00000
    180       8.7695     -0.00000
    181       8.9416     -0.00000
    182       9.0593     -0.00000
    183       9.1766     -0.00000
    184       9.6109     -0.00000
    185       9.6803     -0.00000
    186       9.7518     -0.00000
    187       9.7884     -0.00000
    188       9.8915     -0.00000


--------------------------------------------------------------------------------------------------------


 soft charge-density along one line, spin component           1
         0         1         2         3         4         5         6         7         8         9
 total charge-density along one line
 
 pseudopotential strength for first ion, spin component:           1
 -5.024  -0.002  -0.000   0.000   0.000  -6.264  -0.003  -0.000
 -0.002  -5.027   0.002   0.000  -0.003  -0.003  -6.267   0.002
 -0.000   0.002  -5.025   0.000   0.001  -0.000   0.002  -6.265
  0.000   0.000   0.000  -5.027  -0.000   0.001   0.000   0.000
  0.000  -0.003   0.001  -0.000  -5.027   0.000  -0.004   0.002
 -6.264  -0.003  -0.000   0.001   0.000  -7.789  -0.004  -0.000
 -0.003  -6.267   0.002   0.000  -0.004  -0.004  -7.794   0.003
 -0.000   0.002  -6.265   0.000   0.002  -0.000   0.003  -7.791
  0.001   0.000   0.000  -6.267  -0.001   0.001   0.000   0.001
  0.000  -0.004   0.002  -0.001  -6.268   0.000  -0.005   0.002
  0.000  -0.002  -0.000   0.001   0.001   0.000  -0.002  -0.000
  0.000  -0.003  -0.000   0.002   0.001   0.000  -0.004  -0.001
 -0.005  -0.005   0.000   0.000  -0.002  -0.006  -0.007   0.000
  0.000  -0.000  -0.002  -0.008  -0.000   0.000  -0.000  -0.003
 -0.003   0.000   0.003  -0.006  -0.009  -0.003   0.000   0.004
  0.005   0.007  -0.001  -0.000   0.003   0.007   0.009  -0.001
 -0.000   0.000   0.003   0.010   0.000  -0.000   0.000   0.004
  0.004  -0.000  -0.004   0.008   0.012   0.005  -0.000  -0.005
 total augmentation occupancy for first ion, spin component:           1
  4.165  -0.114  -0.014  -0.068   0.015  -2.170   0.056   0.007   0.018  -0.006   0.012  -0.000  -0.018   0.005   0.036   0.002
 -0.114   3.783   0.089   0.018  -0.173   0.056  -1.989  -0.042  -0.011   0.083   0.090  -0.033   0.028  -0.049  -0.015   0.003
 -0.014   0.089   4.136   0.096   0.065   0.007  -0.042  -2.204  -0.042  -0.021   0.038   0.001  -0.039  -0.004   0.009  -0.000
 -0.068   0.018   0.096   4.002   0.070   0.018  -0.011  -0.043  -2.099  -0.032  -0.031   0.019  -0.009   0.056   0.074  -0.000
  0.015  -0.173   0.065   0.070   4.022  -0.006   0.082  -0.021  -0.032  -2.175  -0.029   0.007   0.021   0.009   0.074   0.001
 -2.170   0.056   0.007   0.018  -0.006   1.143  -0.027  -0.004  -0.001   0.002  -0.007   0.000   0.007  -0.002  -0.021  -0.001
  0.056  -1.989  -0.042  -0.011   0.082  -0.027   1.055   0.020   0.006  -0.039  -0.054   0.018  -0.013   0.020   0.007  -0.002
  0.007  -0.042  -2.204  -0.043  -0.021  -0.004   0.020   1.183   0.019   0.004  -0.012  -0.001   0.018   0.003  -0.002   0.000
  0.018  -0.011  -0.042  -2.099  -0.032  -0.001   0.006   0.019   1.112   0.014   0.013  -0.009   0.004  -0.029  -0.039   0.000
 -0.006   0.083  -0.021  -0.032  -2.175   0.002  -0.039   0.004   0.014   1.184   0.009  -0.003  -0.012  -0.007  -0.037  -0.001
  0.012   0.090   0.038  -0.031  -0.029  -0.007  -0.054  -0.012   0.013   0.009   2.401  -0.308   0.004   0.004   0.020   0.000
 -0.000  -0.033   0.001   0.019   0.007   0.000   0.018  -0.001  -0.009  -0.003  -0.308   0.042  -0.001   0.002   0.002  -0.000
 -0.018   0.028  -0.039  -0.009   0.021   0.007  -0.013   0.018   0.004  -0.012   0.004  -0.001   0.307   0.013   0.002   0.005
  0.005  -0.049  -0.004   0.056   0.009  -0.002   0.020   0.003  -0.029  -0.007   0.004   0.002   0.013   0.305  -0.010   0.000
  0.036  -0.015   0.009   0.074   0.074  -0.021   0.007  -0.002  -0.039  -0.037   0.020   0.002   0.002  -0.010   0.306   0.000
  0.002   0.003  -0.000  -0.000   0.001  -0.001  -0.002   0.000   0.000  -0.001   0.000  -0.000   0.005   0.000   0.000   0.000
 -0.000  -0.000   0.001   0.004   0.000   0.000   0.000  -0.001  -0.002  -0.000   0.002  -0.000   0.000   0.005  -0.000  -0.000
  0.002  -0.001  -0.001   0.004   0.005  -0.001   0.000   0.001  -0.002  -0.002   0.002  -0.000   0.000  -0.000   0.006   0.000


------------------------ aborting loop because EDIFF is reached ----------------------------------------


    CHARGE:  cpu time    0.0291: real time    0.0309
    FORLOC:  cpu time    0.0133: real time    0.0136
    FORNL :  cpu time    0.3211: real time    0.3346
    STRESS:  cpu time    0.9492: real time    0.9899
    FORCOR:  cpu time    0.0418: real time    0.0430
    FORHAR:  cpu time    0.0178: real time    0.0183
    MIXING:  cpu time    0.0013: real time    0.0013
    OFIELD:  cpu time    0.0000: real time    0.0000

  FORCE on cell =-STRESS in cart. coord.  units (eV):
  Direction    XX          YY          ZZ          XY          YZ          ZX
  --------------------------------------------------------------------------------------
  Alpha Z  1604.39604  1604.39604  1604.39604
  Ewald   -6940.61476 -8278.33495 -6711.48884   280.93156    83.43748  -368.03740
  Hartree  2781.77472  1518.09056  2986.29031   250.12816    61.77785  -311.34348
  E(xc)   -1367.42293 -1367.67228 -1368.09229    -0.31307     0.52230     0.51800
  Local   -1419.42390  1174.67499 -1856.80858  -530.57592  -145.40047   680.40109
  n-local  -298.20107  -296.73494  -297.90233     1.27494    -2.37397     1.11626
  augment   239.60942   240.27182   240.05481    -0.31018     0.43352    -0.12406
  Kinetic  5399.85277  5405.25041  5403.50466    -1.05851     1.65096    -2.55724
  Fock        0.00000     0.00000     0.00000     0.00000     0.00000     0.00000
  -------------------------------------------------------------------------------------
  Total      -0.02971    -0.05836    -0.04623     0.07699     0.04768    -0.02681
  in kB      -0.06516    -0.12799    -0.10139     0.16883     0.10456    -0.05880
  external pressure =       -0.10 kB  Pullay stress =        0.00 kB


 VOLUME and BASIS-vectors are now :
 -----------------------------------------------------------------------------
  energy-cutoff  :      300.00
  volume of cell :      730.57
      direct lattice vectors                 reciprocal lattice vectors
     6.994226535 -0.003152326  0.033052839     0.142978337  0.000062347 -0.000686180
    -0.004490368 10.266461542 -0.002837530     0.000043723  0.097404573  0.000037667
     0.048831030 -0.003956514 10.174490307    -0.000464467  0.000026962  0.098287261

  length of vectors
     6.994305345 10.266462916 10.174608254     0.142979997  0.097404590  0.098288362


 FORCES acting on ions
    electron-ion (+dipol)            ewald-force                    non-local-force                 convergence-correction
 -----------------------------------------------------------------------------------------------
   0.453E+02 -.112E+03 0.344E+02   -.447E+02 0.112E+03 -.341E+02   -.534E+00 0.506E-01 -.393E+00   -.145E-02 -.658E-02 -.393E-02
   -.127E+02 -.563E+02 -.460E+01   0.125E+02 0.564E+02 0.399E+01   0.182E+00 -.830E-01 0.616E+00   -.470E-03 -.506E-02 0.509E-02
   0.184E+02 -.979E+02 -.453E+02   -.186E+02 0.977E+02 0.453E+02   0.170E+00 0.205E+00 0.596E-01   -.648E-02 0.883E-03 -.112E-01
   -.263E+02 0.822E+02 -.272E+02   0.260E+02 -.821E+02 0.271E+02   0.292E+00 -.123E+00 0.883E-01   -.139E-02 0.396E-02 0.520E-02
   -.485E+01 -.110E+03 -.124E+02   0.543E+01 0.110E+03 0.124E+02   -.584E+00 0.127E+00 0.177E-01   0.338E-03 0.480E-02 -.753E-02
   -.907E+02 0.190E+02 -.154E+02   0.899E+02 -.192E+02 0.161E+02   0.783E+00 0.147E+00 -.614E+00   0.397E-02 -.672E-02 -.146E-01
   0.171E+02 0.675E+02 0.107E+02   -.162E+02 -.676E+02 -.105E+02   -.971E+00 0.105E+00 -.245E+00   -.163E-02 0.152E-02 -.216E-02
   -.347E+01 0.816E+02 0.195E+02   0.234E+01 -.817E+02 -.197E+02   0.113E+01 0.969E-01 0.248E+00   -.629E-03 0.307E-03 -.310E-02
   0.557E+02 0.212E+02 -.147E+02   -.554E+02 -.216E+02 0.143E+02   -.295E+00 0.411E+00 0.322E+00   0.228E-02 -.987E-03 0.116E-01
   -.155E+02 0.342E+02 0.233E+00   0.154E+02 -.340E+02 -.751E-01   0.928E-01 -.175E+00 -.144E+00   -.503E-02 -.823E-02 -.115E-01
   0.208E+02 0.108E+03 -.439E+02   -.197E+02 -.108E+03 0.440E+02   -.109E+01 0.114E-01 -.117E+00   -.325E-03 0.154E-01 0.177E-01
   0.943E+01 -.137E+03 -.100E+03   -.914E+01 0.137E+03 0.995E+02   -.295E+00 -.400E+00 0.444E+00   -.384E-03 -.253E-01 0.266E-01
   0.220E+03 -.254E+02 0.588E+01   -.219E+03 0.255E+02 -.532E+01   -.105E+01 -.881E-01 -.518E+00   -.772E-02 -.222E-01 -.432E-01
   0.270E+02 0.159E+03 -.910E+02   -.283E+02 -.159E+03 0.920E+02   0.126E+01 0.549E+00 -.101E+01   0.507E-02 0.155E-01 0.488E-02
   0.344E+02 -.194E+03 -.311E+02   -.337E+02 0.195E+03 0.312E+02   -.728E+00 -.688E+00 -.727E-01   -.386E-02 -.149E-01 0.262E-01
   -.389E+02 -.238E+03 0.736E+02   0.384E+02 0.238E+03 -.742E+02   0.575E+00 -.442E+00 0.563E+00   0.200E-03 -.137E-01 0.265E-01
   -.445E+02 -.825E+02 0.130E+02   0.452E+02 0.821E+02 -.123E+02   -.660E+00 0.370E+00 -.759E+00   0.431E-02 0.295E-01 -.788E-02
   -.160E+03 -.956E+01 -.103E+02   0.159E+03 0.941E+01 0.100E+02   0.406E+00 0.148E+00 0.226E+00   -.122E-01 0.260E-02 0.462E-01
   0.325E+02 -.293E+03 0.447E+01   -.334E+02 0.292E+03 -.445E+01   0.867E+00 0.887E+00 -.758E-02   -.375E-03 0.141E-01 -.125E-01
   -.165E+02 0.208E+03 0.922E+02   0.165E+02 -.208E+03 -.923E+02   0.530E-01 0.102E+00 0.782E-01   -.114E-01 0.237E-01 -.273E-01
   -.472E+02 -.114E+03 0.178E+02   0.466E+02 0.114E+03 -.170E+02   0.527E+00 0.800E-01 -.747E+00   0.148E-02 -.100E-01 -.196E-02
   -.141E+02 0.817E+02 0.293E+02   0.150E+02 -.818E+02 -.292E+02   -.964E+00 0.137E+00 -.177E+00   -.568E-03 -.779E-03 -.439E-02
   -.302E+01 -.269E+02 -.129E+02   0.385E+01 0.268E+02 0.133E+02   -.829E+00 0.673E-01 -.359E+00   0.111E-02 -.600E-02 0.139E-01
   0.417E+02 -.134E+03 0.152E+02   -.413E+02 0.134E+03 -.158E+02   -.363E+00 -.324E+00 0.598E+00   0.470E-02 -.298E-02 0.181E-01
   -.178E+01 -.733E+01 0.534E+02   0.114E+01 0.739E+01 -.537E+02   0.641E+00 -.540E-01 0.311E+00   -.642E-03 -.592E-02 0.139E-01
   0.184E+02 0.149E+03 0.332E+02   -.191E+02 -.149E+03 -.333E+02   0.660E+00 -.524E+00 0.729E-01   -.136E-02 0.398E-02 -.496E-02
   0.148E+02 0.884E+02 -.679E+02   -.149E+02 -.888E+02 0.679E+02   0.149E+00 0.422E+00 0.118E-01   0.177E-03 0.108E-01 0.108E-01
   -.508E+02 0.222E+03 -.130E+03   0.511E+02 -.223E+03 0.130E+03   -.332E+00 0.414E+00 0.842E-01   -.123E-03 0.259E-01 0.284E-01
   -.751E+02 0.287E+03 0.647E+02   0.761E+02 -.287E+03 -.646E+02   -.101E+01 -.255E+00 -.261E-01   0.297E-02 0.640E-02 -.173E-01
   0.526E+02 0.260E+03 -.783E+02   -.521E+02 -.260E+03 0.780E+02   -.463E+00 0.335E-01 0.377E+00   0.784E-02 0.829E-02 0.106E-01
   0.188E+02 0.185E+03 0.511E+02   -.188E+02 -.185E+03 -.510E+02   -.263E-01 -.119E+00 -.657E-01   0.122E-01 0.211E-01 -.225E-01
   -.237E+02 0.918E+02 0.318E+02   0.227E+02 -.914E+02 -.317E+02   0.101E+01 -.403E+00 -.131E+00   -.671E-03 0.148E-01 0.115E-01
   0.331E+02 -.988E+02 0.343E+02   -.335E+02 0.990E+02 -.345E+02   0.391E+00 -.198E+00 0.181E+00   -.659E-02 0.171E-01 -.463E-02
   0.713E+02 0.442E+02 0.120E+03   -.713E+02 -.443E+02 -.120E+03   -.174E-01 0.848E-01 0.580E+00   0.158E-01 -.227E-01 -.398E-01
   -.753E+02 -.240E+03 0.581E+02   0.747E+02 0.240E+03 -.586E+02   0.680E+00 0.123E+00 0.510E+00   -.127E-01 -.134E-01 0.503E-01
   -.264E+02 -.216E+03 -.783E+02   0.265E+02 0.216E+03 0.781E+02   -.698E-01 -.667E-02 0.266E+00   0.249E-01 0.160E-02 -.340E-01
 -----------------------------------------------------------------------------------------------
   0.416E+00 -.745E+00 -.320E+00   0.124E-12 0.227E-12 0.171E-12   -.426E+00 0.688E+00 0.268E+00   0.113E-01 0.568E-01 0.532E-01
 
 
 POSITION                                       TOTAL-FORCE (eV/Angst)
 -----------------------------------------------------------------------------------
      1.87382      5.17320      1.71383         0.004517      0.002805     -0.003819
      3.47490      6.80034      6.61067         0.003543     -0.002612      0.004379
      1.84233      5.21963      8.60394        -0.006408      0.002069      0.003955
      1.62776      1.78650      4.96296         0.006747      0.005915      0.002732
      0.05489      3.38689      0.05085        -0.002440     -0.000665      0.000320
      6.76977      6.84372      0.24544        -0.000725     -0.002482      0.004834
      1.92048      8.41869      1.64669         0.005328     -0.004960     -0.003544
      3.30616     10.25443      6.68076         0.000005     -0.002551      0.001189
      5.37908      8.59419      5.16107        -0.002154     -0.001038      0.001341
      1.87338      8.43585      8.60745        -0.001979     -0.005919      0.001824
      1.84331      1.75836      1.79304         0.005004      0.003805     -0.004754
      0.16691      6.88653      6.68166        -0.006224      0.001012     -0.006139
      3.77782      6.81452      0.07820        -0.003328      0.003651     -0.000815
      5.04737      8.53614      1.82713        -0.003842     -0.005664      0.000241
      3.55806      3.51854      3.49833         0.000684     -0.000770     -0.009375
      6.90261      3.52064      3.25059        -0.000483      0.003543     -0.000874
      0.12724      3.36952      6.95053        -0.002793      0.004045     -0.001557
      1.67768      8.51471      4.99247         0.000700     -0.007023      0.004071
      3.40096      3.29198     -0.00525         0.000215     -0.001778     -0.002897
      1.78456      1.71559      8.49587         0.000476      0.004318     -0.003838
      5.11161      5.08606      1.84816        -0.000634     -0.002593     -0.000141
      0.29094     10.24954      6.83609        -0.001455     -0.008830      0.001476
      3.59603      6.85709      3.53434        -0.000061      0.002095     -0.000959
      5.40051      5.16939      5.05421         0.000855     -0.001153     -0.003280
      6.88483      6.85922      3.34432        -0.000973      0.002186      0.003158
      3.35367      0.13756      0.06506        -0.000409     -0.002587     -0.001625
      3.44163     10.18251      3.45801        -0.003012      0.001075      0.001159
      6.99789     10.15740      3.23088        -0.000845     -0.002592     -0.003660
      0.07377      0.03508      0.04944        -0.004330      0.002818      0.006433
      5.36265      1.70502      5.12313         0.002566      0.002790      0.005049
      5.27714      1.65112      8.46900         0.002596      0.005468     -0.000258
      5.08535      1.77509      1.76273        -0.000083      0.002932     -0.004586
      3.48370      3.43955      6.72774         0.002898      0.000770      0.004961
      5.31729      8.61281      8.39555        -0.002131      0.000496      0.004700
      1.60659      5.07918      4.98991         0.005395     -0.000805     -0.000946
      5.35338      5.11175      8.40702         0.002781      0.002230      0.001244
 -----------------------------------------------------------------------------------
    total drift:                                0.001011     -0.000795      0.001572


--------------------------------------------------------------------------------------------------------



  FREE ENERGIE OF THE ION-ELECTRON SYSTEM (eV)
  ---------------------------------------------------
  free  energy   TOTEN  =      -357.89821200 eV

  energy  without entropy=     -357.90835357  energy(sigma->0) =     -357.90159252
 
 d Force = 0.1045713E-03[ 0.873E-04, 0.122E-03]  d Energy = 0.1449579E-03-0.404E-04
 d Force = 0.6300377E+00[ 0.629E+00, 0.631E+00]  d Ewald  = 0.3833936E+01-0.320E+01


--------------------------------------------------------------------------------------------------------


    POTLOK:  cpu time    0.0424: real time    0.0437


--------------------------------------------------------------------------------------------------------


 Conjugate gradient step on ions:
 trial-energy change:   -0.000145  1 .order   -0.000163   -0.000241   -0.000085
  (g-gl).g = 0.110E-03      g.g   = 0.117E-03  gl.gl    = 0.925E-04
 g(Force)  = 0.281E-04   g(Stress)= 0.886E-04 ortho     = 0.273E-05
 gamma     =   1.18507
 trial     =   2.01012
 opt step  =   3.10639  (harmonic =   3.10639) maximal distance =0.00172517
 next E    =  -357.898253   (d E  =  -0.00019)


--------------------------------------------------------------------------------------------------------


  
 reached required accuracy - stopping structural energy minimisation
     LOOP+:  cpu time    7.1158: real time    8.0505
    4ORBIT:  cpu time    0.0000: real time    0.0000

 total amount of memory used by VASP on root node    68400. kBytes
========================================================================

   base      :      30000. kBytes
   nonlr-proj:      10478. kBytes
   fftplans  :       2814. kBytes
   grid      :       5360. kBytes
   one-center:        124. kBytes
   wavefun   :      19624. kBytes
 
  
  
 General timing and accounting informations for this job:
 ========================================================
  
                  Total CPU time used (sec):      252.677
                            User time (sec):      250.567
                          System time (sec):        2.111
                         Elapsed time (sec):      288.931
  
                   Maximum memory used (kb):      282320.
                   Average memory used (kb):           0.
  
                          Minor page faults:       136928
                          Major page faults:           34
                 Voluntary context switches:         8644
