 vasp.5.4.1 05Feb16 (build Jan 29 2020 16:04:39) complex                        
  
 executed on           IFC91_ompi date 2020.06.15  04:45:56
 running on  160 total cores
 distrk:  each k-point on   20 cores,    8 groups
 distr:  one band on NCORES_PER_BAND=   5 cores,    4 groups


--------------------------------------------------------------------------------------------------------


 INCAR:
 POTCAR:    PAW_PBE Ta 17Jan2003                  
 POTCAR:    PAW_PBE Zr_sv 04Jan2005               
 POTCAR:    PAW_PBE Nb_sv 25May2007               
 POTCAR:    PAW_PBE Hf 20Jan2003                  

 ----------------------------------------------------------------------------- 
|                                                                             |
|           W    W    AA    RRRRR   N    N  II  N    N   GGGG   !!!           |
|           W    W   A  A   R    R  NN   N  II  NN   N  G    G  !!!           |
|           W    W  A    A  R    R  N N  N  II  N N  N  G       !!!           |
|           W WW W  AAAAAA  RRRRR   N  N N  II  N  N N  G  GGG   !            |
|           WW  WW  A    A  R   R   N   NN  II  N   NN  G    G                |
|           W    W  A    A  R    R  N    N  II  N    N   GGGG   !!!           |
|                                                                             |
|      For optimal performance we recommend to set                            |
|        NCORE= 4 - approx SQRT( number of cores)                             |
|      NCORE specifies how many cores store one orbital (NPAR=cpu/NCORE).     |
|      This setting can  greatly improve the performance of VASP for DFT.     |
|      The default, NPAR=number of cores might be grossly inefficient         |
|      on modern multi-core architectures or massively parallel machines.     |
|      Do your own testing !!!!                                               |
|      Unfortunately you need to use the default for GW and RPA calculations. |
|      (for HF NCORE is supported but not extensively tested yet)             |
|                                                                             |
 ----------------------------------------------------------------------------- 


 ----------------------------------------------------------------------------- 
|                                                                             |
|           W    W    AA    RRRRR   N    N  II  N    N   GGGG   !!!           |
|           W    W   A  A   R    R  NN   N  II  NN   N  G    G  !!!           |
|           W    W  A    A  R    R  N N  N  II  N N  N  G       !!!           |
|           W WW W  AAAAAA  RRRRR   N  N N  II  N  N N  G  GGG   !            |
|           WW  WW  A    A  R   R   N   NN  II  N   NN  G    G                |
|           W    W  A    A  R    R  N    N  II  N    N   GGGG   !!!           |
|                                                                             |
|      You have enabled k-point parallelism (KPAR>1).                         |
|      This developmental code was originally  written by Paul Kent at ORNL,  |
|      and carefully double checked in Vienna.                                |
|      GW as well as linear response parallelism added by Martijn Marsman     |
|      and Georg Kresse.                                                      |
|      Carefully verify results versus KPAR=1.                                |
|      Report problems to Paul Kent and Vienna.                               |
|                                                                             |
 ----------------------------------------------------------------------------- 

 POTCAR:    PAW_PBE Ta 17Jan2003                  
   VRHFIN =Ta:  6s5d                                                            
   LEXCH  = PE                                                                  
   EATOM  =   130.6506 eV,    9.6025 Ry                                         
                                                                                
   TITEL  = PAW_PBE Ta 17Jan2003                                                
   LULTRA =        F    use ultrasoft PP ?                                      
   IUNSCR =        1    unscreen: 0-lin 1-nonlin 2-no                           
   RPACOR =    2.330    partial core radius                                     
   POMASS =  180.948; ZVAL   =    5.000    mass and valenz                      
   RCORE  =    2.900    outmost cutoff radius                                   
   RWIGS  =    2.840; RWIGS  =    1.503    wigner-seitz radius (au A)           
   ENMAX  =  223.667; ENMIN  =  167.750 eV                                      
   RCLOC  =    2.205    cutoff for local pot                                    
   LCOR   =        T    correct aug charges                                     
   LPAW   =        T    paw PP                                                  
   EAUG   =  332.075                                                            
   DEXC   =    0.000                                                            
   RMAX   =    2.970    core radius for proj-oper                               
   RAUG   =    1.300    factor for augmentation sphere                          
   RDEP   =    3.060    radius for radial grids                                 
   RDEPT  =    2.354    core radius for aug-charge                              
                                                                                
   Atomic configuration                                                         
   16 entries                                                                   
     n  l   j            E        occ.                                          
     1  0  0.50    -67341.2807   2.0000                                         
     2  0  0.50    -11566.9376   2.0000                                         
     2  1  1.50    -10134.1182   6.0000                                         
     3  0  0.50     -2648.5620   2.0000                                         
     3  1  1.50     -2222.6012   6.0000                                         
     3  2  2.50     -1726.3120  10.0000                                         
     4  0  0.50      -538.6961   2.0000                                         
     4  1  1.50      -399.0129   6.0000                                         
     4  2  2.50      -220.3959  10.0000                                         
     4  3  3.50       -23.0374  14.0000                                         
     5  0  0.50       -71.2901   2.0000                                         
     5  1  1.50       -37.8225   6.0000                                         
     5  2  2.50        -2.6455   4.0000                                         
     6  0  0.50        -4.9623   1.0000                                         
     6  1  1.50        -1.3606   0.0000                                         
     5  3  2.50        -1.3606   0.0000                                         
   Description                                                                  
     l       E           TYP  RCUT    TYP  RCUT                                 
     2     -2.6455043     23  2.500                                             
     2     -0.6258895     23  2.500                                             
     0     -4.9622780     23  2.500                                             
     0      4.7531321     23  2.500                                             
     1     -1.3605826     23  2.900                                             
     1     27.2116520     23  2.900                                             
  local pseudopotential read in
  partial core-charges read in
  partial kinetic energy density read in
  atomic valenz-charges read in
  non local Contribution for L=           2  read in
    real space projection operators read in
  non local Contribution for L=           2  read in
    real space projection operators read in
  non local Contribution for L=           0  read in
    real space projection operators read in
  non local Contribution for L=           0  read in
    real space projection operators read in
  non local Contribution for L=           1  read in
    real space projection operators read in
  non local Contribution for L=           1  read in
    real space projection operators read in
    PAW grid and wavefunctions read in
 
   number of l-projection  operators is LMAX  =           6
   number of lm-projection operators is LMMAX =          18
 
 POTCAR:    PAW_PBE Zr_sv 04Jan2005               
   VRHFIN =Zr: 4s4p5s4d                                                         
   LEXCH  = PE                                                                  
   EATOM  =  1284.2219 eV,   94.3876 Ry                                         
                                                                                
   TITEL  = PAW_PBE Zr_sv 04Jan2005                                             
   LULTRA =        F    use ultrasoft PP ?                                      
   IUNSCR =        1    unscreen: 0-lin 1-nonlin 2-no                           
   RPACOR =    2.200    partial core radius                                     
   POMASS =   91.224; ZVAL   =   12.000    mass and valenz                      
   RCORE  =    2.500    outmost cutoff radius                                   
   RWIGS  =    3.070; RWIGS  =    1.625    wigner-seitz radius (au A)           
   ENMAX  =  229.898; ENMIN  =  172.424 eV                                      
   ICORE  =        3    local potential                                         
   LCOR   =        T    correct aug charges                                     
   LPAW   =        T    paw PP                                                  
   EAUG   =  461.257                                                            
   DEXC   =    0.000                                                            
   RMAX   =    2.561    core radius for proj-oper                               
   RAUG   =    1.300    factor for augmentation sphere                          
   RDEP   =    2.597    radius for radial grids                                 
   RDEPT  =    2.007    core radius for aug-charge                              
                                                                                
   Atomic configuration                                                         
   11 entries                                                                   
     n  l   j            E        occ.                                          
     1  0  0.50    -17820.0161   2.0000                                         
     2  0  0.50     -2467.0882   2.0000                                         
     2  1  1.50     -2199.6095   6.0000                                         
     3  0  0.50      -402.4863   2.0000                                         
     3  1  1.50      -315.3675   6.0000                                         
     3  2  2.50      -172.4472  10.0000                                         
     4  0  0.50       -52.4146   2.0000                                         
     5  0  0.50        -3.8421   1.0000                                         
     4  1  1.50       -30.5054   6.0000                                         
     4  2  2.50        -2.3341   3.0000                                         
     4  3  2.50        -1.3606   0.0000                                         
   Description                                                                  
     l       E           TYP  RCUT    TYP  RCUT                                 
     0    -52.4145962     23  2.200                                             
     0     -3.8421270     23  2.500                                             
     1    -30.5053914     23  2.200                                             
     1     20.4087390     23  2.200                                             
     2     -2.3340816     23  2.500                                             
     2     -0.6120942     23  2.500                                             
     3     -4.0817478     23  2.500                                             
  local pseudopotential read in
  partial core-charges read in
  partial kinetic energy density read in
  atomic valenz-charges read in
  non local Contribution for L=           0  read in
    real space projection operators read in
  non local Contribution for L=           0  read in
    real space projection operators read in
  non local Contribution for L=           1  read in
    real space projection operators read in
  non local Contribution for L=           1  read in
    real space projection operators read in
  non local Contribution for L=           2  read in
    real space projection operators read in
  non local Contribution for L=           2  read in
    real space projection operators read in
    PAW grid and wavefunctions read in
 
   number of l-projection  operators is LMAX  =           6
   number of lm-projection operators is LMMAX =          18
 
 POTCAR:    PAW_PBE Nb_sv 25May2007               
   VRHFIN =Nb: 4p5s4d                                                           
   LEXCH  = PE                                                                  
   EATOM  =  1555.1913 eV,  114.3033 Ry                                         
                                                                                
   TITEL  = PAW_PBE Nb_sv 25May2007                                             
   LULTRA =        F    use ultrasoft PP ?                                      
   IUNSCR =        1    unscreen: 0-lin 1-nonlin 2-no                           
   RPACOR =    1.800    partial core radius                                     
   POMASS =   92.910; ZVAL   =   13.000    mass and valenz                      
   RCORE  =    2.400    outmost cutoff radius                                   
   RWIGS  =    2.400; RWIGS  =    1.270    wigner-seitz radius (au A)           
   ENMAX  =  293.235; ENMIN  =  219.927 eV                                      
   ICORE  =        3    local potential                                         
   LCOR   =        T    correct aug charges                                     
   LPAW   =        T    paw PP                                                  
   EAUG   =  455.659                                                            
   DEXC   =    0.000                                                            
   RMAX   =    2.456    core radius for proj-oper                               
   RAUG   =    1.300    factor for augmentation sphere                          
   RDEP   =    2.451    radius for radial grids                                 
   RDEPT  =    1.956    core radius for aug-charge                              
                                                                                
   Atomic configuration                                                         
   11 entries                                                                   
     n  l   j            E        occ.                                          
     1  0  0.50    -18805.2457   2.0000                                         
     2  0  0.50     -2630.2869   2.0000                                         
     2  1  1.50     -2348.4046   6.0000                                         
     3  0  0.50      -438.8757   2.0000                                         
     3  1  1.50      -346.7588   6.0000                                         
     3  2  2.50      -196.2560  10.0000                                         
     4  0  0.50       -58.3859   2.0000                                         
     5  0  0.50        -3.9816   1.0000                                         
     4  1  1.50       -34.5141   6.0000                                         
     4  2  2.50        -3.0408   4.0000                                         
     4  3  2.50        -1.3606   0.0000                                         
   Description                                                                  
     l       E           TYP  RCUT    TYP  RCUT                                 
     0    -58.3859094     23  2.200                                             
     0     -3.9816262     23  2.200                                             
     1    -34.5140738     23  2.200                                             
     1     13.6058260     23  2.200                                             
     2     -3.0408010     23  2.200                                             
     2     -0.1283038     23  2.200                                             
     3     -1.3605826     23  2.400                                             
  local pseudopotential read in
  partial core-charges read in
  partial kinetic energy density read in
  atomic valenz-charges read in
  non local Contribution for L=           0  read in
    real space projection operators read in
  non local Contribution for L=           0  read in
    real space projection operators read in
  non local Contribution for L=           1  read in
    real space projection operators read in
  non local Contribution for L=           1  read in
    real space projection operators read in
  non local Contribution for L=           2  read in
    real space projection operators read in
  non local Contribution for L=           2  read in
    real space projection operators read in
    PAW grid and wavefunctions read in
 
   number of l-projection  operators is LMAX  =           6
   number of lm-projection operators is LMMAX =          18
 
 POTCAR:    PAW_PBE Hf 20Jan2003                  
   VRHFIN =Hf: 6s5d                                                             
   LEXCH  = PE                                                                  
   EATOM  =    75.9011 eV,    5.5786 Ry                                         
                                                                                
   TITEL  = PAW_PBE Hf 20Jan2003                                                
   LULTRA =        F    use ultrasoft PP ?                                      
   IUNSCR =        1    unscreen: 0-lin 1-nonlin 2-no                           
   RPACOR =    2.500    partial core radius                                     
   POMASS =  178.490; ZVAL   =    4.000    mass and valenz                      
   RCORE  =    3.000    outmost cutoff radius                                   
   RWIGS  =    3.050; RWIGS  =    1.614    wigner-seitz radius (au A)           
   ENMAX  =  220.334; ENMIN  =  165.250 eV                                      
   RCLOC  =    2.212    cutoff for local pot                                    
   LCOR   =        T    correct aug charges                                     
   LPAW   =        T    paw PP                                                  
   EAUG   =  335.116                                                            
   DEXC   =    0.000                                                            
   RMAX   =    3.077    core radius for proj-oper                               
   RAUG   =    1.300    factor for augmentation sphere                          
   RDEP   =    3.047    radius for radial grids                                 
   RDEPT  =    2.344    core radius for aug-charge                              
                                                                                
   Atomic configuration                                                         
   16 entries                                                                   
     n  l   j            E        occ.                                          
     1  0  0.50    -65259.4397   2.0000                                         
     2  0  0.50    -11157.9882   2.0000                                         
     2  1  1.50     -9795.2113   6.0000                                         
     3  0  0.50     -2541.4058   2.0000                                         
     3  1  1.50     -2134.4770   6.0000                                         
     3  2  2.50     -1653.5418  10.0000                                         
     4  0  0.50      -510.9575   2.0000                                         
     4  1  1.50      -377.5023   6.0000                                         
     4  2  2.50      -205.2085  10.0000                                         
     4  3  3.50       -15.4905  14.0000                                         
     5  0  0.50       -65.6020   2.0000                                         
     5  1  1.50       -34.2798   6.0000                                         
     5  2  2.50        -1.9877   3.0000                                         
     6  0  0.50        -4.7357   1.0000                                         
     6  1  1.50        -1.3606   0.0000                                         
     5  3  2.50        -1.3606   0.0000                                         
   Description                                                                  
     l       E           TYP  RCUT    TYP  RCUT                                 
     2     -1.9876627     23  2.500                                             
     2      0.0744703     23  2.500                                             
     0     -4.7356889     23  2.600                                             
     0      3.2364747     23  2.600                                             
     1     -1.3605826     23  3.000                                             
     1     27.2116520     23  3.000                                             
  local pseudopotential read in
  partial core-charges read in
  partial kinetic energy density read in
  atomic valenz-charges read in
  non local Contribution for L=           2  read in
    real space projection operators read in
  non local Contribution for L=           2  read in
    real space projection operators read in
  non local Contribution for L=           0  read in
    real space projection operators read in
  non local Contribution for L=           0  read in
    real space projection operators read in
  non local Contribution for L=           1  read in
    real space projection operators read in
  non local Contribution for L=           1  read in
    real space projection operators read in
    PAW grid and wavefunctions read in
 
   number of l-projection  operators is LMAX  =           6
   number of lm-projection operators is LMMAX =          18
 
 Optimization of the real space projectors (new method)

 maximal supplied QI-value         = 12.85
 optimisation between [QCUT,QGAM] = [  8.87, 17.73] = [ 22.01, 88.06] Ry 
 Optimized for a Real-space Cutoff    1.90 Angstroem

   l    n(q)    QCUT    max X(q) W(low)/X(q) W(high)/X(q)  e(spline) 
   2      9     8.867    62.315    0.23E-03    0.62E-04    0.11E-05
   2      9     8.867    52.185    0.23E-03    0.62E-04    0.11E-05
   0     10     8.867   103.837    0.15E-04    0.23E-04    0.98E-07
   0     10     8.867    59.728    0.12E-04    0.21E-04    0.89E-07
   1     10     8.867    13.958    0.50E-04    0.22E-04    0.14E-06
   1     10     8.867     8.441    0.36E-04    0.19E-04    0.98E-07
 Optimization of the real space projectors (new method)

 maximal supplied QI-value         = 15.12
 optimisation between [QCUT,QGAM] = [  8.77, 17.69] = [ 21.53, 87.61] Ry 
 Optimized for a Real-space Cutoff    1.74 Angstroem

   l    n(q)    QCUT    max X(q) W(low)/X(q) W(high)/X(q)  e(spline) 
   0      9     8.768    12.107    0.28E-04    0.53E-06    0.29E-07
   0      9     8.768     9.948    0.36E-04    0.50E-05    0.64E-07
   1      9     8.768     3.563    0.14E-04    0.16E-04    0.88E-07
   1      9     8.768     4.524    0.21E-03    0.33E-03    0.19E-06
   2      8     8.768    87.261    0.19E-03    0.25E-03    0.24E-06
   2      8     8.768    70.950    0.19E-03    0.24E-03    0.24E-06
 Optimization of the real space projectors (new method)

 maximal supplied QI-value         = 15.68
 optimisation between [QCUT,QGAM] = [  8.78, 17.72] = [ 21.60, 87.97] Ry 
 Optimized for a Real-space Cutoff    1.96 Angstroem

   l    n(q)    QCUT    max X(q) W(low)/X(q) W(high)/X(q)  e(spline) 
   0     10     8.783    10.201    0.29E-04    0.25E-05    0.69E-07
   0     10     8.783     8.174    0.45E-04    0.57E-05    0.14E-06
   1     10     8.783     3.488    0.76E-05    0.24E-04    0.95E-07
   1     10     8.783     4.917    0.78E-04    0.14E-03    0.46E-06
   2      9     8.783   153.744    0.22E-03    0.34E-04    0.15E-05
   2      9     8.783   126.342    0.22E-03    0.35E-04    0.15E-05
 Optimization of the real space projectors (new method)

 maximal supplied QI-value         = 12.47
 optimisation between [QCUT,QGAM] = [  8.86, 17.71] = [ 21.96, 87.83] Ry 
 Optimized for a Real-space Cutoff    1.90 Angstroem

   l    n(q)    QCUT    max X(q) W(low)/X(q) W(high)/X(q)  e(spline) 
   2      9     8.855    48.111    0.22E-03    0.80E-04    0.10E-05
   2      9     8.855    40.545    0.21E-03    0.76E-04    0.95E-06
   0     10     8.855   121.658    0.27E-04    0.12E-04    0.11E-06
   0     10     8.855    71.177    0.22E-04    0.11E-04    0.99E-07
   1     10     8.855    14.183    0.65E-04    0.10E-03    0.98E-07
   1     10     8.855     8.257    0.43E-04    0.73E-04    0.72E-07
  PAW_PBE Ta 17Jan2003                  :
 energy of atom  1       EATOM= -130.6506
 kinetic energy error for atom=    0.0121 (will be added to EATOM!!)
  PAW_PBE Zr_sv 04Jan2005               :
 energy of atom  2       EATOM=-1284.2219
 kinetic energy error for atom=    0.0483 (will be added to EATOM!!)
  PAW_PBE Nb_sv 25May2007               :
 energy of atom  3       EATOM=-1555.1913
 kinetic energy error for atom=    0.0655 (will be added to EATOM!!)
  PAW_PBE Hf 20Jan2003                  :
 energy of atom  4       EATOM=  -75.9011
 kinetic energy error for atom=    0.0071 (will be added to EATOM!!)
 
 
 POSCAR: generated by pypospack                  
  positions in direct lattice
  No initial velocities read in
 exchange correlation table for  LEXCH =        8
   RHO(1)=    0.500       N(1)  =     2000
   RHO(2)=  100.500       N(2)  =     4000
 


--------------------------------------------------------------------------------------------------------


 ion  position               nearest neighbor table
   1  0.257  0.164  0.510-   2 2.85   3 2.86   8 2.87  21 2.92  34 2.92  26 2.94  35 2.99  14 3.05
                            24 3.19   5 3.21  31 3.43  31 3.53
   2  0.033  0.324  0.341-  19 2.76  18 2.81   1 2.85  36 2.94  10 2.95  31 2.99  28 3.03  34 3.04
                            15 3.13  35 3.35   3 3.38  12 3.59  29 3.64
   3  0.016  0.324  0.671-  19 2.78  24 2.84   1 2.86  22 2.88   4 2.94  10 2.96  27 2.99  31 2.99
                             8 3.25  12 3.26  26 3.32   2 3.38  13 3.58
   4  0.246  0.494  0.841-   9 2.89   8 2.90  12 2.92   3 2.94  33 2.95  20 3.00  13 3.06  16 3.07
                            28 3.16  27 3.44   6 3.50  27 3.52
   5  0.283  0.851  0.514-  21 2.77  14 2.89  33 2.91  26 2.95  32 2.97  35 3.00  25 3.06  13 3.07
                            29 3.08   1 3.21   6 3.31
   6  0.252  0.835  0.837-  20 2.91  21 2.92  16 2.92  26 2.95  11 2.95  13 2.96  30 2.97  33 2.98
                             7 3.19   5 3.31   4 3.50
   7  0.228  0.819  0.148-  20 2.72  29 2.87  16 2.88  11 2.93  35 2.99  32 3.04  14 3.07  30 3.08
                            23 3.19   6 3.19  28 3.22
   8  0.482  0.339  0.665-  24 2.81   1 2.87  19 2.88  22 2.88   4 2.90  27 2.97  10 3.02  31 3.04
                             3 3.25  33 3.27  34 3.30   9 3.34
   9  0.490  0.322  0.992-  18 2.83  24 2.83  22 2.85   4 2.89  27 2.98  36 3.01  28 3.03  15 3.13
                            30 3.30   8 3.34  12 3.35  34 3.59  12 3.62  16 3.64
  10  0.770  0.486  0.500-   2 2.95   3 2.96   8 3.02  34 3.02  13 3.06  29 3.07  19 3.15  33 3.16
                            32 3.21  31 3.22  15 3.38  27 3.39  25 3.68
  11  0.995  0.002  0.997-   7 2.93  23 2.93   6 2.95  17 2.99  18 3.09  24 3.10  22 3.14  36 3.15
                            12 3.19  26 3.32  20 3.34  30 3.41  35 3.44  30 3.55
  12  0.009  0.312  0.990-  18 2.86  24 2.89   4 2.92  22 2.92  36 2.97  28 3.02  27 3.02  15 3.14
                            11 3.19   3 3.26   9 3.35   2 3.59   9 3.62
  13  0.008  0.673  0.666-  19 2.88  17 2.91   6 2.96  10 3.06   4 3.06   5 3.07  27 3.10  25 3.15
                            29 3.27  20 3.33  33 3.34  26 3.36   3 3.58  33 3.63
  14  0.482  0.998  0.314-  18 2.84   5 2.89  36 2.98  25 2.98  23 3.02   1 3.05   7 3.07  30 3.21
                            31 3.21  35 3.22  32 3.41  34 3.57  35 3.75
  15  0.756  0.493  0.169-  34 3.07  20 3.08  32 3.10  16 3.11   2 3.13   9 3.13  12 3.14  36 3.18
                            29 3.21  28 3.35  10 3.38  27 3.45  23 3.47  28 3.62
  16  0.508  0.677  0.997-  17 2.84   7 2.88   6 2.92  23 3.00  28 3.02  27 3.06   4 3.07  15 3.11
                            30 3.33  33 3.36  20 3.37  32 3.46   9 3.64
  17  0.752  0.827  0.832-  20 2.80  16 2.84  13 2.91  21 2.98  26 2.98  11 2.99  30 3.01  33 3.04
                            25 3.42
  18  0.257  0.176  0.166-   2 2.81   9 2.83  14 2.84  12 2.86  34 2.91  35 2.99  30 3.00  11 3.09
                            28 3.38  36 3.43
  19  0.221  0.490  0.509-   2 2.76   3 2.78  34 2.84  13 2.88   8 2.88  29 2.92  33 3.02  32 3.11
                            10 3.15
  20  0.992  0.676  0.992-   7 2.72  17 2.80  23 2.85   6 2.91  28 2.94   4 3.00  27 3.03  15 3.08
                            13 3.33  11 3.34  16 3.37
  21  0.498  0.005  0.680-  24 2.72   5 2.77  22 2.83   6 2.92   1 2.92  25 2.93  17 2.98  31 3.07
                            30 3.27  26 3.44
  22  0.736  0.179  0.819-  21 2.83   9 2.85   3 2.88   8 2.88  12 2.92  26 3.01  30 3.05  11 3.14
                            27 3.18  31 3.27
  23  0.771  0.831  0.169-  20 2.85  11 2.93  29 2.95  35 2.96  16 3.00  14 3.02  30 3.08  32 3.12
                             7 3.19  25 3.38  15 3.47
  24  0.267  0.167  0.822-  21 2.72   8 2.81   9 2.83   3 2.84  12 2.89  26 2.94  30 2.99  11 3.10
                             1 3.19
  25  0.721  0.843  0.499-  21 2.93  32 2.98  14 2.98  33 3.05   5 3.06  29 3.07  26 3.11  35 3.12
                            13 3.15  23 3.38  31 3.39  17 3.42  10 3.68
  26  0.003  0.000  0.672-  24 2.94   1 2.94   5 2.95   6 2.95  17 2.98  22 3.01  31 3.06  25 3.11
                            11 3.32   3 3.32  13 3.36  21 3.44  35 3.47
  27  0.752  0.489  0.832-   8 2.97   9 2.98   3 2.99  12 3.02  20 3.03  33 3.03  16 3.06  13 3.10
                            22 3.18  10 3.39   4 3.44  15 3.45   4 3.52
  28  0.236  0.505  0.150-  20 2.94  16 3.02  12 3.02  34 3.03   9 3.03   2 3.03  32 3.04  29 3.08
                             4 3.16   7 3.22  15 3.35  18 3.38  15 3.62
  29  0.018  0.679  0.346-   7 2.87  19 2.92  23 2.95  10 3.07  25 3.07   5 3.08  28 3.08  15 3.21
                            32 3.24  35 3.27  13 3.27   2 3.64  32 3.73
  30  0.505  0.001  1.000-   6 2.97  24 2.99  18 3.00  17 3.01  22 3.05  23 3.08   7 3.08  36 3.14
                            14 3.21  21 3.27   9 3.30  16 3.33  11 3.41  11 3.55
  31  0.750  0.172  0.500-   2 2.99   3 2.99   8 3.04  26 3.06  21 3.07  34 3.09  35 3.10  14 3.21
                            10 3.22  36 3.25  22 3.27  25 3.39   1 3.43   1 3.53
  32  0.482  0.666  0.335-   5 2.97  25 2.98   7 3.04  28 3.04  15 3.10  19 3.11  23 3.12  10 3.21
                            29 3.24  34 3.30  14 3.41  33 3.42  16 3.46  29 3.73
  33  0.486  0.658  0.669-   5 2.91   4 2.95   6 2.98  19 3.02  27 3.03  17 3.04  25 3.05  10 3.16
                             8 3.27  13 3.34  16 3.36  32 3.42  13 3.63
  34  0.469  0.344  0.342-  19 2.84  18 2.91   1 2.92  10 3.02  36 3.03  28 3.03   2 3.04  15 3.07
                            31 3.09  32 3.30   8 3.30  14 3.57   9 3.59
  35  0.021  0.997  0.333-  23 2.96   1 2.99   7 2.99  18 2.99   5 3.00  36 3.10  31 3.10  25 3.12
                            14 3.22  29 3.27   2 3.35  11 3.44  26 3.47  14 3.75
  36  0.749  0.183  0.182-   2 2.94  12 2.97  14 2.98   9 3.01  34 3.03  35 3.10  30 3.14  11 3.15
                            15 3.18  31 3.25  18 3.43
 
  LATTYP: Found a triclinic cell.
 ALAT       =    14.4757975988
 B/A-ratio  =     0.7086005224
 C/A-ratio  =     1.4938391595
 COS(alpha) =     0.0001735530
 COS(beta)  =     0.6685447645
 COS(gamma) =     0.7082253777
  
  Lattice vectors:
  
 A1 = (  -0.0364844993, -10.2546584228, -10.2171114134)
 A2 = (  -0.0108844924, -10.2575516426,   0.0025739680)
 A3 = (  -7.0110796816,  -0.0014466099, -20.4564008531)


Analysis of symmetry for initial positions (statically):
=====================================================================
 Subroutine PRICEL returns:
 Original cell was already a primitive cell.
 

 Routine SETGRP: Setting up the symmetry group for a 
 triclinic supercell.


 Subroutine GETGRP returns: Found  1 space group operations
 (whereof  1 operations were pure point group operations)
 out of a pool of  2 trial point group operations.


The static configuration has the point symmetry C_1 .


Analysis of symmetry for dynamics (positions and initial velocities):
=====================================================================
 Subroutine PRICEL returns:
 Original cell was already a primitive cell.
 

 Routine SETGRP: Setting up the symmetry group for a 
 triclinic supercell.


 Subroutine GETGRP returns: Found  1 space group operations
 (whereof  1 operations were pure point group operations)
 out of a pool of  2 trial point group operations.


The dynamic configuration has the point symmetry C_1 .


 Subroutine INISYM returns: Found  1 space group operations
 (whereof  1 operations are pure point group operations),
 and found     1 'primitive' translations

 
 
 KPOINTS: k-points                                

Automatic generation of k-mesh.
Space group operators:
 irot       det(A)        alpha          n_x          n_y          n_z        tau_x        tau_y        tau_z
    1     1.000000     0.000001     1.000000     0.000000     0.000000     0.000000     0.000000     0.000000
 
 Subroutine IBZKPT returns following result:
 ===========================================
 
 Found     14 irreducible k-points:
 
 Following reciprocal coordinates:
            Coordinates               Weight
  0.000000  0.000000  0.000000      1.000000
  0.333333  0.000000 -0.000000      2.000000
 -0.000000  0.333333  0.000000      2.000000
  0.333333  0.333333 -0.000000      2.000000
 -0.333333  0.333333  0.000000      2.000000
 -0.000000 -0.000000  0.333333      2.000000
  0.333333  0.000000  0.333333      2.000000
 -0.333333 -0.000000  0.333333      2.000000
 -0.000000  0.333333  0.333333      2.000000
  0.333333  0.333333  0.333333      2.000000
 -0.333333  0.333333  0.333333      2.000000
 -0.000000 -0.333333  0.333333      2.000000
  0.333333 -0.333333  0.333333      2.000000
 -0.333333 -0.333333  0.333333      2.000000
 
 Following cartesian coordinates:
            Coordinates               Weight
  0.000000  0.000000  0.000000      1.000000
  0.238910 -0.000254 -0.000599      2.000000
 -0.000169  0.162102  0.000046      2.000000
  0.238741  0.161849 -0.000552      2.000000
 -0.239078  0.162356  0.000645      2.000000
 -0.000398  0.000041  0.162704      2.000000
  0.238511 -0.000212  0.162105      2.000000
 -0.239308  0.000295  0.163302      2.000000
 -0.000567  0.162143  0.162750      2.000000
  0.238343  0.161890  0.162151      2.000000
 -0.239476  0.162397  0.163349      2.000000
 -0.000230 -0.162061  0.162657      2.000000
  0.238680 -0.162315  0.162059      2.000000
 -0.239139 -0.161807  0.163256      2.000000
 


--------------------------------------------------------------------------------------------------------




 Dimension of arrays:
   k-points           NKPTS =     14   k-points in BZ     NKDIM =     14   number of bands    NBANDS=    168
   number of dos      NEDOS =    301   number of ions     NIONS =     36
   non local maximal  LDIM  =      6   non local SUM 2l+1 LMDIM =     18
   total plane-waves  NPLWV = 144000
   max r-space proj   IRMAX =   6280   max aug-charges    IRDMAX=  13633
   dimension x,y,z NGX =    40 NGY =   60 NGZ =   60
   dimension x,y,z NGXF=    80 NGYF=  120 NGZF=  120
   support grid    NGXF=    80 NGYF=  120 NGZF=  120
   ions per type =               9   7   8  12
 NGX,Y,Z   is equivalent  to a cutoff of   9.55,  9.72,  9.76 a.u.
 NGXF,Y,Z  is equivalent  to a cutoff of  19.11, 19.45, 19.52 a.u.


 I would recommend the setting:
   dimension x,y,z NGX =    39 NGY =   58 NGZ =   58
 SYSTEM =  automatically generated by mexm         
 POSCAR =  generated by pypospack                  

 Startparameter for this run:
   NWRITE =      2    write-flag & timer
   PREC   = accura    normal or accurate (medium, high low for compatibility)
   ISTART =      0    job   : 0-new  1-cont  2-samecut
   ICHARG =      2    charge: 1-file 2-atom 10-const
   ISPIN  =      1    spin polarized calculation?
   LNONCOLLINEAR =      F non collinear calculations
   LSORBIT =      F    spin-orbit coupling
   INIWAV =      1    electr: 0-lowe 1-rand  2-diag
   LASPH  =      F    aspherical Exc in radial PAW
   METAGGA=      F    non-selfconsistent MetaGGA calc.

 Electronic Relaxation 1
   ENCUT  =  300.0 eV  22.05 Ry    4.70 a.u.   9.83 14.49 14.43*2*pi/ulx,y,z
   ENINI  =  300.0     initial cutoff
   ENAUG  =  461.3 eV  augmentation charge cutoff
   NELM   =     70;   NELMIN=  2; NELMDL= -5     # of ELM steps 
   EDIFF  = 0.1E-04   stopping-criterion for ELM
   LREAL  =      T    real-space projection
   NLSPLINE    = F    spline interpolate recip. space projectors
   LCOMPAT=      F    compatible to vasp.4.4
   GGA_COMPAT  = T    GGA compatible to vasp.4.4-vasp.4.6
   LMAXPAW     = -100 max onsite density
   LMAXMIX     =    2 max onsite mixed and CHGCAR
   VOSKOWN=      0    Vosko Wilk Nusair interpolation
   ROPT   =   -0.00025  -0.00025  -0.00025  -0.00025
 Ionic relaxation
   EDIFFG = -.1E-01   stopping-criterion for IOM
   NSW    =    300    number of steps for IOM
   NBLOCK =      1;   KBLOCK =    300    inner block; outer block 
   IBRION =      2    ionic relax: 0-MD 1-quasi-New 2-CG
   NFREE  =      1    steps in history (QN), initial steepest desc. (CG)
   ISIF   =      3    stress and relaxation
   IWAVPR =     11    prediction:  0-non 1-charg 2-wave 3-comb
   ISYM   =      1    0-nonsym 1-usesym 2-fastsym
   LCORR  =      T    Harris-Foulkes like correction to forces

   POTIM  = 0.1500    time-step for ionic-motion
   TEIN   =    0.0    initial temperature
   TEBEG  =    0.0;   TEEND  =   0.0 temperature during run
   SMASS  =  -3.00    Nose mass-parameter (am)
   estimated Nose-frequenzy (Omega)   =  0.10E-29 period in steps =****** mass=  -0.111E-26a.u.
   SCALEE = 1.0000    scale energy and forces
   NPACO  =    256;   APACO  = 16.0  distance and # of slots for P.C.
   PSTRESS=    0.0 pullay stress

  Mass of Ions in am
   POMASS = 180.95 91.22 92.91178.49
  Ionic Valenz
   ZVAL   =   5.00 12.00 13.00  4.00
  Atomic Wigner-Seitz radii
   RWIGS  =  -1.00 -1.00 -1.00 -1.00
  virtual crystal weights 
   VCA    =   1.00  1.00  1.00  1.00
   NELECT =     281.0000    total number of electrons
   NUPDOWN=      -1.0000    fix difference up-down

 DOS related values:
   EMIN   =  10.00;   EMAX   =-10.00  energy-range for DOS
   EFERMI =   0.00
   ISMEAR =     1;   SIGMA  =   0.15  broadening in eV -4-tet -1-fermi 0-gaus

 Electronic relaxation 2 (details)
   IALGO  =     68    algorithm
   LDIAG  =      T    sub-space diagonalisation (order eigenvalues)
   LSUBROT=      F    optimize rotation matrix (better conditioning)
   TURBO    =      0    0=normal 1=particle mesh
   IRESTART =      0    0=no restart 2=restart with 2 vectors
   NREBOOT  =      0    no. of reboots
   NMIN     =      0    reboot dimension
   EREF     =   0.00    reference energy to select bands
   IMIX   =      4    mixing-type and parameters
     AMIX     =   0.40;   BMIX     =  1.00
     AMIX_MAG =   1.60;   BMIX_MAG =  1.00
     AMIN     =   0.10
     WC   =   100.;   INIMIX=   1;  MIXPRE=   1;  MAXMIX= -45

 Intra band minimization:
   WEIMIN = 0.0010     energy-eigenvalue tresh-hold
   EBREAK =  0.15E-07  absolut break condition
   DEPER  =   0.30     relativ break condition  

   TIME   =   0.40     timestep for ELM

  volume/ion in A,a.u.               =      20.27       136.76
  Fermi-wavevector in a.u.,A,eV,Ry     =   1.191106  2.250864 19.303035  1.418733
  Thomas-Fermi vector in A             =   2.327175
 
 Write flags
   LWAVE  =      F    write WAVECAR
   LCHARG =      F    write CHGCAR
   LVTOT  =      F    write LOCPOT, total local potential
   LVHAR  =      F    write LOCPOT, Hartree potential only
   LELF   =      F    write electronic localiz. function (ELF)
   LORBIT =      0    0 simple, 1 ext, 2 COOP (PROOUT)


 Dipole corrections
   LMONO  =      F    monopole corrections only (constant potential shift)
   LDIPOL =      F    correct potential (dipole corrections)
   IDIPOL =      0    1-x, 2-y, 3-z, 4-all directions 
   EPSILON=  1.0000000 bulk dielectric constant

 Exchange correlation treatment:
   GGA     =    --    GGA type
   LEXCH   =     8    internal setting for exchange type
   VOSKOWN=      0    Vosko Wilk Nusair interpolation
   LHFCALC =     F    Hartree Fock is set to
   LHFONE  =     F    Hartree Fock one center treatment
   AEXX    =    0.0000 exact exchange contribution

 Linear response parameters
   LEPSILON=     F    determine dielectric tensor
   LRPA    =     F    only Hartree local field effects (RPA)
   LNABLA  =     F    use nabla operator in PAW spheres
   LVEL    =     F    velocity operator in full k-point grid
   LINTERFAST=   F  fast interpolation
   KINTER  =     0    interpolate to denser k-point grid
   CSHIFT  =0.1000    complex shift for real part using Kramers Kronig
   OMEGAMAX=  -1.0    maximum frequency
   DEG_THRESHOLD= 0.2000000E-02 threshold for treating states as degnerate
   RTIME   =    0.100 relaxation time in fs

 Orbital magnetization related:
   ORBITALMAG=     F  switch on orbital magnetization
   LCHIMAG   =     F  perturbation theory with respect to B field
   DQ        =  0.001000  dq finite difference perturbation B field



--------------------------------------------------------------------------------------------------------


 conjugate gradient relaxation of ions
 charge density and potential will be updated during run
 non-spin polarized calculation
 RMM-DIIS sequential band-by-band and
  variant of blocked Davidson during initial phase
 perform sub-space diagonalisation
    before iterative eigenvector-optimisation
 modified Broyden-mixing scheme, WC =      100.0
 initial mixing is a Kerker type mixing with AMIX =  0.4000 and BMIX =      1.0000
 Hartree-type preconditioning will be used
 using additional bands           27
 real space projection scheme for non local part
 use partial core corrections
 calculate Harris-corrections to forces 
   (improved forces if not selfconsistent)
 use gradient corrections 
 use of overlap-Matrix (Vanderbilt PP)
 Methfessel and Paxton  Order N= 1 SIGMA  =   0.15


--------------------------------------------------------------------------------------------------------


  energy-cutoff  :      300.00
  volume of cell :      729.59
      direct lattice vectors                 reciprocal lattice vectors
     6.959879668  0.007233049  0.017030090     0.143681684 -0.000152554 -0.000359962
     0.010884492 10.257551643 -0.002573968    -0.000101384  0.097489265  0.000027853
     0.025600007 -0.002893220 10.219685381    -0.000239457  0.000024808  0.097850977

  length of vectors
     6.959904262 10.257557740 10.219717854     0.143682216  0.097489322  0.097851273


 
 k-points in units of 2pi/SCALE and weight: k-points                                
   0.00000000  0.00000000  0.00000000       0.037
   0.23890959 -0.00025366 -0.00059853       0.074
  -0.00016858  0.16210223  0.00004631       0.074
   0.23874102  0.16184856 -0.00055222       0.074
  -0.23907817  0.16235589  0.00064485       0.074
  -0.00039816  0.00004125  0.16270367       0.074
   0.23851143 -0.00021241  0.16210514       0.074
  -0.23930776  0.00029491  0.16330220       0.074
  -0.00056674  0.16214348  0.16274998       0.074
   0.23834285  0.16188981  0.16215145       0.074
  -0.23947633  0.16239714  0.16334852       0.074
  -0.00022958 -0.16206098  0.16265736       0.074
   0.23868001 -0.16231464  0.16205882       0.074
  -0.23913918 -0.16180731  0.16325589       0.074
 
 k-points in reciprocal lattice and weights: k-points                                
   0.00000000  0.00000000  0.00000000       0.037
   0.33333333  0.00000000 -0.00000000       0.074
  -0.00000000  0.33333333  0.00000000       0.074
   0.33333333  0.33333333 -0.00000000       0.074
  -0.33333333  0.33333333  0.00000000       0.074
  -0.00000000 -0.00000000  0.33333333       0.074
   0.33333333  0.00000000  0.33333333       0.074
  -0.33333333 -0.00000000  0.33333333       0.074
  -0.00000000  0.33333333  0.33333333       0.074
   0.33333333  0.33333333  0.33333333       0.074
  -0.33333333  0.33333333  0.33333333       0.074
  -0.00000000 -0.33333333  0.33333333       0.074
   0.33333333 -0.33333333  0.33333333       0.074
  -0.33333333 -0.33333333  0.33333333       0.074
 
 position of ions in fractional coordinates (direct lattice) 
   0.25697800  0.16361100  0.50973000
   0.03298000  0.32417700  0.34063300
   0.01570500  0.32389400  0.67102900
   0.24609300  0.49369300  0.84108300
   0.28289000  0.85103700  0.51377300
   0.25155600  0.83530300  0.83659700
   0.22766000  0.81858800  0.14831200
   0.48203900  0.33908600  0.66547400
   0.48990200  0.32223000  0.99185500
   0.76966500  0.48557100  0.50008400
   0.99497100  0.00152100  0.99655100
   0.00936300  0.31183600  0.98991100
   0.00759100  0.67292600  0.66605000
   0.48243800  0.99793700  0.31351000
   0.75596400  0.49271000  0.16925200
   0.50792000  0.67653600  0.99692600
   0.75221900  0.82673200  0.83206400
   0.25693200  0.17605400  0.16596000
   0.22145500  0.49016300  0.50869000
   0.99165500  0.67617300  0.99195500
   0.49786800  0.00476500  0.68027300
   0.73575000  0.17929100  0.81949700
   0.77079600  0.83080800  0.16923100
   0.26655200  0.16653400  0.82158600
   0.72144600  0.84277200  0.49857500
   0.00337100  0.00047600  0.67199700
   0.75182100  0.48920600  0.83209900
   0.23648900  0.50459900  0.15046300
   0.01814400  0.67928400  0.34622500
   0.50461000  0.00113000  0.99989900
   0.74973600  0.17221200  0.49985800
   0.48238200  0.66603800  0.33463300
   0.48635000  0.65800900  0.66926000
   0.46902200  0.34443900  0.34241000
   0.02069200  0.99735700  0.33278100
   0.74897800  0.18331500  0.18176600
 
 position of ions in cartesian coordinates  (Angst):
   1.80336587  1.67863226  5.21323546
   0.24178554  3.32451534  3.48088932
   0.13000868  3.32053159  6.85713903
   1.73968300  5.06342801  8.59852388
   1.99129606  8.73011568  5.25322552
   1.78130823  8.56756272  8.55189211
   1.59719291  8.39792626  1.51747203
   3.37566035  3.47975341  6.80827128
   3.43855777  3.30596470 10.14395971
   5.37486313  4.98488978  5.12255876
   6.95040670  0.01991517 10.20137822
   0.09390126  3.19587757 10.11593577
   0.07720779  6.90070107  6.80521863
   3.37659832 10.23897276  3.20962087
   5.27111422  5.05897651  1.74130811
   3.56794714  6.94039244 10.19517861
   5.26565313  8.48327968  8.51411467
   1.79438064  1.80726124  1.69998140
   1.55965779  5.02800233  5.20116149
   6.93455333  6.94018221 10.15261554
   3.48256823  0.05051016  6.96064251
   5.14366209  1.84203742  8.38706991
   5.37802265  8.52714155  1.74047583
   1.87801509  1.70778206  8.40046119
   5.04311402  8.64855308  5.10539666
   0.04067006  0.00296274  6.86765410
   5.25921019  5.02108632  8.51533437
   1.65527914  5.17722552  1.54041313
   0.14253708  6.96692024  3.53687111
   3.53763460  0.01234797 10.22724384
   5.23274315  1.77045016  5.12071630
   3.37313677  6.83444011  3.42634463
   3.40923263  6.75114278  6.84621553
   3.27685142  3.53550262  3.50642338
   0.16338875 10.22962779  3.39870234
   5.21944526  1.88525459  1.86987465
 


--------------------------------------------------------------------------------------------------------


 k-point  1 :   0.0000 0.0000 0.0000  plane waves:    8647
 k-point  2 :   0.3333 0.0000-0.0000  plane waves:    8625
 k-point  3 :  -0.0000 0.3333 0.0000  plane waves:    8608
 k-point  4 :   0.3333 0.3333-0.0000  plane waves:    8605
 k-point  5 :  -0.3333 0.3333 0.0000  plane waves:    8605
 k-point  6 :  -0.0000-0.0000 0.3333  plane waves:    8609
 k-point  7 :   0.3333 0.0000 0.3333  plane waves:    8617
 k-point  8 :  -0.3333-0.0000 0.3333  plane waves:    8609
 k-point  9 :  -0.0000 0.3333 0.3333  plane waves:    8608
 k-point 10 :   0.3333 0.3333 0.3333  plane waves:    8609
 k-point 11 :  -0.3333 0.3333 0.3333  plane waves:    8611
 k-point 12 :  -0.0000-0.3333 0.3333  plane waves:    8603
 k-point 13 :   0.3333-0.3333 0.3333  plane waves:    8615
 k-point 14 :  -0.3333-0.3333 0.3333  plane waves:    8609

 maximum and minimum number of plane-waves per node :      1747     1697

 maximum number of plane-waves:      8647
 maximum index in each direction: 
   IXMAX=   10   IYMAX=   14   IZMAX=   14
   IXMIN=  -10   IYMIN=  -14   IZMIN=  -14

 WARNING: aliasing errors must be expected set NGX to  42 to avoid them
 NGY is ok and might be reduce to  58
 NGZ is ok and might be reduce to  58
 aliasing errors are usually negligible using standard VASP settings
 and one can safely disregard these warnings

 real space projection operators:
  total allocation   :      27306.28 KBytes
  max/ min on nodes  :       5514.19       5400.28


 parallel 3D FFT for wavefunctions:
    minimum data exchange during FFTs selected (reduces bandwidth)
 parallel 3D FFT for charge:
    minimum data exchange during FFTs selected (reduces bandwidth)


 total amount of memory used by VASP on root node    66497. kBytes
========================================================================

   base      :      30000. kBytes
   nonlr-proj:      10475. kBytes
   fftplans  :       2814. kBytes
   grid      :       5360. kBytes
   one-center:        124. kBytes
   wavefun   :      17724. kBytes
 
     INWAV:  cpu time    0.0000: real time    0.0000
 Broyden mixing: mesh for mixing (old mesh)
   NGX = 19   NGY = 29   NGZ = 29
  (NGX  = 80   NGY  =120   NGZ  =120)
  gives a total of  15979 points

 initial charge density was supplied:
 charge density of overlapping atoms calculated
 number of electron     281.0000000 magnetization 
 keeping initial charge density in first step


--------------------------------------------------------------------------------------------------------


 Maximum index for non-local projection operator         1216
 Maximum index for augmentation-charges          678 (set IRDMAX)


--------------------------------------------------------------------------------------------------------


 First call to EWALD:  gamma=   0.197
 Maximum number of real-space cells 3x 2x 2
 Maximum number of reciprocal cells 2x 3x 3

 FEWALD executed in parallel
    FEWALD:  cpu time    0.1305: real time    0.1309


----------------------------------------- Iteration    1(   1)  ---------------------------------------


    POTLOK:  cpu time    0.0508: real time    0.0711
    SETDIJ:  cpu time    0.2486: real time    0.2492
     EDDAV:  cpu time    1.0521: real time    1.0647
       DOS:  cpu time    0.0243: real time    0.0243
    --------------------------------------------
      LOOP:  cpu time    1.3817: real time    1.5628

 eigenvalue-minimisations  :  5248
 total energy-change (2. order) : 0.1668910E+04  (-0.1044254E+05)
 number of electron     281.0000000 magnetization 
 augmentation part      281.0000000 magnetization 

 Free energy of the ion-electron system (eV)
  ---------------------------------------------------
  alpha Z        PSCENC =      1417.70711067
  Ewald energy   TEWEN  =    -17918.85940019
  -Hartree energ DENC   =     -6479.98920827
  -exchange      EXHF   =         0.00000000
  -V(xc)+E(xc)   XCENC  =      -433.24818916
  PAW double counting   =     20084.96302182   -18430.00660725
  entropy T*S    EENTRO =         0.01069707
  eigenvalues    EBANDS =       -88.36344996
  atomic energy  EATOM  =     23516.69635308
  Solvation  Ediel_sol  =         0.00000000
  ---------------------------------------------------
  free energy    TOTEN  =      1668.91032781 eV

  energy without entropy =     1668.89963074  energy(sigma->0) =     1668.90676212


--------------------------------------------------------------------------------------------------------




----------------------------------------- Iteration    1(   2)  ---------------------------------------


     EDDAV:  cpu time    1.0041: real time    1.1270
       DOS:  cpu time    0.0011: real time    0.0011
    --------------------------------------------
      LOOP:  cpu time    1.0058: real time    1.2597

 eigenvalue-minimisations  :  5432
 total energy-change (2. order) :-0.1785200E+04  (-0.1727075E+04)
 number of electron     281.0000000 magnetization 
 augmentation part      281.0000000 magnetization 

 Free energy of the ion-electron system (eV)
  ---------------------------------------------------
  alpha Z        PSCENC =      1417.70711067
  Ewald energy   TEWEN  =    -17918.85940019
  -Hartree energ DENC   =     -6479.98920827
  -exchange      EXHF   =         0.00000000
  -V(xc)+E(xc)   XCENC  =      -433.24818916
  PAW double counting   =     20084.96302182   -18430.00660725
  entropy T*S    EENTRO =         0.00405482
  eigenvalues    EBANDS =     -1873.55684277
  atomic energy  EATOM  =     23516.69635308
  Solvation  Ediel_sol  =         0.00000000
  ---------------------------------------------------
  free energy    TOTEN  =      -116.28970725 eV

  energy without entropy =     -116.29376207  energy(sigma->0) =     -116.29105886


--------------------------------------------------------------------------------------------------------




----------------------------------------- Iteration    1(   3)  ---------------------------------------


     EDDAV:  cpu time    1.3972: real time    1.4024
       DOS:  cpu time    0.0011: real time    0.0011
    --------------------------------------------
      LOOP:  cpu time    1.3989: real time    1.4198

 eigenvalue-minimisations  :  7976
 total energy-change (2. order) :-0.2315325E+03  (-0.2196982E+03)
 number of electron     281.0000000 magnetization 
 augmentation part      281.0000000 magnetization 

 Free energy of the ion-electron system (eV)
  ---------------------------------------------------
  alpha Z        PSCENC =      1417.70711067
  Ewald energy   TEWEN  =    -17918.85940019
  -Hartree energ DENC   =     -6479.98920827
  -exchange      EXHF   =         0.00000000
  -V(xc)+E(xc)   XCENC  =      -433.24818916
  PAW double counting   =     20084.96302182   -18430.00660725
  entropy T*S    EENTRO =        -0.00019019
  eigenvalues    EBANDS =     -2105.08511841
  atomic energy  EATOM  =     23516.69635308
  Solvation  Ediel_sol  =         0.00000000
  ---------------------------------------------------
  free energy    TOTEN  =      -347.82222790 eV

  energy without entropy =     -347.82203771  energy(sigma->0) =     -347.82216450


--------------------------------------------------------------------------------------------------------




----------------------------------------- Iteration    1(   4)  ---------------------------------------


     EDDAV:  cpu time    1.3855: real time    1.3901
       DOS:  cpu time    0.0010: real time    0.0010
    --------------------------------------------
      LOOP:  cpu time    1.3869: real time    1.4060

 eigenvalue-minimisations  :  8032
 total energy-change (2. order) :-0.2818888E+02  (-0.2674740E+02)
 number of electron     281.0000000 magnetization 
 augmentation part      281.0000000 magnetization 

 Free energy of the ion-electron system (eV)
  ---------------------------------------------------
  alpha Z        PSCENC =      1417.70711067
  Ewald energy   TEWEN  =    -17918.85940019
  -Hartree energ DENC   =     -6479.98920827
  -exchange      EXHF   =         0.00000000
  -V(xc)+E(xc)   XCENC  =      -433.24818916
  PAW double counting   =     20084.96302182   -18430.00660725
  entropy T*S    EENTRO =         0.00943837
  eigenvalues    EBANDS =     -2133.28362969
  atomic energy  EATOM  =     23516.69635308
  Solvation  Ediel_sol  =         0.00000000
  ---------------------------------------------------
  free energy    TOTEN  =      -376.01111062 eV

  energy without entropy =     -376.02054899  energy(sigma->0) =     -376.01425674


--------------------------------------------------------------------------------------------------------




----------------------------------------- Iteration    1(   5)  ---------------------------------------


     EDDAV:  cpu time    1.2495: real time    1.2549
       DOS:  cpu time    0.0010: real time    0.0010
    CHARGE:  cpu time    0.0299: real time    0.0302
    MIXING:  cpu time    0.0018: real time    0.0019
    --------------------------------------------
      LOOP:  cpu time    1.2827: real time    1.3084

 eigenvalue-minimisations  :  7600
 total energy-change (2. order) :-0.2878203E+01  (-0.2787830E+01)
 number of electron     280.9999993 magnetization 
 augmentation part       16.2572140 magnetization 

 Broyden mixing:
  rms(total) = 0.63838E+01    rms(broyden)= 0.63834E+01
  rms(prec ) = 0.66444E+01
  weight for this iteration     100.00

 Free energy of the ion-electron system (eV)
  ---------------------------------------------------
  alpha Z        PSCENC =      1417.70711067
  Ewald energy   TEWEN  =    -17918.85940019
  -Hartree energ DENC   =     -6479.98920827
  -exchange      EXHF   =         0.00000000
  -V(xc)+E(xc)   XCENC  =      -433.24818916
  PAW double counting   =     20084.96302182   -18430.00660725
  entropy T*S    EENTRO =         0.01083751
  eigenvalues    EBANDS =     -2136.16323135
  atomic energy  EATOM  =     23516.69635308
  Solvation  Ediel_sol  =         0.00000000
  ---------------------------------------------------
  free energy    TOTEN  =      -378.88931314 eV

  energy without entropy =     -378.90015064  energy(sigma->0) =     -378.89292564


--------------------------------------------------------------------------------------------------------




----------------------------------------- Iteration    1(   6)  ---------------------------------------


    POTLOK:  cpu time    0.0309: real time    0.0310
    SETDIJ:  cpu time    0.0036: real time    0.0036
    EDDIAG:  cpu time    0.0729: real time    0.0731
  RMM-DIIS:  cpu time    0.6772: real time    0.6794
    ORTHCH:  cpu time    0.0111: real time    0.0111
       DOS:  cpu time    0.0009: real time    0.0009
    CHARGE:  cpu time    0.0285: real time    0.0286
    MIXING:  cpu time    0.0016: real time    0.0023
    --------------------------------------------
      LOOP:  cpu time    0.8273: real time    0.8471

 eigenvalue-minimisations  :  6552
 total energy-change (2. order) : 0.1039225E+02  (-0.2100098E+01)
 number of electron     280.9999994 magnetization 
 augmentation part       16.8919255 magnetization 

 Broyden mixing:
  rms(total) = 0.30782E+01    rms(broyden)= 0.30782E+01
  rms(prec ) = 0.32727E+01
  weight for this iteration     100.00

 eigenvalues of (default mixing * dielectric matrix)
  average eigenvalue GAMMA=   1.8651
  1.8651

 Free energy of the ion-electron system (eV)
  ---------------------------------------------------
  alpha Z        PSCENC =      1417.70711067
  Ewald energy   TEWEN  =    -17918.85940019
  -Hartree energ DENC   =     -6339.13599076
  -exchange      EXHF   =         0.00000000
  -V(xc)+E(xc)   XCENC  =      -434.98880704
  PAW double counting   =     25308.13534260   -23660.09151521
  entropy T*S    EENTRO =         0.01771405
  eigenvalues    EBANDS =     -2257.97787384
  atomic energy  EATOM  =     23516.69635308
  Solvation  Ediel_sol  =         0.00000000
  ---------------------------------------------------
  free energy    TOTEN  =      -368.49706665 eV

  energy without entropy =     -368.51478069  energy(sigma->0) =     -368.50297133


--------------------------------------------------------------------------------------------------------




----------------------------------------- Iteration    1(   7)  ---------------------------------------


    POTLOK:  cpu time    0.0293: real time    0.0295
    SETDIJ:  cpu time    0.0038: real time    0.0038
    EDDIAG:  cpu time    0.0737: real time    0.0740
  RMM-DIIS:  cpu time    0.7057: real time    0.7102
    ORTHCH:  cpu time    0.0110: real time    0.0110
       DOS:  cpu time    0.0009: real time    0.0009
    CHARGE:  cpu time    0.0285: real time    0.0286
    MIXING:  cpu time    0.0013: real time    0.0013
    --------------------------------------------
      LOOP:  cpu time    0.8549: real time    0.8758

 eigenvalue-minimisations  :  6805
 total energy-change (2. order) : 0.9808417E+00  (-0.2155814E+01)
 number of electron     280.9999993 magnetization 
 augmentation part       17.4760388 magnetization 

 Broyden mixing:
  rms(total) = 0.87378E+00    rms(broyden)= 0.87342E+00
  rms(prec ) = 0.23403E+01
  weight for this iteration     100.00

 eigenvalues of (default mixing * dielectric matrix)
  average eigenvalue GAMMA=   1.2300
  1.8596  0.6003

 Free energy of the ion-electron system (eV)
  ---------------------------------------------------
  alpha Z        PSCENC =      1417.70711067
  Ewald energy   TEWEN  =    -17918.85940019
  -Hartree energ DENC   =     -6253.91128460
  -exchange      EXHF   =         0.00000000
  -V(xc)+E(xc)   XCENC  =      -433.16125709
  PAW double counting   =     30914.54595576   -29261.56258817
  entropy T*S    EENTRO =         0.02700204
  eigenvalues    EBANDS =     -2348.99811645
  atomic energy  EATOM  =     23516.69635308
  Solvation  Ediel_sol  =         0.00000000
  ---------------------------------------------------
  free energy    TOTEN  =      -367.51622495 eV

  energy without entropy =     -367.54322700  energy(sigma->0) =     -367.52522563


--------------------------------------------------------------------------------------------------------




----------------------------------------- Iteration    1(   8)  ---------------------------------------


    POTLOK:  cpu time    0.0296: real time    0.0297
    SETDIJ:  cpu time    0.0038: real time    0.0038
    EDDIAG:  cpu time    0.0714: real time    0.0717
  RMM-DIIS:  cpu time    0.8119: real time    0.8401
    ORTHCH:  cpu time    0.0108: real time    0.0110
       DOS:  cpu time    0.0038: real time    0.0038
    CHARGE:  cpu time    0.0408: real time    0.0409
    MIXING:  cpu time    0.0012: real time    0.0012
    --------------------------------------------
      LOOP:  cpu time    0.9739: real time    1.0189

 eigenvalue-minimisations  :  7393
 total energy-change (2. order) : 0.3148747E+01  (-0.4670616E+00)
 number of electron     280.9999994 magnetization 
 augmentation part       17.2424246 magnetization 

 Broyden mixing:
  rms(total) = 0.39765E+00    rms(broyden)= 0.39718E+00
  rms(prec ) = 0.65255E+00
  weight for this iteration     100.00

 eigenvalues of (default mixing * dielectric matrix)
  average eigenvalue GAMMA=   1.1821
  1.7280  1.4206  0.3977

 Free energy of the ion-electron system (eV)
  ---------------------------------------------------
  alpha Z        PSCENC =      1417.70711067
  Ewald energy   TEWEN  =    -17918.85940019
  -Hartree energ DENC   =     -6250.73387995
  -exchange      EXHF   =         0.00000000
  -V(xc)+E(xc)   XCENC  =      -432.70520852
  PAW double counting   =     31504.94368271   -29849.93366833
  entropy T*S    EENTRO =         0.02589353
  eigenvalues    EBANDS =     -2351.50836094
  atomic energy  EATOM  =     23516.69635308
  Solvation  Ediel_sol  =         0.00000000
  ---------------------------------------------------
  free energy    TOTEN  =      -364.36747793 eV

  energy without entropy =     -364.39337146  energy(sigma->0) =     -364.37610911


--------------------------------------------------------------------------------------------------------




----------------------------------------- Iteration    1(   9)  ---------------------------------------


    POTLOK:  cpu time    0.0288: real time    0.0289
    SETDIJ:  cpu time    0.0038: real time    0.0038
    EDDIAG:  cpu time    0.0716: real time    0.0720
  RMM-DIIS:  cpu time    0.7467: real time    0.7540
    ORTHCH:  cpu time    0.0109: real time    0.0110
       DOS:  cpu time    0.0047: real time    0.0047
    CHARGE:  cpu time    0.0289: real time    0.0290
    MIXING:  cpu time    0.0013: real time    0.0013
    --------------------------------------------
      LOOP:  cpu time    0.8974: real time    0.9221

 eigenvalue-minimisations  :  7258
 total energy-change (2. order) : 0.1210694E+00  (-0.1681774E+00)
 number of electron     280.9999994 magnetization 
 augmentation part       17.1276474 magnetization 

 Broyden mixing:
  rms(total) = 0.26071E+00    rms(broyden)= 0.26061E+00
  rms(prec ) = 0.37151E+00
  weight for this iteration     100.00

 eigenvalues of (default mixing * dielectric matrix)
  average eigenvalue GAMMA=   1.1565
  1.8715  1.8715  0.4937  0.3892

 Free energy of the ion-electron system (eV)
  ---------------------------------------------------
  alpha Z        PSCENC =      1417.70711067
  Ewald energy   TEWEN  =    -17918.85940019
  -Hartree energ DENC   =     -6260.04327195
  -exchange      EXHF   =         0.00000000
  -V(xc)+E(xc)   XCENC  =      -431.99419609
  PAW double counting   =     31631.05098096   -29972.17244001
  entropy T*S    EENTRO =         0.02508253
  eigenvalues    EBANDS =     -2346.65662753
  atomic energy  EATOM  =     23516.69635308
  Solvation  Ediel_sol  =         0.00000000
  ---------------------------------------------------
  free energy    TOTEN  =      -364.24640852 eV

  energy without entropy =     -364.27149106  energy(sigma->0) =     -364.25476937


--------------------------------------------------------------------------------------------------------




----------------------------------------- Iteration    1(  10)  ---------------------------------------


    POTLOK:  cpu time    0.0292: real time    0.0296
    SETDIJ:  cpu time    0.0039: real time    0.0039
    EDDIAG:  cpu time    0.0753: real time    0.0755
  RMM-DIIS:  cpu time    0.6672: real time    0.8172
    ORTHCH:  cpu time    0.0110: real time    0.0111
       DOS:  cpu time    0.0021: real time    0.0021
    CHARGE:  cpu time    0.0293: real time    0.0294
    MIXING:  cpu time    0.0014: real time    0.0014
    --------------------------------------------
      LOOP:  cpu time    0.8200: real time    0.9875

 eigenvalue-minimisations  :  7270
 total energy-change (2. order) : 0.6438184E-01  (-0.3648435E-01)
 number of electron     280.9999994 magnetization 
 augmentation part       17.0588324 magnetization 

 Broyden mixing:
  rms(total) = 0.12125E+00    rms(broyden)= 0.12118E+00
  rms(prec ) = 0.19993E+00
  weight for this iteration     100.00

 eigenvalues of (default mixing * dielectric matrix)
  average eigenvalue GAMMA=   1.1208
  1.9711  1.9711  0.8004  0.3955  0.4657

 Free energy of the ion-electron system (eV)
  ---------------------------------------------------
  alpha Z        PSCENC =      1417.70711067
  Ewald energy   TEWEN  =    -17918.85940019
  -Hartree energ DENC   =     -6270.04914968
  -exchange      EXHF   =         0.00000000
  -V(xc)+E(xc)   XCENC  =      -431.12195931
  PAW double counting   =     31818.85537131   -30153.83108789
  entropy T*S    EENTRO =         0.02783097
  eigenvalues    EBANDS =     -2343.60709565
  atomic energy  EATOM  =     23516.69635308
  Solvation  Ediel_sol  =         0.00000000
  ---------------------------------------------------
  free energy    TOTEN  =      -364.18202668 eV

  energy without entropy =     -364.20985766  energy(sigma->0) =     -364.19130367


--------------------------------------------------------------------------------------------------------




----------------------------------------- Iteration    1(  11)  ---------------------------------------


    POTLOK:  cpu time    0.0579: real time    0.0582
    SETDIJ:  cpu time    0.0037: real time    0.0039
    EDDIAG:  cpu time    0.0941: real time    0.0958
  RMM-DIIS:  cpu time    0.7519: real time    0.7826
    ORTHCH:  cpu time    0.0109: real time    0.0109
       DOS:  cpu time    0.0011: real time    0.0011
    CHARGE:  cpu time    0.0286: real time    0.0288
    MIXING:  cpu time    0.0014: real time    0.0014
    --------------------------------------------
      LOOP:  cpu time    0.9503: real time    1.0236

 eigenvalue-minimisations  :  7273
 total energy-change (2. order) : 0.2063539E-01  (-0.1089966E-01)
 number of electron     280.9999994 magnetization 
 augmentation part       17.0402983 magnetization 

 Broyden mixing:
  rms(total) = 0.59569E-01    rms(broyden)= 0.59531E-01
  rms(prec ) = 0.92018E-01
  weight for this iteration     100.00

 eigenvalues of (default mixing * dielectric matrix)
  average eigenvalue GAMMA=   1.1175
  2.2381  1.8827  1.2060  0.3773  0.5183  0.4828

 Free energy of the ion-electron system (eV)
  ---------------------------------------------------
  alpha Z        PSCENC =      1417.70711067
  Ewald energy   TEWEN  =    -17918.85940019
  -Hartree energ DENC   =     -6272.49048761
  -exchange      EXHF   =         0.00000000
  -V(xc)+E(xc)   XCENC  =      -430.81012962
  PAW double counting   =     31964.54226411   -30296.68804690
  entropy T*S    EENTRO =         0.02765579
  eigenvalues    EBANDS =     -2344.28671063
  atomic energy  EATOM  =     23516.69635308
  Solvation  Ediel_sol  =         0.00000000
  ---------------------------------------------------
  free energy    TOTEN  =      -364.16139129 eV

  energy without entropy =     -364.18904708  energy(sigma->0) =     -364.17060989


--------------------------------------------------------------------------------------------------------




----------------------------------------- Iteration    1(  12)  ---------------------------------------


    POTLOK:  cpu time    0.0292: real time    0.0294
    SETDIJ:  cpu time    0.0038: real time    0.0038
    EDDIAG:  cpu time    0.0703: real time    0.0707
  RMM-DIIS:  cpu time    0.8471: real time    0.8529
    ORTHCH:  cpu time    0.0108: real time    0.0109
       DOS:  cpu time    0.0010: real time    0.0010
    CHARGE:  cpu time    0.0284: real time    0.0285
    MIXING:  cpu time    0.0015: real time    0.0015
    --------------------------------------------
      LOOP:  cpu time    0.9927: real time    1.0129

 eigenvalue-minimisations  :  7372
 total energy-change (2. order) :-0.3877026E-03  (-0.4681182E-02)
 number of electron     280.9999994 magnetization 
 augmentation part       17.0378706 magnetization 

 Broyden mixing:
  rms(total) = 0.36319E-01    rms(broyden)= 0.36305E-01
  rms(prec ) = 0.64403E-01
  weight for this iteration     100.00

 eigenvalues of (default mixing * dielectric matrix)
  average eigenvalue GAMMA=   1.0783
  2.3225  1.8477  1.4258  0.5792  0.5792  0.3709  0.4227

 Free energy of the ion-electron system (eV)
  ---------------------------------------------------
  alpha Z        PSCENC =      1417.70711067
  Ewald energy   TEWEN  =    -17918.85940019
  -Hartree energ DENC   =     -6273.54899383
  -exchange      EXHF   =         0.00000000
  -V(xc)+E(xc)   XCENC  =      -430.68086622
  PAW double counting   =     32077.29953835   -30407.86680626
  entropy T*S    EENTRO =         0.02813017
  eigenvalues    EBANDS =     -2344.93684477
  atomic energy  EATOM  =     23516.69635308
  Solvation  Ediel_sol  =         0.00000000
  ---------------------------------------------------
  free energy    TOTEN  =      -364.16177899 eV

  energy without entropy =     -364.18990916  energy(sigma->0) =     -364.17115571


--------------------------------------------------------------------------------------------------------




----------------------------------------- Iteration    1(  13)  ---------------------------------------


    POTLOK:  cpu time    0.0288: real time    0.0291
    SETDIJ:  cpu time    0.0214: real time    0.0215
    EDDIAG:  cpu time    0.0705: real time    0.0710
  RMM-DIIS:  cpu time    0.7579: real time    0.7646
    ORTHCH:  cpu time    0.0109: real time    0.0109
       DOS:  cpu time    0.0011: real time    0.0011
    CHARGE:  cpu time    0.0964: real time    0.0968
    MIXING:  cpu time    0.0014: real time    0.0015
    --------------------------------------------
      LOOP:  cpu time    0.9892: real time    1.0159

 eigenvalue-minimisations  :  7418
 total energy-change (2. order) : 0.3919629E-03  (-0.1874054E-02)
 number of electron     280.9999994 magnetization 
 augmentation part       17.0381137 magnetization 

 Broyden mixing:
  rms(total) = 0.21113E-01    rms(broyden)= 0.21103E-01
  rms(prec ) = 0.30941E-01
  weight for this iteration     100.00

 eigenvalues of (default mixing * dielectric matrix)
  average eigenvalue GAMMA=   1.0847
  2.3695  1.8997  1.6937  0.8911  0.5825  0.4649  0.3763  0.3999

 Free energy of the ion-electron system (eV)
  ---------------------------------------------------
  alpha Z        PSCENC =      1417.70711067
  Ewald energy   TEWEN  =    -17918.85940019
  -Hartree energ DENC   =     -6274.27968423
  -exchange      EXHF   =         0.00000000
  -V(xc)+E(xc)   XCENC  =      -430.63913302
  PAW double counting   =     32131.79545692   -30461.65556016
  entropy T*S    EENTRO =         0.02788382
  eigenvalues    EBANDS =     -2344.95441392
  atomic energy  EATOM  =     23516.69635308
  Solvation  Ediel_sol  =         0.00000000
  ---------------------------------------------------
  free energy    TOTEN  =      -364.16138703 eV

  energy without entropy =     -364.18927084  energy(sigma->0) =     -364.17068163


--------------------------------------------------------------------------------------------------------




----------------------------------------- Iteration    1(  14)  ---------------------------------------


    POTLOK:  cpu time    0.0291: real time    0.0293
    SETDIJ:  cpu time    0.0307: real time    0.0308
    EDDIAG:  cpu time    0.0786: real time    0.0789
  RMM-DIIS:  cpu time    0.7718: real time    0.7752
    ORTHCH:  cpu time    0.0109: real time    0.0109
       DOS:  cpu time    0.0026: real time    0.0026
    CHARGE:  cpu time    0.0286: real time    0.0288
    MIXING:  cpu time    0.0015: real time    0.0015
    --------------------------------------------
      LOOP:  cpu time    0.9544: real time    0.9816

 eigenvalue-minimisations  :  7428
 total energy-change (2. order) :-0.4282006E-03  (-0.9274484E-03)
 number of electron     280.9999994 magnetization 
 augmentation part       17.0383512 magnetization 

 Broyden mixing:
  rms(total) = 0.12041E-01    rms(broyden)= 0.12037E-01
  rms(prec ) = 0.17407E-01
  weight for this iteration     100.00

 eigenvalues of (default mixing * dielectric matrix)
  average eigenvalue GAMMA=   1.0921
  2.5550  2.1105  1.5760  1.2149  0.5940  0.5864  0.4477  0.3783  0.3660

 Free energy of the ion-electron system (eV)
  ---------------------------------------------------
  alpha Z        PSCENC =      1417.70711067
  Ewald energy   TEWEN  =    -17918.85940019
  -Hartree energ DENC   =     -6274.08444523
  -exchange      EXHF   =         0.00000000
  -V(xc)+E(xc)   XCENC  =      -430.65145790
  PAW double counting   =     32162.77541032   -30492.24172528
  entropy T*S    EENTRO =         0.02792110
  eigenvalues    EBANDS =     -2345.53158181
  atomic energy  EATOM  =     23516.69635308
  Solvation  Ediel_sol  =         0.00000000
  ---------------------------------------------------
  free energy    TOTEN  =      -364.16181523 eV

  energy without entropy =     -364.18973633  energy(sigma->0) =     -364.17112226


--------------------------------------------------------------------------------------------------------




----------------------------------------- Iteration    1(  15)  ---------------------------------------


    POTLOK:  cpu time    0.0284: real time    0.0287
    SETDIJ:  cpu time    0.0037: real time    0.0037
    EDDIAG:  cpu time    0.0722: real time    0.0727
  RMM-DIIS:  cpu time    0.8565: real time    0.8681
    ORTHCH:  cpu time    0.0114: real time    0.0131
       DOS:  cpu time    0.0143: real time    0.0143
    CHARGE:  cpu time    0.0538: real time    0.0556
    MIXING:  cpu time    0.0019: real time    0.0020
    --------------------------------------------
      LOOP:  cpu time    1.0429: real time    1.1159

 eigenvalue-minimisations  :  7261
 total energy-change (2. order) :-0.2090165E-03  (-0.4101493E-03)
 number of electron     280.9999994 magnetization 
 augmentation part       17.0362028 magnetization 

 Broyden mixing:
  rms(total) = 0.49327E-02    rms(broyden)= 0.49294E-02
  rms(prec ) = 0.78222E-02
  weight for this iteration     100.00

 eigenvalues of (default mixing * dielectric matrix)
  average eigenvalue GAMMA=   1.0675
  2.6631  2.0874  1.6345  1.2629  0.7322  0.6371  0.4735  0.4512  0.3741  0.3588

 Free energy of the ion-electron system (eV)
  ---------------------------------------------------
  alpha Z        PSCENC =      1417.70711067
  Ewald energy   TEWEN  =    -17918.85940019
  -Hartree energ DENC   =     -6274.43909832
  -exchange      EXHF   =         0.00000000
  -V(xc)+E(xc)   XCENC  =      -430.64508334
  PAW double counting   =     32176.26899211   -30505.44584721
  entropy T*S    EENTRO =         0.02791122
  eigenvalues    EBANDS =     -2345.47296227
  atomic energy  EATOM  =     23516.69635308
  Solvation  Ediel_sol  =         0.00000000
  ---------------------------------------------------
  free energy    TOTEN  =      -364.16202424 eV

  energy without entropy =     -364.18993546  energy(sigma->0) =     -364.17132798


--------------------------------------------------------------------------------------------------------




----------------------------------------- Iteration    1(  16)  ---------------------------------------


    POTLOK:  cpu time    0.0292: real time    0.0354
    SETDIJ:  cpu time    0.0210: real time    0.0211
    EDDIAG:  cpu time    0.0848: real time    0.0853
  RMM-DIIS:  cpu time    0.6839: real time    0.6876
    ORTHCH:  cpu time    0.0116: real time    0.0117
       DOS:  cpu time    0.0010: real time    0.0010
    CHARGE:  cpu time    0.0295: real time    0.0299
    MIXING:  cpu time    0.0017: real time    0.0018
    --------------------------------------------
      LOOP:  cpu time    0.8634: real time    0.8920

 eigenvalue-minimisations  :  6382
 total energy-change (2. order) :-0.1495488E-03  (-0.1988413E-03)
 number of electron     280.9999994 magnetization 
 augmentation part       17.0358052 magnetization 

 Broyden mixing:
  rms(total) = 0.25099E-02    rms(broyden)= 0.25086E-02
  rms(prec ) = 0.43946E-02
  weight for this iteration     100.00

 eigenvalues of (default mixing * dielectric matrix)
  average eigenvalue GAMMA=   1.0344
  2.6614  2.0434  1.6722  1.2739  0.8710  0.6247  0.5312  0.5312  0.4306  0.3793
  0.3590

 Free energy of the ion-electron system (eV)
  ---------------------------------------------------
  alpha Z        PSCENC =      1417.70711067
  Ewald energy   TEWEN  =    -17918.85940019
  -Hartree energ DENC   =     -6274.73025560
  -exchange      EXHF   =         0.00000000
  -V(xc)+E(xc)   XCENC  =      -430.63775632
[...]
     90       5.0706      2.00000
     91       5.1202      2.00000
     92       5.1522      2.00000
     93       5.1969      2.00000
     94       5.2441      2.00000
     95       5.2767      2.00000
     96       5.3446      2.00000
     97       5.3998      2.00000
     98       5.4510      2.00000
     99       5.5048      2.00000
    100       5.5734      2.00000
    101       5.6310      2.00000
    102       5.8116      2.00000
    103       5.8693      2.00000
    104       5.8885      2.00000
    105       5.9297      2.00000
    106       5.9706      2.00000
    107       5.9976      2.00000
    108       6.0371      2.00000
    109       6.0638      2.00000
    110       6.1084      2.00000
    111       6.1409      2.00000
    112       6.1675      2.00000
    113       6.2176      2.00000
    114       6.2220      2.00000
    115       6.2428      2.00000
    116       6.2906      2.00000
    117       6.3098      2.00000
    118       6.3725      2.00000
    119       6.3991      2.00000
    120       6.4555      2.00000
    121       6.4812      2.00000
    122       6.5154      2.00000
    123       6.6103      2.00000
    124       6.6277      2.00000
    125       6.6542      2.00000
    126       6.6968      2.00000
    127       6.7384      2.00000
    128       6.7592      2.00000
    129       6.8245      2.00007
    130       6.8545      2.00021
    131       6.8795      2.00052
    132       6.9281      2.00245
    133       6.9696      2.00764
    134       6.9989      2.01520
    135       7.0221      2.02442
    136       7.0795      2.05723
    137       7.1110      2.07037
    138       7.1414      2.06129
    139       7.1599      2.03605
    140       7.2068      1.86566
    141       7.2551      1.49375
    142       7.2769      1.26995
    143       7.3312      0.66879
    144       7.3728      0.28491
    145       7.4178      0.03204
    146       7.4524     -0.05192
    147       7.4807     -0.07066
    148       7.5371     -0.04864
    149       7.5535     -0.03865
    150       7.6046     -0.01484
    151       7.6199     -0.01047
    152       7.6589     -0.00382
    153       7.6801     -0.00206
    154       7.7036     -0.00098
    155       7.7713     -0.00009
    156       7.8177     -0.00001
    157       7.8627     -0.00000
    158       7.9115     -0.00000
    159       7.9404     -0.00000
    160       8.0153     -0.00000
    161       8.0487     -0.00000
    162       8.0980     -0.00000
    163       8.1167     -0.00000
    164       8.1760     -0.00000
    165       8.4754     -0.00000
    166       8.5817     -0.00000
    167       8.6377     -0.00000
    168       9.2177     -0.00000


--------------------------------------------------------------------------------------------------------


 soft charge-density along one line, spin component           1
         0         1         2         3         4         5         6         7         8         9
 total charge-density along one line
 
 pseudopotential strength for first ion, spin component:           1
 -6.421   0.004  -0.001   0.001  -0.000  -7.629   0.004  -0.002
  0.004  -6.415  -0.000  -0.002  -0.000   0.004  -7.621  -0.000
 -0.001  -0.000  -6.424   0.001   0.004  -0.002  -0.000  -7.633
  0.001  -0.002   0.001  -6.423   0.001   0.001  -0.003   0.001
 -0.000  -0.000   0.004   0.001  -6.425  -0.000  -0.000   0.006
 -7.629   0.004  -0.002   0.001  -0.000  -9.043   0.006  -0.002
  0.004  -7.621  -0.000  -0.003  -0.000   0.006  -9.033  -0.000
 -0.002  -0.000  -7.633   0.001   0.006  -0.002  -0.000  -9.047
  0.001  -0.003   0.001  -7.632   0.002   0.001  -0.003   0.001
 -0.000  -0.000   0.006   0.002  -7.634  -0.000  -0.000   0.007
 -0.000   0.000  -0.001  -0.002   0.003  -0.000   0.000  -0.001
 -0.000   0.000  -0.001  -0.003   0.005  -0.000   0.000  -0.001
  0.000  -0.006  -0.000  -0.000  -0.002   0.000  -0.007  -0.000
 -0.000   0.000  -0.006   0.000  -0.000  -0.000   0.001  -0.008
 -0.001  -0.000  -0.000  -0.006   0.001  -0.001  -0.000  -0.000
  0.001   0.007   0.002   0.000   0.005   0.001   0.008   0.002
  0.000  -0.002   0.007   0.000   0.000   0.000  -0.003   0.009
 -0.000   0.000  -0.000   0.007  -0.000  -0.001   0.000  -0.000
 total augmentation occupancy for first ion, spin component:           1
  4.803   0.201  -0.147  -0.003   0.022  -2.477  -0.111   0.063   0.002  -0.017   0.008   0.006  -0.022   0.000   0.111  -0.001
  0.201   5.233  -0.015  -0.171   0.041  -0.111  -2.724   0.007   0.091  -0.025  -0.036   0.002   0.032   0.090   0.006   0.005
 -0.147  -0.015   4.860   0.001   0.144   0.062   0.007  -2.665  -0.009  -0.093   0.046  -0.011  -0.010   0.055   0.006  -0.001
 -0.003  -0.171   0.001   4.819  -0.002   0.002   0.092  -0.009  -2.475  -0.013   0.110  -0.041   0.006  -0.053   0.087  -0.000
  0.022   0.041   0.144  -0.002   4.816  -0.017  -0.025  -0.093  -0.012  -2.631  -0.173   0.058  -0.004   0.018  -0.028  -0.000
 -2.477  -0.111   0.062   0.002  -0.017   1.299   0.061  -0.025  -0.001   0.012  -0.001  -0.003   0.013  -0.001  -0.058   0.000
 -0.111  -2.724   0.007   0.092  -0.025   0.061   1.441  -0.004  -0.049   0.015   0.018  -0.001  -0.019  -0.052  -0.002  -0.003
  0.063   0.007  -2.665  -0.009  -0.093  -0.025  -0.004   1.474   0.009   0.060  -0.032   0.007   0.008  -0.032  -0.005   0.000
  0.002   0.091  -0.009  -2.475  -0.012  -0.001  -0.049   0.009   1.292   0.014  -0.066   0.022  -0.003   0.027  -0.044   0.000
 -0.017  -0.025  -0.093  -0.013  -2.631   0.012   0.015   0.060   0.014   1.451   0.112  -0.033   0.010  -0.009   0.017   0.000
  0.008  -0.036   0.046   0.110  -0.173  -0.001   0.018  -0.032  -0.066   0.112   2.228  -0.240   0.016   0.022  -0.007   0.000
  0.006   0.002  -0.011  -0.041   0.058  -0.003  -0.001   0.007   0.022  -0.033  -0.240   0.028  -0.001   0.001  -0.000   0.000
 -0.022   0.032  -0.010   0.006  -0.004   0.013  -0.019   0.008  -0.003   0.010   0.016  -0.001   0.324   0.003  -0.008   0.008
  0.000   0.090   0.055  -0.053   0.018  -0.001  -0.052  -0.032   0.027  -0.009   0.022   0.001   0.003   0.306   0.013   0.000
  0.111   0.006   0.006   0.087  -0.028  -0.058  -0.002  -0.005  -0.044   0.017  -0.007  -0.000  -0.008   0.013   0.281  -0.000
 -0.001   0.005  -0.001  -0.000  -0.000   0.000  -0.003   0.000   0.000   0.000   0.000   0.000   0.008   0.000  -0.000   0.000
 -0.000   0.002   0.005  -0.001   0.000   0.000  -0.001  -0.003   0.001  -0.000   0.002  -0.000   0.000   0.008   0.000   0.000
  0.003  -0.000   0.001   0.006  -0.002  -0.002   0.000  -0.000  -0.003   0.001  -0.000  -0.000  -0.000   0.000   0.007  -0.000


------------------------ aborting loop because EDIFF is reached ----------------------------------------


    CHARGE:  cpu time    0.0273: real time    0.0274
    FORLOC:  cpu time    0.0133: real time    0.0134
    FORNL :  cpu time    0.2936: real time    0.2954
    STRESS:  cpu time    0.9013: real time    0.9066
    FORCOR:  cpu time    0.0434: real time    0.0454
    FORHAR:  cpu time    0.0178: real time    0.0190
    MIXING:  cpu time    0.0014: real time    0.0014
    OFIELD:  cpu time    0.0000: real time    0.0000

  FORCE on cell =-STRESS in cart. coord.  units (eV):
  Direction    XX          YY          ZZ          XY          YZ          ZX
  --------------------------------------------------------------------------------------
  Alpha Z  1416.03105  1416.03105  1416.03105
  Ewald   -5456.23631 -5632.37730 -6823.66570  -354.28215   120.99433    51.20615
  Hartree  2563.67848  2428.80790  1283.52126  -291.55131    85.36234    53.92377
  E(xc)   -1223.40895 -1223.94156 -1223.92081    -0.32161     0.25473    -0.07187
  Local   -1872.67162 -1564.00904   771.34742   645.51836  -205.73775  -104.21991
  n-local  -256.70813  -256.84191  -257.39747     0.45270    -1.27851     1.39785
  augment   206.85417   206.82986   207.16006    -0.11935     0.00787    -0.38835
  Kinetic  4622.29955  4625.36506  4626.76404     0.24484     0.33252    -1.83439
  Fock        0.00000     0.00000     0.00000     0.00000     0.00000     0.00000
  -------------------------------------------------------------------------------------
  Total      -0.16175    -0.13594    -0.16014    -0.05852    -0.06447     0.01325
  in kB      -0.35479    -0.29817    -0.35126    -0.12836    -0.14141     0.02907
  external pressure =       -0.33 kB  Pullay stress =        0.00 kB


 VOLUME and BASIS-vectors are now :
 -----------------------------------------------------------------------------
  energy-cutoff  :      300.00
  volume of cell :      730.46
      direct lattice vectors                 reciprocal lattice vectors
     6.964505143  0.004483507  0.017768452     0.143586238 -0.000095717 -0.000375196
     0.006834576 10.262628067 -0.002539306    -0.000062799  0.097440976  0.000027552
     0.026703155 -0.002872522 10.219927052    -0.000249656  0.000024377  0.097848716

  length of vectors
     6.964529253 10.262630657 10.219962341     0.143586760  0.097441001  0.097849037


 FORCES acting on ions
    electron-ion (+dipol)            ewald-force                    non-local-force                 convergence-correction
 -----------------------------------------------------------------------------------------------
   0.392E+02 0.110E+01 0.674E+02   -.394E+02 -.770E+00 -.667E+02   0.231E+00 -.319E+00 -.701E+00   0.385E-02 -.144E-01 -.528E-02
   0.315E+02 0.338E+02 -.250E+02   -.305E+02 -.344E+02 0.253E+02   -.100E+01 0.596E+00 -.229E+00   0.305E-02 -.847E-02 -.534E-02
   0.256E+02 0.137E+01 0.815E+02   -.247E+02 -.178E+01 -.811E+02   -.888E+00 0.414E+00 -.372E+00   0.295E-02 -.858E-02 -.172E-02
   -.521E+02 -.556E+01 0.319E+02   0.523E+02 0.489E+01 -.319E+02   -.177E+00 0.658E+00 -.240E-02   -.328E-02 0.565E-02 0.664E-02
   0.375E+02 0.329E+02 0.662E+02   -.368E+02 -.326E+02 -.657E+02   -.631E+00 -.374E+00 -.453E+00   0.222E-02 0.118E-01 -.384E-02
   -.293E+02 0.246E+02 0.629E+02   0.292E+02 -.245E+02 -.629E+02   0.876E-02 -.124E+00 -.789E-01   -.292E-03 0.514E-02 0.235E-02
   -.421E+02 0.161E+02 -.135E+03   0.415E+02 -.166E+02 0.135E+03   0.586E+00 0.489E+00 0.583E+00   0.385E-03 0.496E-02 0.126E-02
   -.281E+02 -.584E+02 0.726E+02   0.272E+02 0.584E+02 -.724E+02   0.895E+00 0.505E-01 -.143E+00   -.250E-02 -.110E-01 -.284E-02
   -.279E+02 -.776E+02 -.534E+02   0.272E+02 0.772E+02 0.530E+02   0.640E+00 0.397E+00 0.455E+00   -.228E-02 -.406E-02 0.755E-02
   0.118E+03 0.160E+02 0.728E+02   -.117E+03 -.168E+02 -.725E+02   -.795E+00 0.773E+00 -.278E+00   0.293E-02 0.227E-02 -.186E-01
   -.371E+02 -.326E+02 -.127E+03   0.373E+02 0.321E+02 0.127E+03   -.192E+00 0.493E+00 0.134E+00   0.152E-01 -.125E-01 0.125E-01
   0.541E+02 -.187E+03 -.103E+03   -.533E+02 0.187E+03 0.103E+03   -.821E+00 0.322E+00 0.685E+00   0.566E-02 -.598E-02 0.181E-01
   -.299E+02 -.404E+02 0.198E+03   0.306E+02 0.408E+02 -.198E+03   -.713E+00 -.462E+00 -.251E+00   0.107E-01 0.298E-01 0.284E-02
   -.357E+02 0.742E+01 -.184E+03   0.348E+02 -.766E+01 0.183E+03   0.890E+00 0.245E+00 0.295E+00   -.136E-01 -.291E-02 0.565E-02
   0.737E+02 0.111E+03 -.215E+03   -.735E+02 -.112E+03 0.215E+03   -.195E+00 0.646E+00 -.126E-01   0.501E-02 0.142E-01 -.495E-02
   0.181E+03 0.163E+03 -.487E+02   -.181E+03 -.163E+03 0.483E+02   0.112E+00 -.839E+00 0.394E+00   -.379E-02 0.184E-01 0.180E-01
   0.861E+02 0.134E+02 0.268E+03   -.859E+02 -.139E+02 -.268E+03   -.159E+00 0.447E+00 0.408E-01   -.204E-03 0.150E-01 0.704E-02
   -.595E+02 -.708E+02 -.270E+03   0.596E+02 0.719E+02 0.270E+03   -.145E+00 -.109E+01 -.889E-01   0.679E-02 -.264E-01 0.202E-01
   -.130E+03 -.188E+02 0.145E+03   0.130E+03 0.176E+02 -.145E+03   0.630E+00 0.124E+01 -.203E+00   -.650E-02 0.103E-02 -.155E-01
   -.192E+03 0.211E+03 -.698E+02   0.192E+03 -.210E+03 0.696E+02   -.202E+00 -.118E+01 0.185E+00   0.653E-02 0.169E-01 0.195E-01
   0.234E+01 0.111E+03 0.360E+03   -.317E+01 -.111E+03 -.360E+03   0.845E+00 0.143E+00 -.400E+00   -.186E-01 -.903E-02 -.201E-01
   -.137E+02 -.140E+03 0.128E+03   0.128E+02 0.141E+03 -.128E+03   0.872E+00 -.133E+01 0.686E+00   -.345E-02 -.274E-01 -.711E-02
   0.396E+02 -.423E+02 -.414E+03   -.386E+02 0.421E+02 0.414E+03   -.105E+01 0.180E+00 -.147E+00   0.246E-03 0.151E-02 0.170E-02
   0.162E+02 -.817E+02 0.134E+03   -.153E+02 0.825E+02 -.135E+03   -.885E+00 -.737E+00 0.866E+00   0.331E-02 -.345E-01 -.575E-02
   -.270E+02 0.102E+02 0.404E+02   0.263E+02 -.999E+01 -.402E+02   0.773E+00 -.180E+00 -.151E+00   -.247E-02 0.895E-02 -.367E-02
   -.119E+01 0.773E+01 0.136E+03   0.167E+01 -.768E+01 -.136E+03   -.488E+00 -.522E-01 -.209E+00   0.369E-02 -.281E-02 -.372E-02
   0.395E+02 0.199E+02 0.485E+02   -.396E+02 -.204E+02 -.487E+02   0.133E+00 0.528E+00 0.237E+00   0.219E-02 0.403E-02 0.674E-02
   -.325E+02 0.106E+00 -.759E+02   0.324E+02 -.286E-01 0.756E+02   0.843E-02 -.832E-01 0.387E+00   -.207E-02 0.398E-02 -.335E-03
   -.250E+02 -.266E+02 -.269E+02   0.256E+02 0.273E+02 0.268E+02   -.561E+00 -.660E+00 0.791E-01   0.161E-02 0.800E-02 -.524E-02
   0.118E+02 -.510E+01 -.551E+02   -.120E+02 0.482E+01 0.549E+02   0.154E+00 0.279E+00 0.239E+00   -.445E-02 -.383E-02 0.406E-02
   -.280E+02 0.322E+01 0.618E+02   0.282E+02 -.280E+01 -.616E+02   -.141E+00 -.412E+00 -.196E+00   -.263E-02 -.106E-01 -.367E-02
   0.251E+02 0.186E+01 -.423E+02   -.256E+02 -.157E+01 0.422E+02   0.512E+00 -.299E+00 0.101E+00   -.134E-02 0.911E-02 -.536E-02
   -.667E+00 0.159E+02 0.576E+02   0.126E+00 -.157E+02 -.570E+02   0.542E+00 -.201E+00 -.560E+00   -.283E-02 0.106E-01 0.302E-03
   -.247E+02 0.223E+01 -.111E+02   0.236E+02 -.255E+01 0.113E+02   0.113E+01 0.325E+00 -.240E+00   -.164E-02 -.766E-02 -.413E-02
   0.212E+02 -.124E+01 -.888E+02   -.207E+02 0.114E+01 0.887E+02   -.500E+00 0.922E-01 0.319E-01   0.445E-02 -.153E-02 -.624E-04
   0.140E+02 -.158E+02 -.882E+02   -.141E+02 0.162E+02 0.885E+02   0.747E-01 -.427E+00 -.300E+00   -.816E-03 -.568E-02 0.408E-02
 -----------------------------------------------------------------------------------------------
   0.501E+00 0.473E+00 -.402E+00   -.178E-13 0.142E-13 0.256E-12   -.506E+00 -.447E+00 0.381E+00   0.799E-02 -.261E-01 0.213E-01
 
 
 POSITION                                       TOTAL-FORCE (eV/Angst)
 -----------------------------------------------------------------------------------
      1.80871      1.68231      5.21687         0.001812      0.000478      0.000238
      0.24352      3.31992      3.48800         0.003337      0.000229      0.004594
      0.12946      3.32616      6.85681         0.002322      0.000461     -0.003860
      1.73561      5.06325      8.59338        -0.000907      0.001577      0.001387
      1.99238      8.73381      5.25459         0.003916      0.000098      0.001907
      1.77596      8.57280      8.55941        -0.000232     -0.001081      0.003278
      1.59084      8.40586      1.51364        -0.001877      0.002668     -0.004288
      3.37574      3.46711      6.81753        -0.000322      0.001262      0.000573
      3.43738      3.30753     10.14767        -0.000077      0.000496      0.000266
      5.35611      4.99931      5.10554         0.003089      0.001227     -0.000051
      6.95328      0.01726     10.20331        -0.002017     -0.002554      0.000368
      0.09184      3.19641     10.10958        -0.003594      0.001648     -0.001081
      0.08166      6.89941      6.80358         0.003615      0.003915      0.001361
      3.37523     10.24181      3.20932        -0.000381      0.002966     -0.001649
      5.26984      5.06589      1.72589         0.003150     -0.002588      0.000170
      3.56023      6.94015     10.19789         0.002882      0.000286      0.002648
      5.27116      8.47191      8.51754        -0.000431     -0.003868      0.003701
      1.79010      1.80653      1.69546        -0.005362     -0.002223     -0.002671
      1.58779      5.02315      5.20620         0.000463     -0.000879     -0.002262
      6.93896      6.93955     10.15453        -0.001998      0.002990      0.001560
      3.48464      0.04772      6.96341         0.001332     -0.000628      0.002155
      5.14647      1.84144      8.37918        -0.002648      0.003664     -0.000402
      5.37937      8.52958      1.74384        -0.001447      0.002765      0.002015
      1.87941      1.70873      8.40439         0.003003     -0.000836     -0.002112
      5.04866      8.65649      5.10200        -0.000218     -0.002155     -0.001244
      0.04660      0.00262      6.86986         0.000397     -0.002055     -0.000940
      5.25968      5.02937      8.52736        -0.001617      0.000153     -0.002760
      1.64298      5.17542      1.54583        -0.001747     -0.001444     -0.002489
      0.15239      6.97561      3.53919         0.002985      0.000099      0.001455
      3.54622      0.01100     10.22761        -0.004294     -0.000498      0.000298
      5.23392      1.75504      5.12971         0.001549      0.001565     -0.000328
      3.36474      6.84576      3.41736        -0.001839      0.000850     -0.002933
      3.40814      6.76412      6.85462        -0.002340     -0.001322      0.002003
      3.27568      3.52568      3.49197        -0.002998     -0.003051     -0.002908
      0.16449     10.23801      3.39975         0.000176     -0.001732      0.004308
      5.22745      1.88726      1.87782         0.002318     -0.002483     -0.002307
 -----------------------------------------------------------------------------------
    total drift:                                0.002105     -0.000380      0.000182


--------------------------------------------------------------------------------------------------------



  FREE ENERGIE OF THE ION-ELECTRON SYSTEM (eV)
  ---------------------------------------------------
  free  energy   TOTEN  =      -364.17147360 eV

  energy  without entropy=     -364.19868713  energy(sigma->0) =     -364.18054478
 
 d Force = 0.8120076E-04[ 0.501E-04, 0.112E-03]  d Energy = 0.8989396E-04-0.869E-05
 d Force = 0.5524878E+00[ 0.551E+00, 0.554E+00]  d Ewald  =-0.2787044E+01 0.334E+01


--------------------------------------------------------------------------------------------------------


    POTLOK:  cpu time    0.0445: real time    0.0448


--------------------------------------------------------------------------------------------------------


 Conjugate gradient step on ions:
 trial-energy change:   -0.000090  1 .order   -0.000070   -0.000198    0.000057
  (g-gl).g = 0.290E-04      g.g   = 0.391E-04  gl.gl    = 0.457E-04
 g(Force)  = 0.161E-04   g(Stress)= 0.230E-04 ortho     = 0.628E-05
 gamma     =   0.63587
 trial     =   4.58497
 opt step  =   3.55642  (harmonic =   3.55642) maximal distance =0.00113180
 next E    =  -364.171460   (d E  =  -0.00008)


--------------------------------------------------------------------------------------------------------


  
 reached required accuracy - stopping structural energy minimisation
     LOOP+:  cpu time    6.5391: real time    7.0408
    4ORBIT:  cpu time    0.0000: real time    0.0000

 total amount of memory used by VASP on root node    66497. kBytes
========================================================================

   base      :      30000. kBytes
   nonlr-proj:      10475. kBytes
   fftplans  :       2814. kBytes
   grid      :       5360. kBytes
   one-center:        124. kBytes
   wavefun   :      17724. kBytes
 
  
  
 General timing and accounting informations for this job:
 ========================================================
  
                  Total CPU time used (sec):      137.449
                            User time (sec):      136.591
                          System time (sec):        0.858
                         Elapsed time (sec):      149.929
  
                   Maximum memory used (kb):      260764.
                   Average memory used (kb):           0.
  
                          Minor page faults:        96604
                          Major page faults:           33
                 Voluntary context switches:         6619
