<?xml version="1.0" encoding="ISO-8859-1"?>
<modeling>
 <generator>
  <i name="program" type="string">vasp </i>
  <i name="version" type="string">5.4.1  </i>
  <i name="subversion" type="string">05Feb16 (build Jan 29 2020 16:04:39) complex                          parallel </i>
  <i name="platform" type="string">IFC91_ompi </i>
  <i name="date" type="string">2020 06 15 </i>
  <i name="time" type="string">04:45:56 </i>
 </generator>
 <incar>
  <i type="string" name="SYSTEM"> automatically generated by mexm</i>
  <i type="int" name="ISTART">     0</i>
  <i type="string" name="PREC">accurate               ! avoid wrap aro</i>
  <i type="string" name="ALGO"> Fast                   ! blocked Davids</i>
  <i type="int" name="ISPIN">     1</i>
  <i type="int" name="ICHARG">     2</i>
  <i type="int" name="NELM">    70</i>
  <i type="int" name="IBRION">     2</i>
  <i name="EDIFF">      0.00001000</i>
  <i name="EDIFFG">     -0.01000000</i>
  <i type="int" name="NSW">   300</i>
  <i type="int" name="ISIF">     3</i>
  <i type="int" name="ISYM">     1</i>
  <i name="ENCUT">    300.00000000</i>
  <i name="POTIM">      0.15000000</i>
  <i type="string" name="LREAL"> Auto                  ! unpublished met</i>
  <i type="int" name="ISMEAR">     1</i>
  <i name="SIGMA">      0.15000000</i>
  <i type="logical" name="LWAVE"> F  </i>
  <i type="logical" name="LCHARG"> F  </i>
  <i type="logical" name="LVTOT"> F  </i>
  <v type="int" name="KPOINT_BSE">    -1     0     0     0</v>
  <i type="int" name="NELM">    70</i>
 </incar>
 <kpoints>
  <generation param="Gamma">
   <v type="int" name="divisions">       3        3        3 </v>
   <v name="usershift">      0.00000000       0.00000000       0.00000000 </v>
   <v name="genvec1">      0.33333333      -0.00000000       0.00000000 </v>
   <v name="genvec2">     -0.00000000       0.33333333       0.00000000 </v>
   <v name="genvec3">      0.00000000      -0.00000000       0.33333333 </v>
   <v name="shift">      0.00000000       0.00000000       0.00000000 </v>
  </generation>
  <varray name="kpointlist" >
   <v>       0.00000000       0.00000000       0.00000000 </v>
   <v>       0.33333333       0.00000000      -0.00000000 </v>
   <v>      -0.00000000       0.33333333       0.00000000 </v>
   <v>       0.33333333       0.33333333      -0.00000000 </v>
   <v>      -0.33333333       0.33333333       0.00000000 </v>
   <v>      -0.00000000      -0.00000000       0.33333333 </v>
   <v>       0.33333333       0.00000000       0.33333333 </v>
   <v>      -0.33333333      -0.00000000       0.33333333 </v>
   <v>      -0.00000000       0.33333333       0.33333333 </v>
   <v>       0.33333333       0.33333333       0.33333333 </v>
   <v>      -0.33333333       0.33333333       0.33333333 </v>
   <v>      -0.00000000      -0.33333333       0.33333333 </v>
   <v>       0.33333333      -0.33333333       0.33333333 </v>
   <v>      -0.33333333      -0.33333333       0.33333333 </v>
  </varray>
  <varray name="weights" >
   <v>       0.03703704 </v>
   <v>       0.07407407 </v>
   <v>       0.07407407 </v>
   <v>       0.07407407 </v>
   <v>       0.07407407 </v>
   <v>       0.07407407 </v>
   <v>       0.07407407 </v>
   <v>       0.07407407 </v>
   <v>       0.07407407 </v>
   <v>       0.07407407 </v>
   <v>       0.07407407 </v>
   <v>       0.07407407 </v>
   <v>       0.07407407 </v>
   <v>       0.07407407 </v>
  </varray>
 </kpoints>
 <parameters>
  <separator name="general" >
   <i type="string" name="SYSTEM">automatically generated by mexm</i>
   <i type="logical" name="LCOMPAT"> F  </i>
  </separator>
  <separator name="electronic" >
   <i type="string" name="PREC">accura</i>
   <i name="ENMAX">    300.00000000</i>
   <i name="ENAUG">    461.25700000</i>
   <i name="EDIFF">      0.00001000</i>
   <i type="int" name="IALGO">    68</i>
   <i type="int" name="IWAVPR">    11</i>
   <i type="int" name="NBANDS">   168</i>
   <i name="NELECT">    281.00000000</i>
   <i type="int" name="TURBO">     0</i>
   <i type="int" name="IRESTART">     0</i>
   <i type="int" name="NREBOOT">     0</i>
   <i type="int" name="NMIN">     0</i>
   <i name="EREF">      0.00000000</i>
   <separator name="electronic smearing" >
    <i type="int" name="ISMEAR">     1</i>
    <i name="SIGMA">      0.15000000</i>
    <i name="KSPACING">      0.50000000</i>
    <i type="logical" name="KGAMMA"> T  </i>
   </separator>
   <separator name="electronic projectors" >
    <i type="logical" name="LREAL"> T  </i>
    <v name="ROPT">     -0.00025000     -0.00025000     -0.00025000     -0.00025000</v>
    <i type="int" name="LMAXPAW">  -100</i>
    <i type="int" name="LMAXMIX">     2</i>
    <i type="logical" name="NLSPLINE"> F  </i>
   </separator>
   <separator name="electronic startup" >
    <i type="int" name="ISTART">     0</i>
    <i type="int" name="ICHARG">     2</i>
    <i type="int" name="INIWAV">     1</i>
   </separator>
   <separator name="electronic spin" >
    <i type="int" name="ISPIN">     1</i>
    <i type="logical" name="LNONCOLLINEAR"> F  </i>
    <v name="MAGMOM">      1.00000000      1.00000000      1.00000000      1.00000000      1.00000000      1.00000000      1.00000000      1.00000000      1.00000000      1.00000000      1.00000000      1.00000000      1.00000000      1.00000000      1.00000000      1.00000000      1.00000000      1.00000000      1.00000000      1.00000000
      1.00000000      1.00000000      1.00000000      1.00000000      1.00000000      1.00000000      1.00000000      1.00000000      1.00000000      1.00000000      1.00000000      1.00000000      1.00000000      1.00000000      1.00000000      1.00000000</v>
    <i name="NUPDOWN">     -1.00000000</i>
    <i type="logical" name="LSORBIT"> F  </i>
    <v name="SAXIS">      0.00000000      0.00000000      1.00000000</v>
    <i type="logical" name="LSPIRAL"> F  </i>
    <v name="QSPIRAL">      0.00000000      0.00000000      0.00000000</v>
    <i type="logical" name="LZEROZ"> F  </i>
   </separator>
   <separator name="electronic exchange-correlation" >
    <i type="logical" name="LASPH"> F  </i>
    <i type="logical" name="LMETAGGA"> F  </i>
   </separator>
   <separator name="electronic convergence" >
    <i type="int" name="NELM">    70</i>
    <i type="int" name="NELMDL">    -5</i>
    <i type="int" name="NELMIN">     2</i>
    <i name="ENINI">    300.00000000</i>
    <separator name="electronic convergence detail" >
     <i type="logical" name="LDIAG"> T  </i>
     <i type="logical" name="LSUBROT"> F  </i>
     <i name="WEIMIN">      0.00100000</i>
     <i name="EBREAK">      0.00000001</i>
     <i name="DEPER">      0.30000000</i>
     <i type="int" name="NRMM">     4</i>
     <i name="TIME">      0.40000000</i>
    </separator>
   </separator>
   <separator name="electronic mixer" >
    <i name="AMIX">      0.40000000</i>
    <i name="BMIX">      1.00000000</i>
    <i name="AMIN">      0.10000000</i>
    <i name="AMIX_MAG">      1.60000000</i>
    <i name="BMIX_MAG">      1.00000000</i>
    <separator name="electronic mixer details" >
     <i type="int" name="IMIX">     4</i>
     <i type="logical" name="MIXFIRST"> F  </i>
     <i type="int" name="MAXMIX">   -45</i>
     <i name="WC">    100.00000000</i>
     <i type="int" name="INIMIX">     1</i>
     <i type="int" name="MIXPRE">     1</i>
     <i type="int" name="MREMOVE">     5</i>
    </separator>
   </separator>
   <separator name="electronic dipolcorrection" >
    <i type="logical" name="LDIPOL"> F  </i>
    <i type="logical" name="LMONO"> F  </i>
    <i type="int" name="IDIPOL">     0</i>
    <i name="EPSILON">      1.00000000</i>
    <v name="DIPOL">   -100.00000000   -100.00000000   -100.00000000</v>
    <i name="EFIELD">      0.00000000</i>
   </separator>
  </separator>
  <separator name="grids" >
   <i type="int" name="NGX">    40</i>
   <i type="int" name="NGY">    60</i>
   <i type="int" name="NGZ">    60</i>
   <i type="int" name="NGXF">    80</i>
   <i type="int" name="NGYF">   120</i>
   <i type="int" name="NGZF">   120</i>
   <i type="logical" name="ADDGRID"> F  </i>
  </separator>
  <separator name="ionic" >
   <i type="int" name="NSW">   300</i>
   <i type="int" name="IBRION">     2</i>
   <i type="int" name="ISIF">     3</i>
   <i name="PSTRESS">      0.00000000</i>
   <i name="EDIFFG">     -0.01000000</i>
   <i type="int" name="NFREE">     1</i>
   <i name="POTIM">      0.15000000</i>
   <i name="SMASS">     -3.00000000</i>
   <i name="SCALEE">      1.00000000</i>
  </separator>
  <separator name="ionic md" >
   <i name="TEBEG">      0.00010000</i>
   <i name="TEEND">      0.00010000</i>
   <i type="int" name="NBLOCK">     1</i>
   <i type="int" name="KBLOCK">   300</i>
   <i type="int" name="NPACO">   256</i>
   <i name="APACO">     16.00000000</i>
  </separator>
  <separator name="symmetry" >
   <i type="int" name="ISYM">     1</i>
   <i name="SYMPREC">      0.00001000</i>
  </separator>
  <separator name="dos" >
   <i type="logical" name="LORBIT"> F  </i>
   <v name="RWIGS">     -1.00000000     -1.00000000     -1.00000000     -1.00000000</v>
   <i type="int" name="NEDOS">   301</i>
   <i name="EMIN">     10.00000000</i>
   <i name="EMAX">    -10.00000000</i>
   <i name="EFERMI">      0.00000000</i>
  </separator>
  <separator name="writing" >
   <i type="int" name="NWRITE">     2</i>
   <i type="logical" name="LWAVE"> F  </i>
   <i type="logical" name="LCHARG"> F  </i>
   <i type="logical" name="LPARD"> F  </i>
   <i type="logical" name="LVTOT"> F  </i>
   <i type="logical" name="LVHAR"> F  </i>
   <i type="logical" name="LELF"> F  </i>
   <i type="logical" name="LOPTICS"> F  </i>
   <v name="STM">      0.00000000      0.00000000      0.00000000      0.00000000      0.00000000      0.00000000      0.00000000</v>
  </separator>
  <separator name="performance" >
   <i type="int" name="NPAR">     4</i>
   <i type="int" name="NSIM">     4</i>
   <i type="int" name="NBLK">    -1</i>
   <i type="logical" name="LPLANE"> T  </i>
   <i type="logical" name="LSCALAPACK"> T  </i>
   <i type="logical" name="LSCAAWARE"> F  </i>
   <i type="logical" name="LSCALU"> F  </i>
   <i type="logical" name="LASYNC"> F  </i>
   <i type="logical" name="LORBITALREAL"> F  </i>
  </separator>
  <separator name="miscellaneous" >
   <i type="int" name="IDIOT">     3</i>
   <i type="logical" name="LMUSIC"> F  </i>
   <v name="POMASS">    180.94800000     91.22400000     92.91000000    178.49000000</v>
   <v name="DARWINR">      0.00000000      0.00000000      0.00000000      0.00000000</v>
   <v name="DARWINV">      1.00000000      1.00000000      1.00000000      1.00000000</v>
   <i type="logical" name="LCORR"> T  </i>
  </separator>
  <i type="logical" name="GGA_COMPAT"> T  </i>
  <i type="logical" name="LBERRY"> F  </i>
  <i type="int" name="ICORELEVEL">     0</i>
  <i type="logical" name="LDAU"> F  </i>
  <i type="int" name="I_CONSTRAINED_M">     0</i>
  <separator name="electronic exchange-correlation" >
   <i type="string" name="GGA">--</i>
   <i type="int" name="VOSKOWN">     0</i>
   <i type="logical" name="LHFCALC"> F  </i>
   <i type="string" name="PRECFOCK"></i>
   <i type="logical" name="LSYMGRAD"> F  </i>
   <i type="logical" name="LHFONE"> F  </i>
   <i type="logical" name="LRHFCALC"> F  </i>
   <i type="logical" name="LTHOMAS"> F  </i>
   <i type="logical" name="LMODELHF"> F  </i>
   <i name="ENCUT4O">     -1.00000000</i>
   <i type="int" name="EXXOEP">     0</i>
   <i type="int" name="FOURORBIT">     0</i>
   <i name="AEXX">      0.00000000</i>
   <i name="HFALPHA">      0.00000000</i>
   <i name="MCALPHA">      0.00000000</i>
   <i name="ALDAX">      1.00000000</i>
   <i name="AGGAX">      1.00000000</i>
   <i name="ALDAC">      1.00000000</i>
   <i name="AGGAC">      1.00000000</i>
   <i type="int" name="NKREDX">     1</i>
   <i type="int" name="NKREDY">     1</i>
   <i type="int" name="NKREDZ">     1</i>
   <i type="logical" name="SHIFTRED"> F  </i>
   <i type="logical" name="ODDONLY"> F  </i>
   <i type="logical" name="EVENONLY"> F  </i>
   <i type="int" name="LMAXFOCK">     0</i>
   <i type="int" name="NMAXFOCKAE">     0</i>
   <i type="logical" name="LFOCKAEDFT"> F  </i>
   <i name="HFSCREEN">      0.00000000</i>
   <i name="HFSCREENC">      0.00000000</i>
   <i type="int" name="NBANDSGWLOW">     0</i>
  </separator>
  <separator name="vdW DFT" >
   <i type="logical" name="LUSE_VDW"> F  </i>
   <i name="Zab_VDW">     -0.84910000</i>
   <i name="PARAM1">      0.12340000</i>
   <i name="PARAM2">      1.00000000</i>
   <i name="PARAM3">      0.00000000</i>
  </separator>
  <separator name="model GW" >
   <i type="int" name="MODEL_GW">     0</i>
   <i name="MODEL_EPS0">     12.15985920</i>
   <i name="MODEL_ALPHA">      1.00000000</i>
  </separator>
  <separator name="linear response parameters" >
   <i type="logical" name="LEPSILON"> F  </i>
   <i type="logical" name="LRPA"> F  </i>
   <i type="logical" name="LNABLA"> F  </i>
   <i type="logical" name="LVEL"> F  </i>
   <i type="int" name="KINTER">     0</i>
   <i name="CSHIFT">      0.10000000</i>
   <i name="OMEGAMAX">     -1.00000000</i>
   <i name="DEG_THRESHOLD">      0.00200000</i>
  </separator>
  <separator name="orbital magnetization" >
   <i type="logical" name="NUCIND"> F  </i>
   <v name="MAGPOS">      0.00000000      0.00000000      0.00000000</v>
   <i type="logical" name="LNICSALL"> T  </i>
   <i type="logical" name="ORBITALMAG"> F  </i>
   <i type="logical" name="LMAGBLOCH"> F  </i>
   <i type="logical" name="LCHIMAG"> F  </i>
   <i type="logical" name="LGAUGE"> T  </i>
   <i type="int" name="MAGATOM">     0</i>
   <v name="MAGDIPOL">      0.00000000      0.00000000      0.00000000</v>
   <v name="AVECCONST">      0.00000000      0.00000000      0.00000000</v>
  </separator>
  <separator name="response functions" >
   <i type="logical" name="LADDER"> F  </i>
   <i type="logical" name="LFXC"> F  </i>
   <i type="logical" name="LHARTREE"> T  </i>
   <i type="int" name="IBSE">     0</i>
   <v type="int" name="KPOINT">    -1     0     0     0</v>
   <i type="logical" name="LTCTE"> F  </i>
   <i type="logical" name="LTETE"> F  </i>
   <i type="logical" name="LTRIPLET"> F  </i>
   <i type="logical" name="LFXCEPS"> F  </i>
   <i type="logical" name="LFXHEG"> F  </i>
   <i type="int" name="NATURALO">     0</i>
   <i type="logical" name="L2ORDER"> F  </i>
   <i type="logical" name="LUSEW"> F  </i>
   <i name="ENCUTGW">     -2.00000000</i>
   <i name="ENCUTGWSOFT">     -2.00000000</i>
   <i name="ENCUTLF">     -1.00000000</i>
   <i type="int" name="LMAXMP2">    -1</i>
   <i name="SCISSOR">      0.00000000</i>
   <i type="int" name="NOMEGA">     0</i>
   <i type="int" name="NOMEGAR">     0</i>
   <i type="int" name="NBANDSGW">    -1</i>
   <i type="int" name="NBANDSO">    -1</i>
   <i type="int" name="NBANDSV">    -1</i>
   <i type="int" name="NELM">    70</i>
   <i type="int" name="NELMHF">     1</i>
   <i type="int" name="DIM">     3</i>
   <i type="int" name="ANTIRES">     0</i>
   <i name="OMEGAMAX">    -30.00000000</i>
   <i name="OMEGAMIN">    -30.00000000</i>
   <i name="OMEGATL">   -200.00000000</i>
   <i type="int" name="OMEGAGRID">     0</i>
   <i name="CSHIFT">     -0.10000000</i>
   <i type="logical" name="SELFENERGY"> F  </i>
   <i type="logical" name="LSPECTRAL"> F  </i>
   <i type="logical" name="LSPECTRALGW"> F  </i>
   <i type="logical" name="LSINGLES"> F  </i>
   <i type="logical" name="LFERMIGW"> F  </i>
   <i type="logical" name="ODDONLYGW"> F  </i>
   <i type="logical" name="EVENONLYGW"> F  </i>
   <i type="int" name="NKREDLFX">     1</i>
   <i type="int" name="NKREDLFY">     1</i>
   <i type="int" name="NKREDLFZ">     1</i>
   <i type="int" name="MAXMEM">  1800</i>
   <i type="int" name="TELESCOPE">     0</i>
   <i type="int" name="TAUPAR">     1</i>
   <i type="int" name="OMEGAPAR">    -1</i>
   <i name="LAMBDA">      1.00000000</i>
  </separator>
  <separator name="External order field" >
   <i name="OFIELD_KAPPA">      0.00000000</i>
   <v name="OFIELD_K">      0.00000000      0.00000000      0.00000000</v>
   <i name="OFIELD_Q6_NEAR">      0.00000000</i>
   <i name="OFIELD_Q6_FAR">      0.00000000</i>
   <i name="OFIELD_A">      0.00000000</i>
  </separator>
 </parameters>
 <atominfo>
  <atoms>      36 </atoms>
  <types>       4 </types>
  <array name="atoms" >
   <dimension dim="1">ion</dimension>
   <field type="string">element</field>
   <field type="int">atomtype</field>
   <set>
    <rc><c>Ta</c><c>   1</c></rc>
    <rc><c>Ta</c><c>   1</c></rc>
    <rc><c>Ta</c><c>   1</c></rc>
    <rc><c>Ta</c><c>   1</c></rc>
    <rc><c>Ta</c><c>   1</c></rc>
    <rc><c>Ta</c><c>   1</c></rc>
    <rc><c>Ta</c><c>   1</c></rc>
    <rc><c>Ta</c><c>   1</c></rc>
    <rc><c>Ta</c><c>   1</c></rc>
    <rc><c>Zr</c><c>   2</c></rc>
    <rc><c>Zr</c><c>   2</c></rc>
    <rc><c>Zr</c><c>   2</c></rc>
    <rc><c>Zr</c><c>   2</c></rc>
    <rc><c>Zr</c><c>   2</c></rc>
    <rc><c>Zr</c><c>   2</c></rc>
    <rc><c>Zr</c><c>   2</c></rc>
    <rc><c>Nb</c><c>   3</c></rc>
    <rc><c>Nb</c><c>   3</c></rc>
    <rc><c>Nb</c><c>   3</c></rc>
    <rc><c>Nb</c><c>   3</c></rc>
    <rc><c>Nb</c><c>   3</c></rc>
    <rc><c>Nb</c><c>   3</c></rc>
    <rc><c>Nb</c><c>   3</c></rc>
    <rc><c>Nb</c><c>   3</c></rc>
    <rc><c>Hf</c><c>   4</c></rc>
    <rc><c>Hf</c><c>   4</c></rc>
    <rc><c>Hf</c><c>   4</c></rc>
    <rc><c>Hf</c><c>   4</c></rc>
    <rc><c>Hf</c><c>   4</c></rc>
    <rc><c>Hf</c><c>   4</c></rc>
    <rc><c>Hf</c><c>   4</c></rc>
    <rc><c>Hf</c><c>   4</c></rc>
    <rc><c>Hf</c><c>   4</c></rc>
    <rc><c>Hf</c><c>   4</c></rc>
    <rc><c>Hf</c><c>   4</c></rc>
    <rc><c>Hf</c><c>   4</c></rc>
   </set>
  </array>
  <array name="atomtypes" >
   <dimension dim="1">type</dimension>
   <field type="int">atomspertype</field>
   <field type="string">element</field>
   <field>mass</field>
   <field>valence</field>
   <field type="string">pseudopotential</field>
   <set>
    <rc><c>   9</c><c>Ta</c><c>    180.94800000</c><c>      5.00000000</c><c>  PAW_PBE Ta 17Jan2003                  </c></rc>
    <rc><c>   7</c><c>Zr</c><c>     91.22400000</c><c>     12.00000000</c><c>  PAW_PBE Zr_sv 04Jan2005               </c></rc>
    <rc><c>   8</c><c>Nb</c><c>     92.91000000</c><c>     13.00000000</c><c>  PAW_PBE Nb_sv 25May2007               </c></rc>
    <rc><c>  12</c><c>Hf</c><c>    178.49000000</c><c>      4.00000000</c><c>  PAW_PBE Hf 20Jan2003                  </c></rc>
   </set>
  </array>
 </atominfo>
 <structure name="initialpos" >
  <crystal>
   <varray name="basis" >
    <v>       6.95987967       0.00723305       0.01703009 </v>
    <v>       0.01088449      10.25755164      -0.00257397 </v>
    <v>       0.02560001      -0.00289322      10.21968538 </v>
   </varray>
   <i name="volume">    729.59155226 </i>
   <varray name="rec_basis" >
    <v>       0.14368168      -0.00015255      -0.00035996 </v>
    <v>      -0.00010138       0.09748927       0.00002785 </v>
    <v>      -0.00023946       0.00002481       0.09785098 </v>
   </varray>
  </crystal>
  <varray name="positions" >
   <v>       0.25697800       0.16361100       0.50973000 </v>
   <v>       0.03298000       0.32417700       0.34063300 </v>
   <v>       0.01570500       0.32389400       0.67102900 </v>
   <v>       0.24609300       0.49369300       0.84108300 </v>
   <v>       0.28289000       0.85103700       0.51377300 </v>
   <v>       0.25155600       0.83530300       0.83659700 </v>
   <v>       0.22766000       0.81858800       0.14831200 </v>
   <v>       0.48203900       0.33908600       0.66547400 </v>
   <v>       0.48990200       0.32223000       0.99185500 </v>
   <v>       0.76966500       0.48557100       0.50008400 </v>
   <v>       0.99497100       0.00152100       0.99655100 </v>
   <v>       0.00936300       0.31183600       0.98991100 </v>
   <v>       0.00759100       0.67292600       0.66605000 </v>
   <v>       0.48243800       0.99793700       0.31351000 </v>
   <v>       0.75596400       0.49271000       0.16925200 </v>
   <v>       0.50792000       0.67653600       0.99692600 </v>
   <v>       0.75221900       0.82673200       0.83206400 </v>
   <v>       0.25693200       0.17605400       0.16596000 </v>
   <v>       0.22145500       0.49016300       0.50869000 </v>
   <v>       0.99165500       0.67617300       0.99195500 </v>
   <v>       0.49786800       0.00476500       0.68027300 </v>
   <v>       0.73575000       0.17929100       0.81949700 </v>
   <v>       0.77079600       0.83080800       0.16923100 </v>
   <v>       0.26655200       0.16653400       0.82158600 </v>
   <v>       0.72144600       0.84277200       0.49857500 </v>
   <v>       0.00337100       0.00047600       0.67199700 </v>
   <v>       0.75182100       0.48920600       0.83209900 </v>
   <v>       0.23648900       0.50459900       0.15046300 </v>
   <v>       0.01814400       0.67928400       0.34622500 </v>
   <v>       0.50461000       0.00113000       0.99989900 </v>
   <v>       0.74973600       0.17221200       0.49985800 </v>
   <v>       0.48238200       0.66603800       0.33463300 </v>
   <v>       0.48635000       0.65800900       0.66926000 </v>
   <v>       0.46902200       0.34443900       0.34241000 </v>
   <v>       0.02069200       0.99735700       0.33278100 </v>
   <v>       0.74897800       0.18331500       0.18176600 </v>
  </varray>
 </structure>
 <calculation>
  <scstep>
   <time name="dav">    1.05    1.06</time>
   <time name="total">    1.38    1.56</time>
   <energy>
    <i name="alphaZ">   1417.70711067 </i>
    <i name="ewald"> -17918.85940019 </i>
    <i name="hartreedc">  -6479.98920827 </i>
    <i name="XCdc">   -433.24818916 </i>
    <i name="pawpsdc">  20084.96302182 </i>
    <i name="pawaedc"> -18430.00660725 </i>
    <i name="eentropy">      0.01069707 </i>
    <i name="bandstr">    -88.36344996 </i>
    <i name="atom">  23516.69635308 </i>
    <i name="e_fr_energy">   1668.91032781 </i>
    <i name="e_wo_entrp">   1668.89963074 </i>
    <i name="e_0_energy">   1668.90676212 </i>
   </energy>
  </scstep>
  <scstep>
   <time name="dav">    1.00    1.13</time>
   <time name="total">    1.01    1.26</time>
   <energy>
    <i name="e_fr_energy">   -116.28970725 </i>
    <i name="e_wo_entrp">   -116.29376207 </i>
    <i name="e_0_energy">   -116.29105886 </i>
   </energy>
  </scstep>
  <scstep>
   <time name="dav">    1.40    1.40</time>
   <time name="total">    1.40    1.42</time>
   <energy>
    <i name="e_fr_energy">   -347.82222790 </i>
    <i name="e_wo_entrp">   -347.82203771 </i>
    <i name="e_0_energy">   -347.82216450 </i>
   </energy>
  </scstep>
  <scstep>
   <time name="dav">    1.39    1.39</time>
   <time name="total">    1.39    1.41</time>
   <energy>
    <i name="e_fr_energy">   -376.01111062 </i>
    <i name="e_wo_entrp">   -376.02054899 </i>
    <i name="e_0_energy">   -376.01425674 </i>
   </energy>
  </scstep>
  <scstep>
   <time name="dav">    1.25    1.25</time>
   <time name="total">    1.28    1.31</time>
   <energy>
    <i name="e_fr_energy">   -378.88931314 </i>
    <i name="e_wo_entrp">   -378.90015064 </i>
    <i name="e_0_energy">   -378.89292564 </i>
   </energy>
  </scstep>
  <scstep>
   <time name="diag">    0.07    0.07</time>
   <time name="diis">    0.68    0.68</time>
   <time name="orth">    0.01    0.01</time>
   <time name="total">    0.83    0.85</time>
   <energy>
    <i name="e_fr_energy">   -368.49706665 </i>
    <i name="e_wo_entrp">   -368.51478069 </i>
    <i name="e_0_energy">   -368.50297133 </i>
   </energy>
  </scstep>
  <scstep>
   <time name="diag">    0.07    0.07</time>
   <time name="diis">    0.71    0.71</time>
   <time name="orth">    0.01    0.01</time>
   <time name="total">    0.85    0.88</time>
   <energy>
    <i name="e_fr_energy">   -367.51622495 </i>
    <i name="e_wo_entrp">   -367.54322700 </i>
    <i name="e_0_energy">   -367.52522563 </i>
   </energy>
  </scstep>
  <scstep>
   <time name="diag">    0.07    0.07</time>
   <time name="diis">    0.81    0.84</time>
   <time name="orth">    0.01    0.01</time>
   <time name="total">    0.97    1.02</time>
   <energy>
    <i name="e_fr_energy">   -364.36747793 </i>
    <i name="e_wo_entrp">   -364.39337146 </i>
    <i name="e_0_energy">   -364.37610911 </i>
   </energy>
  </scstep>
  <scstep>
   <time name="diag">    0.07    0.07</time>
   <time name="diis">    0.75    0.75</time>
   <time name="orth">    0.01    0.01</time>
   <time name="total">    0.90    0.92</time>
   <energy>
    <i name="e_fr_energy">   -364.24640852 </i>
    <i name="e_wo_entrp">   -364.27149106 </i>
    <i name="e_0_energy">   -364.25476937 </i>
   </energy>
  </scstep>
  <scstep>
   <time name="diag">    0.08    0.08</time>
   <time name="diis">    0.67    0.82</time>
   <time name="orth">    0.01    0.01</time>
   <time name="total">    0.82    0.99</time>
   <energy>
    <i name="e_fr_energy">   -364.18202668 </i>
    <i name="e_wo_entrp">   -364.20985766 </i>
    <i name="e_0_energy">   -364.19130367 </i>
   </energy>
  </scstep>
  <scstep>
   <time name="diag">    0.09    0.10</time>
   <time name="diis">    0.75    0.78</time>
   <time name="orth">    0.01    0.01</time>
   <time name="total">    0.95    1.02</time>
   <energy>
    <i name="e_fr_energy">   -364.16139129 </i>
    <i name="e_wo_entrp">   -364.18904708 </i>
    <i name="e_0_energy">   -364.17060989 </i>
   </energy>
  </scstep>
  <scstep>
   <time name="diag">    0.07    0.07</time>
   <time name="diis">    0.85    0.85</time>
   <time name="orth">    0.01    0.01</time>
   <time name="total">    0.99    1.01</time>
   <energy>
    <i name="e_fr_energy">   -364.16177899 </i>
    <i name="e_wo_entrp">   -364.18990916 </i>
    <i name="e_0_energy">   -364.17115571 </i>
   </energy>
  </scstep>
  <scstep>
   <time name="diag">    0.07    0.07</time>
   <time name="diis">    0.76    0.76</time>
   <time name="orth">    0.01    0.01</time>
   <time name="total">    0.99    1.02</time>
   <energy>
    <i name="e_fr_energy">   -364.16138703 </i>
    <i name="e_wo_entrp">   -364.18927084 </i>
    <i name="e_0_energy">   -364.17068163 </i>
   </energy>
  </scstep>
  <scstep>
   <time name="diag">    0.08    0.08</time>
   <time name="diis">    0.77    0.78</time>
   <time name="orth">    0.01    0.01</time>
   <time name="total">    0.95    0.98</time>
   <energy>
    <i name="e_fr_energy">   -364.16181523 </i>
    <i name="e_wo_entrp">   -364.18973633 </i>
    <i name="e_0_energy">   -364.17112226 </i>
   </energy>
  </scstep>
  <scstep>
   <time name="diag">    0.07    0.07</time>
   <time name="diis">    0.86    0.87</time>
   <time name="orth">    0.01    0.01</time>
   <time name="total">    1.04    1.12</time>
   <energy>
    <i name="e_fr_energy">   -364.16202424 </i>
    <i name="e_wo_entrp">   -364.18993546 </i>
    <i name="e_0_energy">   -364.17132798 </i>
   </energy>
  </scstep>
  <scstep>
   <time name="diag">    0.08    0.09</time>
   <time name="diis">    0.68    0.69</time>
   <time name="orth">    0.01    0.01</time>
   <time name="total">    0.86    0.89</time>
   <energy>
    <i name="e_fr_energy">   -364.16217379 </i>
    <i name="e_wo_entrp">   -364.19011326 </i>
    <i name="e_0_energy">   -364.17148695 </i>
   </energy>
  </scstep>
  <scstep>
   <time name="diag">    0.07    0.07</time>
   <time name="diis">    0.58    0.58</time>
   <time name="orth">    0.01    0.01</time>
   <time name="total">    0.73    0.75</time>
   <energy>
    <i name="e_fr_energy">   -364.16223213 </i>
    <i name="e_wo_entrp">   -364.19018363 </i>
    <i name="e_0_energy">   -364.17154930 </i>
   </energy>
  </scstep>
  <scstep>
   <time name="diag">    0.07    0.07</time>
   <time name="diis">    0.57    0.57</time>
   <time name="orth">    0.01    0.01</time>
   <time name="total">    0.74    0.76</time>
   <energy>
    <i name="e_fr_energy">   -364.16226793 </i>
    <i name="e_wo_entrp">   -364.19025445 </i>
    <i name="e_0_energy">   -364.17159677 </i>
   </energy>
  </scstep>
  <scstep>
   <time name="diag">    0.12    0.12</time>
   <time name="diis">    0.49    0.50</time>
   <time name="orth">    0.01    0.01</time>
   <time name="total">    0.70    0.71</time>
   <energy>
    <i name="e_fr_energy">   -364.16228428 </i>
    <i name="e_wo_entrp">   -364.19027794 </i>
    <i name="e_0_energy">   -364.17161550 </i>
   </energy>
  </scstep>
  <scstep>
   <time name="diag">    0.10    0.10</time>
   <time name="diis">    0.45    0.46</time>
   <time name="orth">    0.01    0.01</time>
   <time name="total">    0.60    0.63</time>
   <energy>
    <i name="alphaZ">   1417.70711067 </i>
    <i name="ewald"> -17918.85940019 </i>
    <i name="hartreedc">  -6274.69129661 </i>
    <i name="XCdc">   -430.64248410 </i>
    <i name="pawpsdc">  32191.47861548 </i>
    <i name="pawaedc"> -30520.43047421 </i>
    <i name="eentropy">      0.02799438 </i>
    <i name="bandstr">  -2345.44870771 </i>
    <i name="atom">  23516.69635308 </i>
    <i name="e_fr_energy">   -364.16228921 </i>
    <i name="e_wo_entrp">   -364.19028359 </i>
    <i name="e_0_energy">   -364.17162067 </i>
   </energy>
  </scstep>
  <structure>
   <crystal>
    <varray name="basis" >
     <v>       6.95987967       0.00723305       0.01703009 </v>
     <v>       0.01088449      10.25755164      -0.00257397 </v>
     <v>       0.02560001      -0.00289322      10.21968538 </v>
    </varray>
    <i name="volume">    729.59155226 </i>
    <varray name="rec_basis" >
     <v>       0.14368168      -0.00015255      -0.00035996 </v>
     <v>      -0.00010138       0.09748927       0.00002785 </v>
     <v>      -0.00023946       0.00002481       0.09785098 </v>
    </varray>
   </crystal>
   <varray name="positions" >
    <v>       0.25697800       0.16361100       0.50973000 </v>
    <v>       0.03298000       0.32417700       0.34063300 </v>
    <v>       0.01570500       0.32389400       0.67102900 </v>
    <v>       0.24609300       0.49369300       0.84108300 </v>
    <v>       0.28289000       0.85103700       0.51377300 </v>
    <v>       0.25155600       0.83530300       0.83659700 </v>
    <v>       0.22766000       0.81858800       0.14831200 </v>
    <v>       0.48203900       0.33908600       0.66547400 </v>
    <v>       0.48990200       0.32223000       0.99185500 </v>
    <v>       0.76966500       0.48557100       0.50008400 </v>
    <v>       0.99497100       0.00152100       0.99655100 </v>
    <v>       0.00936300       0.31183600       0.98991100 </v>
    <v>       0.00759100       0.67292600       0.66605000 </v>
    <v>       0.48243800       0.99793700       0.31351000 </v>
    <v>       0.75596400       0.49271000       0.16925200 </v>
    <v>       0.50792000       0.67653600       0.99692600 </v>
    <v>       0.75221900       0.82673200       0.83206400 </v>
    <v>       0.25693200       0.17605400       0.16596000 </v>
    <v>       0.22145500       0.49016300       0.50869000 </v>
    <v>       0.99165500       0.67617300       0.99195500 </v>
    <v>       0.49786800       0.00476500       0.68027300 </v>
    <v>       0.73575000       0.17929100       0.81949700 </v>
    <v>       0.77079600       0.83080800       0.16923100 </v>
    <v>       0.26655200       0.16653400       0.82158600 </v>
    <v>       0.72144600       0.84277200       0.49857500 </v>
    <v>       0.00337100       0.00047600       0.67199700 </v>
    <v>       0.75182100       0.48920600       0.83209900 </v>
    <v>       0.23648900       0.50459900       0.15046300 </v>
    <v>       0.01814400       0.67928400       0.34622500 </v>
    <v>       0.50461000       0.00113000       0.99989900 </v>
    <v>       0.74973600       0.17221200       0.49985800 </v>
    <v>       0.48238200       0.66603800       0.33463300 </v>
    <v>       0.48635000       0.65800900       0.66926000 </v>
    <v>       0.46902200       0.34443900       0.34241000 </v>
    <v>       0.02069200       0.99735700       0.33278100 </v>
    <v>       0.74897800       0.18331500       0.18176600 </v>
   </varray>
  </structure>
  <varray name="forces" >
   <v>       0.00583867       0.00878625      -0.00477124 </v>
   <v>       0.03464667      -0.05002521      -0.03919106 </v>
   <v>       0.03126729      -0.04633724       0.05017038 </v>
   <v>      -0.00973132       0.00177312      -0.01439216 </v>
   <v>      -0.00158456      -0.00652911      -0.00273474 </v>
   <v>      -0.00036341      -0.00454849       0.00652427 </v>
   <v>      -0.00574448      -0.00486630       0.00637297 </v>
   <v>      -0.04564716      -0.06295492       0.05063529 </v>
   <v>      -0.00378525      -0.00504756       0.00336112 </v>
   <v>      -0.10528313       0.09313844      -0.02664329 </v>
   <v>       0.01495168      -0.00468452       0.00048680 </v>
   <v>       0.00988624       0.00029523      -0.00734675 </v>
   <v>       0.02703555       0.02267323       0.03511239 </v>
   <v>      -0.00404741      -0.00600406       0.00470261 </v>
   <v>      -0.00135092       0.02131637      -0.09509717 </v>
   <v>      -0.01387225      -0.00077429       0.00308322 </v>
   <v>       0.00071718      -0.02100310      -0.00424270 </v>
   <v>      -0.00303025       0.00619066      -0.00056722 </v>
   <v>       0.13264901      -0.01000772       0.02956137 </v>
   <v>       0.02040227      -0.00027997       0.00988505 </v>
   <v>      -0.00824676       0.00293377       0.00055058 </v>
   <v>      -0.00569950       0.01161622      -0.02626773 </v>
   <v>       0.00468611      -0.00960329       0.01177968 </v>
   <v>       0.00465994       0.01882305      -0.00499637 </v>
   <v>       0.00076897       0.05470378       0.00133329 </v>
   <v>       0.01400285       0.00619209       0.00070244 </v>
   <v>      -0.01448347       0.01058709       0.06133704 </v>
   <v>      -0.00545288       0.00575785       0.01571028 </v>
   <v>       0.03235907       0.03466421      -0.05029720 </v>
   <v>      -0.01037130      -0.00248481      -0.00078923 </v>
   <v>      -0.00300722      -0.10778969       0.02061466 </v>
   <v>      -0.04150202       0.03413627      -0.03874422 </v>
   <v>      -0.02800865       0.02428091       0.02240481 </v>
   <v>      -0.03490211      -0.03160421      -0.03154514 </v>
   <v>       0.01274569      -0.00177696      -0.00374544 </v>
   <v>      -0.00050313       0.01845289       0.01704343 </v>
  </varray>
  <varray name="stress" >
   <v>       1.29113123      -0.19862883      -0.05170144 </v>
   <v>      -0.19862885       1.06739476      -0.38867497 </v>
   <v>      -0.05170142      -0.38867488       1.16333931 </v>
  </varray>
  <energy>
   <i name="e_fr_energy">   -364.16228921 </i>
   <i name="e_wo_entrp">   -364.17162067 </i>
   <i name="e_0_energy">      0.02799438 </i>
  </energy>
  <time name="totalsc">   21.12   22.34</time>
 </calculation>
 <calculation>
  <scstep>
   <time name="dav">    1.02    1.03</time>
   <time name="total">    1.22    1.32</time>
   <energy>
    <i name="alphaZ">   1416.79344538 </i>
    <i name="ewald"> -17915.08011175 </i>
    <i name="hartreedc">  -6273.28208331 </i>
    <i name="XCdc">   -430.81552971 </i>
    <i name="pawpsdc">  32191.41228691 </i>
    <i name="pawaedc"> -30520.36340685 </i>
    <i name="eentropy">      0.02820195 </i>
    <i name="bandstr">  -2349.55373058 </i>
    <i name="atom">  23516.69635308 </i>
    <i name="e_fr_energy">   -364.16457490 </i>
    <i name="e_wo_entrp">   -364.19277684 </i>
    <i name="e_0_energy">   -364.17397555 </i>
   </energy>
  </scstep>
  <scstep>
   <time name="diag">    0.08    0.08</time>
   <time name="diis">    0.71    0.71</time>
   <time name="orth">    0.01    0.01</time>
   <time name="total">    1.03    1.06</time>
   <energy>
    <i name="e_fr_energy">   -364.16444286 </i>
    <i name="e_wo_entrp">   -364.19246440 </i>
    <i name="e_0_energy">   -364.17378337 </i>
   </energy>
  </scstep>
  <scstep>
   <time name="diag">    0.07    0.07</time>
   <time name="diis">    0.75    0.75</time>
   <time name="orth">    0.01    0.01</time>
   <time name="total">    0.89    0.92</time>
   <energy>
    <i name="e_fr_energy">   -364.16420180 </i>
    <i name="e_wo_entrp">   -364.19230808 </i>
    <i name="e_0_energy">   -364.17357056 </i>
   </energy>
  </scstep>
  <scstep>
   <time name="diag">    0.07    0.07</time>
   <time name="diis">    0.73    0.74</time>
   <time name="orth">    0.01    0.01</time>
   <time name="total">    0.88    0.91</time>
   <energy>
    <i name="e_fr_energy">   -364.16405549 </i>
    <i name="e_wo_entrp">   -364.19218676 </i>
    <i name="e_0_energy">   -364.17343258 </i>
   </energy>
  </scstep>
  <scstep>
   <time name="diag">    0.07    0.07</time>
   <time name="diis">    0.69    0.70</time>
   <time name="orth">    0.01    0.01</time>
   <time name="total">    0.85    0.87</time>
   <energy>
    <i name="e_fr_energy">   -364.16403378 </i>
    <i name="e_wo_entrp">   -364.19215112 </i>
    <i name="e_0_energy">   -364.17340622 </i>
   </energy>
  </scstep>
  <scstep>
   <time name="diag">    0.08    0.08</time>
   <time name="diis">    0.39    0.40</time>
   <time name="orth">    0.01    0.01</time>
   <time name="total">    0.52    0.55</time>
   <energy>
    <i name="alphaZ">   1416.79344538 </i>
    <i name="ewald"> -17915.08011175 </i>
    <i name="hartreedc">  -6275.81628160 </i>
    <i name="XCdc">   -430.70932388 </i>
    <i name="pawpsdc">  32160.82054436 </i>
    <i name="pawaedc"> -30489.68937567 </i>
    <i name="eentropy">      0.02810873 </i>
    <i name="bandstr">  -2347.20738692 </i>
    <i name="atom">  23516.69635308 </i>
    <i name="e_fr_energy">   -364.16402827 </i>
    <i name="e_wo_entrp">   -364.19213700 </i>
    <i name="e_0_energy">   -364.17339784 </i>
   </energy>
  </scstep>
  <structure>
   <crystal>
    <varray name="basis" >
     <v>       6.96152434       0.00698017       0.01696733 </v>
     <v>       0.01051409      10.25955585      -0.00330450 </v>
     <v>       0.02550943      -0.00362190      10.22186187 </v>
    </varray>
    <i name="volume">    730.06205308 </i>
    <varray name="rec_basis" >
     <v>       0.14364772      -0.00014733      -0.00035854 </v>
     <v>      -0.00009782       0.09747022       0.00003478 </v>
     <v>      -0.00023847       0.00003175       0.09783014 </v>
    </varray>
   </crystal>
   <varray name="positions" >
    <v>       0.25699015       0.16362339       0.50972323 </v>
    <v>       0.03305236       0.32410635       0.34057736 </v>
    <v>       0.01576986       0.32382860       0.67109993 </v>
    <v>       0.24607284       0.49369551       0.84106265 </v>
    <v>       0.28288673       0.85102779       0.51376913 </v>
    <v>       0.25155522       0.83529659       0.83660624 </v>
    <v>       0.22764803       0.81858114       0.14832104 </v>
    <v>       0.48194395       0.33899726       0.66554584 </v>
    <v>       0.48989412       0.32222289       0.99185977 </v>
    <v>       0.76944600       0.48570256       0.50004667 </v>
    <v>       0.99500210       0.00151437       0.99655164 </v>
    <v>       0.00938360       0.31183640       0.98990056 </v>
    <v>       0.00764699       0.67295797       0.66609964 </v>
    <v>       0.48242957       0.99792854       0.31351667 </v>
    <v>       0.75596164       0.49274004       0.16911734 </v>
    <v>       0.50789114       0.67653493       0.99693041 </v>
    <v>       0.75222056       0.82670236       0.83205798 </v>
    <v>       0.25692569       0.17606274       0.16595921 </v>
    <v>       0.22173071       0.49014870       0.50873140 </v>
    <v>       0.99169738       0.67617258       0.99196893 </v>
    <v>       0.49785084       0.00476915       0.68027381 </v>
    <v>       0.73573826       0.17930739       0.81945982 </v>
    <v>       0.77080570       0.83079445       0.16924766 </v>
    <v>       0.26656167       0.16656055       0.82157891 </v>
    <v>       0.72144747       0.84284918       0.49857691 </v>
    <v>       0.00340010       0.00048472       0.67199795 </v>
    <v>       0.75179054       0.48922098       0.83218592 </v>
    <v>       0.23647757       0.50460714       0.15048527 </v>
    <v>       0.01821148       0.67933284       0.34615367 </v>
    <v>       0.50458844       0.00112651       0.99989792 </v>
    <v>       0.74972988       0.17205993       0.49988717 </v>
    <v>       0.48229582       0.66608621       0.33457829 </v>
    <v>       0.48629159       0.65804331       0.66929183 </v>
    <v>       0.46894966       0.34439445       0.34236544 </v>
    <v>       0.02071853       0.99735447       0.33277565 </v>
    <v>       0.74897682       0.18334104       0.18179014 </v>
   </varray>
  </structure>
  <varray name="forces" >
   <v>       0.00450142       0.00794099      -0.00244333 </v>
   <v>       0.02940850      -0.04208084      -0.02840664 </v>
   <v>       0.02634673      -0.03699396       0.04011451 </v>
   <v>      -0.00852138      -0.00090368      -0.01299713 </v>
   <v>       0.00017976      -0.00444529      -0.00203982 </v>
   <v>      -0.00058443      -0.00209489       0.00733134 </v>
   <v>      -0.00674995      -0.00393565       0.00237934 </v>
   <v>      -0.03888312      -0.05685584       0.04621290 </v>
   <v>      -0.00465185      -0.00361528       0.00117547 </v>
   <v>      -0.09054076       0.07891934      -0.02636883 </v>
   <v>       0.01201964      -0.00660376       0.00015498 </v>
   <v>       0.00855106       0.00024682      -0.00829150 </v>
   <v>       0.02494151       0.01935426       0.02943816 </v>
   <v>      -0.00491633      -0.00662561       0.00259263 </v>
   <v>      -0.00209251       0.01886978      -0.08571148 </v>
   <v>      -0.01278834       0.00116008       0.00190101 </v>
   <v>       0.00163954      -0.02057910      -0.00171976 </v>
   <v>      -0.00181127       0.00436606      -0.00265747 </v>
   <v>       0.11402085      -0.01331997       0.02708916 </v>
   <v>       0.01712549       0.00079805       0.00831886 </v>
   <v>      -0.00866742       0.00226641       0.00129204 </v>
   <v>      -0.00566291       0.01042566      -0.02363774 </v>
   <v>       0.00522543      -0.00744982       0.00860685 </v>
   <v>       0.00527859       0.01576987      -0.00226951 </v>
   <v>       0.00108099       0.04783802       0.00067043 </v>
   <v>       0.01407632       0.00518775       0.00173320 </v>
   <v>      -0.01329385       0.00886313       0.05467309 </v>
   <v>      -0.00636073       0.00394196       0.01337576 </v>
   <v>       0.03009823       0.03056455      -0.04017078 </v>
   <v>      -0.00781295      -0.00253899      -0.00192759 </v>
   <v>      -0.00213787      -0.09135876       0.02031091 </v>
   <v>      -0.03737983       0.03350306      -0.03415304 </v>
   <v>      -0.02463393       0.02384693       0.02221526 </v>
   <v>      -0.02845649      -0.02884877      -0.02944264 </v>
   <v>       0.01208007      -0.00220394      -0.00348172 </v>
   <v>      -0.00062823       0.01659143       0.01613310 </v>
  </varray>
  <varray name="stress" >
   <v>       0.48457801      -0.17531172      -0.04158992 </v>
   <v>      -0.17531185       0.27663502      -0.30868547 </v>
   <v>      -0.04158988      -0.30868545       0.37123131 </v>
  </varray>
  <energy>
   <i name="e_fr_energy">   -364.16402827 </i>
   <i name="e_wo_entrp">   -364.17339784 </i>
   <i name="e_0_energy">      0.02810873 </i>
  </energy>
  <time name="totalsc">    7.01    7.31</time>
 </calculation>
 <calculation>
  <scstep>
   <time name="dav">    0.89    0.90</time>
   <time name="total">    1.07    1.16</time>
   <energy>
    <i name="alphaZ">   1414.05727254 </i>
    <i name="ewald"> -17903.70570482 </i>
    <i name="hartreedc">  -6271.58448308 </i>
    <i name="XCdc">   -431.22891406 </i>
    <i name="pawpsdc">  32162.56648568 </i>
    <i name="pawaedc"> -30491.45436274 </i>
    <i name="eentropy">      0.02865550 </i>
    <i name="bandstr">  -2359.54681912 </i>
    <i name="atom">  23516.69635308 </i>
    <i name="e_fr_energy">   -364.17151702 </i>
    <i name="e_wo_entrp">   -364.20017253 </i>
    <i name="e_0_energy">   -364.18106886 </i>
   </energy>
  </scstep>
  <scstep>
   <time name="diag">    0.13    0.13</time>
   <time name="diis">    0.66    0.71</time>
   <time name="orth">    0.01    0.01</time>
   <time name="total">    0.88    0.94</time>
   <energy>
    <i name="e_fr_energy">   -364.17004889 </i>
    <i name="e_wo_entrp">   -364.19814021 </i>
    <i name="e_0_energy">   -364.17941267 </i>
   </energy>
  </scstep>
  <scstep>
   <time name="diag">    0.07    0.07</time>
   <time name="diis">    0.74    0.75</time>
   <time name="orth">    0.01    0.01</time>
   <time name="total">    0.89    0.92</time>
   <energy>
    <i name="e_fr_energy">   -364.16786079 </i>
    <i name="e_wo_entrp">   -364.19623712 </i>
    <i name="e_0_energy">   -364.17731957 </i>
   </energy>
  </scstep>
  <scstep>
   <time name="diag">    0.07    0.07</time>
   <time name="diis">    0.82    0.82</time>
   <time name="orth">    0.01    0.01</time>
   <time name="total">    0.96    0.98</time>
   <energy>
    <i name="e_fr_energy">   -364.16658841 </i>
    <i name="e_wo_entrp">   -364.19502313 </i>
    <i name="e_0_energy">   -364.17606665 </i>
   </energy>
  </scstep>
  <scstep>
   <time name="diag">    0.07    0.07</time>
   <time name="diis">    0.75    0.76</time>
   <time name="orth">    0.01    0.01</time>
   <time name="total">    0.90    0.92</time>
   <energy>
    <i name="e_fr_energy">   -364.16642397 </i>
    <i name="e_wo_entrp">   -364.19482293 </i>
    <i name="e_0_energy">   -364.17589029 </i>
   </energy>
  </scstep>
  <scstep>
   <time name="diag">    0.07    0.07</time>
   <time name="diis">    0.72    0.73</time>
   <time name="orth">    0.01    0.01</time>
   <time name="total">    0.87    0.89</time>
   <energy>
    <i name="e_fr_energy">   -364.16641907 </i>
    <i name="e_wo_entrp">   -364.19478851 </i>
    <i name="e_0_energy">   -364.17587555 </i>
   </energy>
  </scstep>
  <scstep>
   <time name="diag">    0.07    0.07</time>
   <time name="diis">    0.66    0.66</time>
   <time name="orth">    0.01    0.01</time>
   <time name="total">    0.80    0.82</time>
   <energy>
    <i name="e_fr_energy">   -364.16641590 </i>
    <i name="e_wo_entrp">   -364.19483896 </i>
    <i name="e_0_energy">   -364.17589026 </i>
   </energy>
  </scstep>
  <scstep>
   <time name="diag">    0.07    0.07</time>
   <time name="diis">    0.52    0.53</time>
   <time name="orth">    0.01    0.01</time>
   <time name="total">    0.67    0.69</time>
   <energy>
    <i name="e_fr_energy">   -364.16641822 </i>
    <i name="e_wo_entrp">   -364.19482533 </i>
    <i name="e_0_energy">   -364.17588726 </i>
   </energy>
  </scstep>
  <scstep>
   <time name="diag">    0.08    0.08</time>
   <time name="diis">    0.45    0.45</time>
   <time name="orth">    0.01    0.01</time>
   <time name="total">    0.58    0.59</time>
   <energy>
    <i name="alphaZ">   1414.05727254 </i>
    <i name="ewald"> -17903.70570482 </i>
    <i name="hartreedc">  -6278.79337191 </i>
    <i name="XCdc">   -430.92635913 </i>
    <i name="pawpsdc">  32078.05837284 </i>
    <i name="pawaedc"> -30407.00848571 </i>
    <i name="eentropy">      0.02840930 </i>
    <i name="bandstr">  -2352.57290465 </i>
    <i name="atom">  23516.69635308 </i>
    <i name="e_fr_energy">   -364.16641845 </i>
    <i name="e_wo_entrp">   -364.19482775 </i>
    <i name="e_0_energy">   -364.17588822 </i>
   </energy>
  </scstep>
  <structure>
   <crystal>
    <varray name="basis" >
     <v>       6.96645836       0.00622152       0.01677904 </v>
     <v>       0.00940289      10.26556846      -0.00549608 </v>
     <v>       0.02523771      -0.00580793      10.22839132 </v>
    </varray>
    <i name="volume">    731.47470871 </i>
    <varray name="rec_basis" >
     <v>       0.14354593      -0.00013167      -0.00035426 </v>
     <v>      -0.00008713       0.09741313       0.00005553 </v>
     <v>      -0.00023552       0.00005256       0.09776770 </v>
    </varray>
   </crystal>
   <varray name="positions" >
    <v>       0.25702658       0.16366054       0.50970291 </v>
    <v>       0.03326938       0.32389444       0.34041046 </v>
    <v>       0.01596439       0.32363244       0.67131264 </v>
    <v>       0.24601235       0.49370303       0.84100162 </v>
    <v>       0.28287694       0.85100016       0.51375752 </v>
    <v>       0.25155288       0.83527735       0.83663395 </v>
    <v>       0.22761214       0.81856058       0.14834817 </v>
    <v>       0.48165887       0.33873111       0.66576131 </v>
    <v>       0.48987049       0.32220154       0.99187408 </v>
    <v>       0.76878917       0.48609713       0.49993471 </v>
    <v>       0.99509537       0.00149448       0.99655354 </v>
    <v>       0.00944537       0.31183760       0.98986925 </v>
    <v>       0.00781491       0.67305386       0.66624854 </v>
    <v>       0.48240429       0.99790315       0.31353668 </v>
    <v>       0.75595456       0.49283011       0.16871344 </v>
    <v>       0.50780458       0.67653172       0.99694365 </v>
    <v>       0.75222523       0.82661347       0.83203992 </v>
    <v>       0.25690676       0.17608895       0.16595684 </v>
    <v>       0.22255764       0.49010583       0.50885558 </v>
    <v>       0.99182447       0.67617132       0.99201070 </v>
    <v>       0.49779938       0.00478160       0.68027624 </v>
    <v>       0.73570305       0.17935653       0.81934832 </v>
    <v>       0.77083481       0.83075380       0.16929764 </v>
    <v>       0.26659070       0.16664018       0.82155767 </v>
    <v>       0.72145190       0.84308069       0.49858264 </v>
    <v>       0.00348739       0.00051086       0.67200080 </v>
    <v>       0.75169918       0.48926594       0.83244662 </v>
    <v>       0.23644328       0.50463155       0.15055207 </v>
    <v>       0.01841386       0.67947933       0.34593974 </v>
    <v>       0.50452379       0.00111604       0.99989467 </v>
    <v>       0.74971149       0.17160381       0.49997461 </v>
    <v>       0.48203736       0.66623079       0.33441419 </v>
    <v>       0.48611639       0.65814622       0.66938733 </v>
    <v>       0.46873267       0.34426080       0.34223176 </v>
    <v>       0.02079809       0.99734689       0.33275961 </v>
    <v>       0.74897330       0.18341916       0.18186257 </v>
   </varray>
  </structure>
  <varray name="forces" >
   <v>       0.00016074       0.00560687       0.00254590 </v>
   <v>       0.01559818      -0.02216911       0.00353135 </v>
   <v>       0.01513654      -0.01305463       0.01088353 </v>
   <v>      -0.00672264      -0.00690010      -0.00948259 </v>
   <v>       0.00474341       0.00219745      -0.00013982 </v>
   <v>      -0.00169283       0.00499961       0.00908595 </v>
   <v>      -0.00930765       0.00014656      -0.00780482 </v>
   <v>      -0.02231617      -0.04269231       0.03323583 </v>
   <v>      -0.00777777      -0.00170934      -0.00413616 </v>
   <v>      -0.04863221       0.04029746      -0.02699788 </v>
   <v>       0.00538719      -0.01180014       0.00033132 </v>
   <v>       0.00701323      -0.00130431      -0.00953601 </v>
   <v>       0.01942547       0.00938563       0.01185674 </v>
   <v>      -0.00558984      -0.00658202      -0.00239764 </v>
   <v>      -0.00356169       0.01211411      -0.05896253 </v>
   <v>      -0.01204397       0.00712518      -0.00211583 </v>
   <v>       0.00461693      -0.01964799       0.00576547 </v>
   <v>       0.00166671      -0.00105668      -0.00710324 </v>
   <v>       0.05843364      -0.02296536       0.01751343 </v>
   <v>       0.01029965       0.00455478       0.00519804 </v>
   <v>      -0.01201550       0.00005175      -0.00026137 </v>
   <v>      -0.00575885       0.00863614      -0.01874499 </v>
   <v>       0.00703298      -0.00216471      -0.00026724 </v>
   <v>       0.00823504       0.00668276       0.00400503 </v>
   <v>       0.00157218       0.03048515      -0.00121836 </v>
   <v>       0.01592655       0.00298394       0.00266406 </v>
   <v>      -0.00893447       0.00563347       0.03649231 </v>
   <v>      -0.01009620      -0.00109599       0.00814465 </v>
   <v>       0.02527913       0.01960897      -0.01071815 </v>
   <v>      -0.00183185      -0.00256917      -0.00394854 </v>
   <v>      -0.00028262      -0.04723002       0.01897553 </v>
   <v>      -0.02717032       0.03280725      -0.02039416 </v>
   <v>      -0.01582022       0.02373722       0.02071157 </v>
   <v>      -0.01137890      -0.02420465      -0.02279930 </v>
   <v>       0.01113904      -0.00134739      -0.00107476 </v>
   <v>      -0.00073294       0.01143961       0.01716270 </v>
  </varray>
  <varray name="stress" >
   <v>      -2.03085751      -0.06635316      -0.00435709 </v>
   <v>      -0.06635313      -2.18380542      -0.05009165 </v>
   <v>      -0.00435715      -0.05009163      -2.21846818 </v>
  </varray>
  <energy>
   <i name="e_fr_energy">   -364.16641845 </i>
   <i name="e_wo_entrp">   -364.17588822 </i>
   <i name="e_0_energy">      0.02840930 </i>
  </energy>
  <time name="totalsc">    9.19    9.54</time>
 </calculation>
 <calculation>
  <scstep>
   <time name="dav">    0.91    0.91</time>
   <time name="total">    1.08    1.19</time>
   <energy>
    <i name="alphaZ">   1415.11128670 </i>
    <i name="ewald"> -17907.97730351 </i>
    <i name="hartreedc">  -6280.45955637 </i>
    <i name="XCdc">   -430.73072167 </i>
    <i name="pawpsdc">  32077.53239368 </i>
    <i name="pawaedc"> -30406.57613524 </i>
    <i name="eentropy">      0.02816745 </i>
    <i name="bandstr">  -2347.79320730 </i>
    <i name="atom">  23516.69635308 </i>
    <i name="e_fr_energy">   -364.16872318 </i>
    <i name="e_wo_entrp">   -364.19689063 </i>
    <i name="e_0_energy">   -364.17811233 </i>
   </energy>
  </scstep>
  <scstep>
   <time name="diag">    0.07    0.07</time>
   <time name="diis">    0.64    0.77</time>
   <time name="orth">    0.01    0.01</time>
   <time name="total">    0.79    0.95</time>
   <energy>
    <i name="e_fr_energy">   -364.16844711 </i>
    <i name="e_wo_entrp">   -364.19669695 </i>
    <i name="e_0_energy">   -364.17786373 </i>
   </energy>
  </scstep>
  <scstep>
   <time name="diag">    0.07    0.07</time>
   <time name="diis">    0.75    0.75</time>
   <time name="orth">    0.01    0.01</time>
   <time name="total">    0.90    0.92</time>
   <energy>
    <i name="e_fr_energy">   -364.16813026 </i>
    <i name="e_wo_entrp">   -364.19639647 </i>
    <i name="e_0_energy">   -364.17755233 </i>
   </energy>
  </scstep>
  <scstep>
   <time name="diag">    0.07    0.07</time>
   <time name="diis">    0.86    0.86</time>
   <time name="orth">    0.01    0.01</time>
   <time name="total">    1.03    1.07</time>
   <energy>
    <i name="e_fr_energy">   -364.16800184 </i>
    <i name="e_wo_entrp">   -364.19620210 </i>
    <i name="e_0_energy">   -364.17740193 </i>
   </energy>
  </scstep>
  <scstep>
   <time name="diag">    0.12    0.12</time>
   <time name="diis">    0.69    0.69</time>
   <time name="orth">    0.01    0.01</time>
   <time name="total">    0.89    0.91</time>
   <energy>
    <i name="e_fr_energy">   -364.16799510 </i>
    <i name="e_wo_entrp">   -364.19622253 </i>
    <i name="e_0_energy">   -364.17740424 </i>
   </energy>
  </scstep>
  <scstep>
   <time name="diag">    0.07    0.07</time>
   <time name="diis">    0.49    0.49</time>
   <time name="orth">    0.01    0.01</time>
   <time name="total">    0.61    0.63</time>
   <energy>
    <i name="alphaZ">   1415.11128670 </i>
    <i name="ewald"> -17907.97730351 </i>
    <i name="hartreedc">  -6277.36898035 </i>
    <i name="XCdc">   -430.85935814 </i>
    <i name="pawpsdc">  32109.78418020 </i>
    <i name="pawaedc"> -30439.01465332 </i>
    <i name="eentropy">      0.02823052 </i>
    <i name="bandstr">  -2350.56775151 </i>
    <i name="atom">  23516.69635308 </i>
    <i name="e_fr_energy">   -364.16799634 </i>
    <i name="e_wo_entrp">   -364.19622685 </i>
    <i name="e_0_energy">   -364.17740651 </i>
   </energy>
  </scstep>
  <structure>
   <crystal>
    <varray name="basis" >
     <v>       6.96499922       0.00592976       0.01671648 </v>
     <v>       0.00897515      10.26278303      -0.00616867 </v>
     <v>       0.02514793      -0.00647893      10.22568837 </v>
    </varray>
    <i name="volume">    730.92988604 </i>
    <varray name="rec_basis" >
     <v>       0.14357599      -0.00012577      -0.00035317 </v>
     <v>      -0.00008311       0.09743957       0.00006194 </v>
     <v>      -0.00023476       0.00005899       0.09779354 </v>
    </varray>
   </crystal>
   <varray name="positions" >
    <v>       0.25703645       0.16367864       0.50970142 </v>
    <v>       0.03336054       0.32380582       0.34037199 </v>
    <v>       0.01604859       0.32356159       0.67138457 </v>
    <v>       0.24598179       0.49369469       0.84097145 </v>
    <v>       0.28288481       0.85099621       0.51375426 </v>
    <v>       0.25154848       0.83527980       0.83665484 </v>
    <v>       0.22758229       0.81855543       0.14834359 </v>
    <v>       0.48153501       0.33859771       0.66586758 </v>
    <v>       0.48984721       0.32219341       0.99187165 </v>
    <v>       0.76851026       0.48626065       0.49986515 </v>
    <v>       0.99513167       0.00147164       0.99655451 </v>
    <v>       0.00947703       0.31183594       0.98984673 </v>
    <v>       0.00790156       0.67309298       0.66630523 </v>
    <v>       0.48238539       0.99788668       0.31353833 </v>
    <v>       0.75594516       0.49287172       0.16851932 </v>
    <v>       0.50775539       0.67654154       0.99694399 </v>
    <v>       0.75223663       0.82656084       0.83204381 </v>
    <v>       0.25690552       0.17609422       0.16594556 </v>
    <v>       0.22290269       0.49006024       0.50891412 </v>
    <v>       0.99188038       0.67617780       0.99202940 </v>
    <v>       0.49775945       0.00478495       0.68027652 </v>
    <v>       0.73568123       0.17938229       0.81929106 </v>
    <v>       0.77085792       0.83073993       0.16931029 </v>
    <v>       0.26661639       0.16667100       0.82155810 </v>
    <v>       0.72145647       0.84318684       0.49858234 </v>
    <v>       0.00354528       0.00052215       0.67200548 </v>
    <v>       0.75165539       0.48928618       0.83256963 </v>
    <v>       0.23641203       0.50463633       0.15058180 </v>
    <v>       0.01852252       0.67954692       0.34586760 </v>
    <v>       0.50450286       0.00110945       0.99988790 </v>
    <v>       0.74970603       0.17141386       0.50002590 </v>
    <v>       0.48190993       0.66631767       0.33434079 </v>
    <v>       0.48603555       0.65820867       0.66944346 </v>
    <v>       0.46865098       0.34418963       0.34216259 </v>
    <v>       0.02084345       0.99734288       0.33275375 </v>
    <v>       0.74897065       0.18345673       0.18190728 </v>
   </varray>
  </structure>
  <varray name="forces" >
   <v>       0.00036377       0.00116621       0.00061019 </v>
   <v>       0.00362755      -0.01259004       0.01114907 </v>
   <v>       0.00530142      -0.00199793       0.00055557 </v>
   <v>      -0.00686314      -0.00363529      -0.00815152 </v>
   <v>       0.00095573       0.00123559      -0.00121549 </v>
   <v>      -0.00150862       0.00607444       0.00767704 </v>
   <v>      -0.00439811       0.00578336      -0.00790687 </v>
   <v>      -0.01020748      -0.03370842       0.02529359 </v>
   <v>      -0.00531971       0.00245570      -0.00165687 </v>
   <v>      -0.03457080       0.02847655      -0.02687802 </v>
   <v>       0.00071229      -0.00874770       0.00095968 </v>
   <v>       0.00313575      -0.00125180      -0.00689784 </v>
   <v>       0.01330203       0.00321688       0.00355747 </v>
   <v>      -0.00228355      -0.00448419      -0.00362284 </v>
   <v>      -0.00475483       0.01221348      -0.04624893 </v>
   <v>      -0.01037786       0.00500861      -0.00208301 </v>
   <v>       0.00431262      -0.01717773       0.00756453 </v>
   <v>       0.00131402      -0.00709670      -0.00969511 </v>
   <v>       0.04195520      -0.01873633       0.01461184 </v>
   <v>       0.00502770      -0.00063155       0.00381077 </v>
   <v>      -0.00760277      -0.00110871      -0.00141238 </v>
   <v>      -0.00186950       0.00239955      -0.01430773 </v>
   <v>       0.00264923       0.00087085      -0.00296842 </v>
   <v>       0.00377713      -0.00037102       0.01109873 </v>
   <v>       0.00612885       0.02125458      -0.00231999 </v>
   <v>       0.01311425       0.00093097       0.00258106 </v>
   <v>      -0.00606964       0.00851642       0.02924552 </v>
   <v>      -0.01125562      -0.00273981       0.00755631 </v>
   <v>       0.01964948       0.01209779       0.00019194 </v>
   <v>       0.00171002      -0.00169300      -0.00310997 </v>
   <v>      -0.00087141      -0.03279220       0.01654200 </v>
   <v>      -0.01927082       0.02811303      -0.01551671 </v>
   <v>      -0.00872397       0.02291177       0.01798812 </v>
   <v>       0.00061440      -0.02068960      -0.02240028 </v>
   <v>       0.00790115       0.00031344      -0.00009472 </v>
   <v>       0.00039526       0.00641281       0.01549328 </v>
  </varray>
  <varray name="stress" >
   <v>      -1.26186062      -0.03679795       0.00307842 </v>
   <v>      -0.03679798      -1.36821214       0.04741633 </v>
   <v>       0.00307841       0.04741630      -1.41650856 </v>
  </varray>
  <energy>
   <i name="e_fr_energy">   -364.16799634 </i>
   <i name="e_wo_entrp">   -364.17740651 </i>
   <i name="e_0_energy">      0.02823052 </i>
  </energy>
  <time name="totalsc">    6.94    7.43</time>
 </calculation>
 <calculation>
  <scstep>
   <time name="dav">    0.87    0.88</time>
   <time name="total">    1.06    1.14</time>
   <energy>
    <i name="alphaZ">   1417.30850306 </i>
    <i name="ewald"> -17916.83514552 </i>
    <i name="hartreedc">  -6281.07198771 </i>
    <i name="XCdc">   -430.44351990 </i>
    <i name="pawpsdc">  32107.53177144 </i>
    <i name="pawaedc"> -30436.74248354 </i>
    <i name="eentropy">      0.02772100 </i>
    <i name="bandstr">  -2340.64323515 </i>
    <i name="atom">  23516.69635308 </i>
    <i name="e_fr_energy">   -364.17202324 </i>
    <i name="e_wo_entrp">   -364.19974424 </i>
    <i name="e_0_energy">   -364.18126357 </i>
   </energy>
  </scstep>
  <scstep>
   <time name="diag">    0.07    0.07</time>
   <time name="diis">    0.70    0.70</time>
   <time name="orth">    0.01    0.01</time>
   <time name="total">    0.87    0.89</time>
   <energy>
    <i name="e_fr_energy">   -364.17100840 </i>
    <i name="e_wo_entrp">   -364.19884654 </i>
    <i name="e_0_energy">   -364.18028778 </i>
   </energy>
  </scstep>
  <scstep>
   <time name="diag">    0.07    0.07</time>
   <time name="diis">    0.81    0.82</time>
   <time name="orth">    0.01    0.01</time>
   <time name="total">    0.96    0.98</time>
   <energy>
    <i name="e_fr_energy">   -364.16959064 </i>
    <i name="e_wo_entrp">   -364.19750802 </i>
    <i name="e_0_energy">   -364.17889643 </i>
   </energy>
  </scstep>
  <scstep>
   <time name="diag">    0.07    0.07</time>
   <time name="diis">    0.85    0.85</time>
   <time name="orth">    0.01    0.01</time>
   <time name="total">    0.99    1.02</time>
   <energy>
    <i name="e_fr_energy">   -364.16907721 </i>
    <i name="e_wo_entrp">   -364.19683623 </i>
    <i name="e_0_energy">   -364.17833022 </i>
   </energy>
  </scstep>
  <scstep>
   <time name="diag">    0.08    0.08</time>
   <time name="diis">    0.69    0.84</time>
   <time name="orth">    0.01    0.01</time>
   <time name="total">    0.86    1.02</time>
   <energy>
    <i name="e_fr_energy">   -364.16904535 </i>
    <i name="e_wo_entrp">   -364.19686791 </i>
    <i name="e_0_energy">   -364.17831954 </i>
   </energy>
  </scstep>
  <scstep>
   <time name="diag">    0.07    0.07</time>
   <time name="diis">    0.70    0.71</time>
   <time name="orth">    0.01    0.01</time>
   <time name="total">    0.85    0.87</time>
   <energy>
    <i name="e_fr_energy">   -364.16904956 </i>
    <i name="e_wo_entrp">   -364.19687217 </i>
    <i name="e_0_energy">   -364.17832376 </i>
   </energy>
  </scstep>
  <scstep>
   <time name="diag">    0.07    0.07</time>
   <time name="diis">    0.64    0.64</time>
   <time name="orth">    0.01    0.01</time>
   <time name="total">    0.82    0.84</time>
   <energy>
    <i name="e_fr_energy">   -364.16907362 </i>
    <i name="e_wo_entrp">   -364.19687670 </i>
    <i name="e_0_energy">   -364.17834132 </i>
   </energy>
  </scstep>
  <scstep>
   <time name="diag">    0.11    0.11</time>
   <time name="diis">    0.47    0.47</time>
   <time name="orth">    0.01    0.01</time>
   <time name="total">    0.66    0.69</time>
   <energy>
    <i name="e_fr_energy">   -364.16908625 </i>
    <i name="e_wo_entrp">   -364.19689255 </i>
    <i name="e_0_energy">   -364.17835502 </i>
   </energy>
  </scstep>
  <scstep>
   <time name="diag">    0.08    0.08</time>
   <time name="diis">    0.41    0.41</time>
   <time name="orth">    0.01    0.01</time>
   <time name="total">    0.54    0.57</time>
   <energy>
    <i name="alphaZ">   1417.30850306 </i>
    <i name="ewald"> -17916.83514552 </i>
    <i name="hartreedc">  -6275.14249918 </i>
    <i name="XCdc">   -430.68994297 </i>
    <i name="pawpsdc">  32171.39594382 </i>
    <i name="pawaedc"> -30500.56747745 </i>
    <i name="eentropy">      0.02781028 </i>
    <i name="bandstr">  -2346.36263865 </i>
    <i name="atom">  23516.69635308 </i>
    <i name="e_fr_energy">   -364.16909354 </i>
    <i name="e_wo_entrp">   -364.19690382 </i>
    <i name="e_0_energy">   -364.17836364 </i>
   </energy>
  </scstep>
  <structure>
   <crystal>
    <varray name="basis" >
     <v>       6.96196222       0.00532251       0.01658628 </v>
     <v>       0.00808487      10.25698555      -0.00756857 </v>
     <v>       0.02496107      -0.00787550      10.22006253 </v>
    </varray>
    <i name="volume">    729.79674453 </i>
    <varray name="rec_basis" >
     <v>       0.14363859      -0.00011348      -0.00035090 </v>
     <v>      -0.00007472       0.09749465       0.00007531 </v>
     <v>      -0.00023317       0.00007238       0.09784738 </v>
    </varray>
   </crystal>
   <varray name="positions" >
    <v>       0.25705699       0.16371634       0.50969831 </v>
    <v>       0.03355031       0.32362131       0.34029189 </v>
    <v>       0.01622389       0.32341410       0.67153430 </v>
    <v>       0.24591815       0.49367731       0.84090862 </v>
    <v>       0.28290121       0.85098797       0.51374746 </v>
    <v>       0.25153932       0.83528489       0.83669833 </v>
    <v>       0.22752014       0.81854469       0.14833407 </v>
    <v>       0.48127715       0.33831998       0.66608882 </v>
    <v>       0.48979873       0.32217648       0.99186658 </v>
    <v>       0.76792962       0.48660106       0.49972033 </v>
    <v>       0.99520723       0.00142408       0.99655652 </v>
    <v>       0.00954295       0.31183250       0.98979984 </v>
    <v>       0.00808196       0.67317444       0.66642328 </v>
    <v>       0.48234605       0.99785238       0.31354178 </v>
    <v>       0.75592559       0.49295833       0.16811518 </v>
    <v>       0.50765301       0.67656198       0.99694470 </v>
    <v>       0.75226034       0.82645126       0.83205189 </v>
    <v>       0.25690293       0.17610520       0.16592208 </v>
    <v>       0.22362101       0.48996537       0.50903600 </v>
    <v>       0.99199677       0.67619128       0.99206833 </v>
    <v>       0.49767633       0.00479193       0.68027712 </v>
    <v>       0.73563583       0.17943590       0.81917183 </v>
    <v>       0.77090603       0.83071103       0.16933662 </v>
    <v>       0.26666990       0.16673517       0.82155899 </v>
    <v>       0.72146601       0.84340784       0.49858174 </v>
    <v>       0.00366581       0.00054565       0.67201525 </v>
    <v>       0.75156424       0.48932834       0.83282572 </v>
    <v>       0.23634698       0.50464627       0.15064371 </v>
    <v>       0.01874873       0.67968765       0.34571744 </v>
    <v>       0.50445928       0.00109575       0.99987381 </v>
    <v>       0.74969464       0.17101840       0.50013264 </v>
    <v>       0.48164466       0.66649852       0.33418797 </v>
    <v>       0.48586726       0.65833869       0.66956035 </v>
    <v>       0.46848093       0.34404144       0.34201858 </v>
    <v>       0.02093788       0.99733453       0.33274157 </v>
    <v>       0.74896515       0.18353494       0.18200038 </v>
   </varray>
  </structure>
  <varray name="forces" >
   <v>      -0.00017159      -0.00629930      -0.00324391 </v>
   <v>      -0.02249534       0.00754109       0.02844905 </v>
   <v>      -0.01656010       0.02106301      -0.02149472 </v>
   <v>      -0.00607208       0.00164354      -0.00587093 </v>
   <v>      -0.00695039      -0.00152707      -0.00371606 </v>
   <v>      -0.00106685       0.00889129       0.00558461 </v>
   <v>       0.00510297       0.01730658      -0.00820899 </v>
   <v>       0.01656004      -0.01561333       0.00908781 </v>
   <v>       0.00093265       0.01143973       0.00297321 </v>
   <v>      -0.00927928       0.00550864      -0.02704440 </v>
   <v>      -0.00907945      -0.00278359       0.00251115 </v>
   <v>      -0.00519315      -0.00091854      -0.00185695 </v>
   <v>       0.00070576      -0.00970316      -0.01288053 </v>
   <v>       0.00468655      -0.00061284      -0.00657645 </v>
   <v>      -0.00755526       0.01169918      -0.02069440 </v>
   <v>      -0.00583970       0.00104380      -0.00167141 </v>
   <v>       0.00386569      -0.01312099       0.01043799 </v>
   <v>       0.00133167      -0.01923687      -0.01566770 </v>
   <v>       0.00774110      -0.00864480       0.00739847 </v>
   <v>      -0.00658403      -0.01140558      -0.00001639 </v>
   <v>       0.00196975      -0.00329854      -0.00306953 </v>
   <v>       0.00602392      -0.00969790      -0.00511831 </v>
   <v>      -0.00541058       0.00729070      -0.00735332 </v>
   <v>      -0.00542846      -0.01460038       0.02606727 </v>
   <v>       0.01702890       0.00171786      -0.00554236 </v>
   <v>       0.00650406      -0.00145199       0.00151755 </v>
   <v>      -0.00157961       0.01265680       0.01301907 </v>
   <v>      -0.01317417      -0.00788559       0.00771610 </v>
   <v>       0.00663243      -0.00343006       0.02376359 </v>
   <v>       0.01176668       0.00111446      -0.00090610 </v>
   <v>      -0.00164216      -0.00254233       0.01092522 </v>
   <v>      -0.00193181       0.01767352      -0.00468632 </v>
   <v>       0.00694646       0.01889355       0.01145186 </v>
   <v>       0.02621904      -0.01217326      -0.01978689 </v>
   <v>      -0.00108043       0.00393718       0.00241551 </v>
   <v>       0.00307677      -0.00447479       0.01208722 </v>
  </varray>
  <varray name="stress" >
   <v>       0.84502510       0.02300909       0.03555285 </v>
   <v>       0.02300913       0.87779934       0.26324248 </v>
   <v>       0.03555285       0.26324247       0.75601011 </v>
  </varray>
  <energy>
   <i name="e_fr_energy">   -364.16909354 </i>
   <i name="e_wo_entrp">   -364.17836364 </i>
   <i name="e_0_energy">      0.02781028 </i>
  </energy>
  <time name="totalsc">    9.14    9.58</time>
 </calculation>
 <calculation>
  <scstep>
   <time name="dav">    0.91    0.92</time>
   <time name="total">    1.12    1.21</time>
   <energy>
    <i name="alphaZ">   1417.03533901 </i>
    <i name="ewald"> -17915.73738432 </i>
    <i name="hartreedc">  -6274.72050197 </i>
    <i name="XCdc">   -430.74001961 </i>
    <i name="pawpsdc">  32171.92329243 </i>
    <i name="pawaedc"> -30501.04167499 </i>
    <i name="eentropy">      0.02787006 </i>
    <i name="bandstr">  -2347.61246865 </i>
    <i name="atom">  23516.69635308 </i>
    <i name="e_fr_energy">   -364.16919495 </i>
    <i name="e_wo_entrp">   -364.19706500 </i>
    <i name="e_0_energy">   -364.17848496 </i>
   </energy>
  </scstep>
  <scstep>
   <time name="diag">    0.07    0.07</time>
   <time name="diis">    0.73    0.73</time>
   <time name="orth">    0.01    0.01</time>
   <time name="total">    0.88    0.90</time>
   <energy>
    <i name="e_fr_energy">   -364.16918200 </i>
    <i name="e_wo_entrp">   -364.19703635 </i>
    <i name="e_0_energy">   -364.17846679 </i>
   </energy>
  </scstep>
  <scstep>
   <time name="diag">    0.10    0.10</time>
   <time name="diis">    0.67    0.67</time>
   <time name="orth">    0.01    0.01</time>
   <time name="total">    0.87    0.89</time>
   <energy>
    <i name="e_fr_energy">   -364.16915674 </i>
    <i name="e_wo_entrp">   -364.19700148 </i>
    <i name="e_0_energy">   -364.17843832 </i>
   </energy>
  </scstep>
  <scstep>
   <time name="diag">    0.09    0.09</time>
   <time name="diis">    0.32    0.32</time>
   <time name="orth">    0.01    0.01</time>
   <time name="total">    0.50    0.52</time>
   <energy>
    <i name="e_fr_energy">   -364.16914495 </i>
    <i name="e_wo_entrp">   -364.19701134 </i>
    <i name="e_0_energy">   -364.17843375 </i>
   </energy>
  </scstep>
  <scstep>
   <time name="diag">    0.07    0.07</time>
   <time name="diis">    0.30    0.30</time>
   <time name="orth">    0.01    0.01</time>
   <time name="total">    0.42    0.43</time>
   <energy>
    <i name="alphaZ">   1417.03533901 </i>
    <i name="ewald"> -17915.73738432 </i>
    <i name="hartreedc">  -6275.57551824 </i>
    <i name="XCdc">   -430.70414054 </i>
    <i name="pawpsdc">  32163.60920344 </i>
    <i name="pawaedc"> -30492.62969089 </i>
    <i name="eentropy">      0.02785825 </i>
    <i name="bandstr">  -2346.89116251 </i>
    <i name="atom">  23516.69635308 </i>
    <i name="e_fr_energy">   -364.16914270 </i>
    <i name="e_wo_entrp">   -364.19700095 </i>
    <i name="e_0_energy">   -364.17842878 </i>
   </energy>
  </scstep>
  <structure>
   <crystal>
    <varray name="basis" >
     <v>       6.96233944       0.00539793       0.01660245 </v>
     <v>       0.00819545      10.25770564      -0.00739469 </v>
     <v>       0.02498428      -0.00770204      10.22076131 </v>
    </varray>
    <i name="volume">    729.93742855 </i>
    <varray name="rec_basis" >
     <v>       0.14363081      -0.00011501      -0.00035119 </v>
     <v>      -0.00007576       0.09748780       0.00007365 </v>
     <v>      -0.00023337       0.00007072       0.09784069 </v>
    </varray>
   </crystal>
   <varray name="positions" >
    <v>       0.25705443       0.16371165       0.50969870 </v>
    <v>       0.03352673       0.32364424       0.34030185 </v>
    <v>       0.01620211       0.32343243       0.67151569 </v>
    <v>       0.24592606       0.49367947       0.84091643 </v>
    <v>       0.28289917       0.85098899       0.51374830 </v>
    <v>       0.25154046       0.83528426       0.83669292 </v>
    <v>       0.22752787       0.81854603       0.14833525 </v>
    <v>       0.48130919       0.33835449       0.66606133 </v>
    <v>       0.48980475       0.32217858       0.99186721 </v>
    <v>       0.76800177       0.48655876       0.49973832 </v>
    <v>       0.99519784       0.00142999       0.99655627 </v>
    <v>       0.00953476       0.31183292       0.98980567 </v>
    <v>       0.00805954       0.67316431       0.66640861 </v>
    <v>       0.48235094       0.99785664       0.31354135 </v>
    <v>       0.75592802       0.49294757       0.16816541 </v>
    <v>       0.50766573       0.67655944       0.99694461 </v>
    <v>       0.75225740       0.82646488       0.83205088 </v>
    <v>       0.25690325       0.17610383       0.16592500 </v>
    <v>       0.22353175       0.48997716       0.50902085 </v>
    <v>       0.99198230       0.67618960       0.99206349 </v>
    <v>       0.49768666       0.00479106       0.68027705 </v>
    <v>       0.73564147       0.17942924       0.81918665 </v>
    <v>       0.77090005       0.83071462       0.16933335 </v>
    <v>       0.26666325       0.16672720       0.82155888 </v>
    <v>       0.72146482       0.84338037       0.49858181 </v>
    <v>       0.00365084       0.00054273       0.67201403 </v>
    <v>       0.75157557       0.48932310       0.83279389 </v>
    <v>       0.23635506       0.50464504       0.15063601 </v>
    <v>       0.01872062       0.67967016       0.34573609 </v>
    <v>       0.50446470       0.00109745       0.99987556 </v>
    <v>       0.74969606       0.17106754       0.50011938 </v>
    <v>       0.48167763       0.66647605       0.33420696 </v>
    <v>       0.48588817       0.65832253       0.66954582 </v>
    <v>       0.46850206       0.34405986       0.34203648 </v>
    <v>       0.02092615       0.99733557       0.33274308 </v>
    <v>       0.74896583       0.18352522       0.18198881 </v>
   </varray>
  </structure>
  <varray name="forces" >
   <v>      -0.00016233      -0.00472236      -0.00286251 </v>
   <v>      -0.01873848       0.00457236       0.02633265 </v>
   <v>      -0.01339356       0.01769566      -0.01795847 </v>
   <v>      -0.00630667       0.00103927      -0.00680390 </v>
   <v>      -0.00603236      -0.00149508      -0.00352524 </v>
   <v>      -0.00098370       0.00856461       0.00580280 </v>
   <v>       0.00374777       0.01574393      -0.00795010 </v>
   <v>       0.01221175      -0.01881221       0.01178599 </v>
   <v>       0.00027585       0.01019287       0.00229994 </v>
   <v>      -0.01269323       0.00904744      -0.02731190 </v>
   <v>      -0.00829478      -0.00353736       0.00208197 </v>
   <v>      -0.00416518      -0.00114852      -0.00278043 </v>
   <v>       0.00178380      -0.00871199      -0.01132193 </v>
   <v>       0.00382595      -0.00132458      -0.00684312 </v>
   <v>      -0.00707019       0.01152052      -0.02364071 </v>
   <v>      -0.00641036       0.00204135      -0.00177017 </v>
   <v>       0.00351647      -0.01343604       0.00969475 </v>
   <v>       0.00175761      -0.01704132      -0.01453852 </v>
   <v>       0.01309460      -0.01059535       0.00819219 </v>
   <v>      -0.00502982      -0.00994755       0.00057222 </v>
   <v>       0.00082180      -0.00373398      -0.00238282 </v>
   <v>       0.00517536      -0.00737189      -0.00676465 </v>
   <v>      -0.00450383       0.00658713      -0.00637975 </v>
   <v>      -0.00392814      -0.01263831       0.02398372 </v>
   <v>       0.01574714       0.00467857      -0.00511968 </v>
   <v>       0.00741189      -0.00127195       0.00183437 </v>
   <v>      -0.00232866       0.01250838       0.01561668 </v>
   <v>      -0.01299246      -0.00700569       0.00795562 </v>
   <v>       0.00849564      -0.00097176       0.02055704 </v>
   <v>       0.01082087       0.00044936      -0.00133550 </v>
   <v>      -0.00133637      -0.00712560       0.01186265 </v>
   <v>      -0.00438269       0.01941202      -0.00640433 </v>
   <v>       0.00478212       0.01973771       0.01263981 </v>
   <v>       0.02257793      -0.01338528      -0.02019413 </v>
   <v>      -0.00007261       0.00331028       0.00200131 </v>
   <v>       0.00277888      -0.00282468       0.01267414 </v>
  </varray>
  <varray name="stress" >
   <v>       0.77020917       0.01475403       0.03518563 </v>
   <v>       0.01475397       0.79486260       0.24480113 </v>
   <v>       0.03518569       0.24480113       0.69211924 </v>
  </varray>
  <energy>
   <i name="e_fr_energy">   -364.16914270 </i>
   <i name="e_wo_entrp">   -364.17842878 </i>
   <i name="e_0_energy">      0.02785825 </i>
  </energy>
  <time name="totalsc">    5.27    5.60</time>
 </calculation>
 <calculation>
  <scstep>
   <time name="dav">    0.96    0.96</time>
   <time name="total">    1.15    1.23</time>
   <energy>
    <i name="alphaZ">   1416.72267608 </i>
    <i name="ewald"> -17914.10117060 </i>
    <i name="hartreedc">  -6275.47396773 </i>
[...]
       <r>    6.4555    1.0000 </r>
       <r>    6.4812    1.0000 </r>
       <r>    6.5154    1.0000 </r>
       <r>    6.6103    1.0000 </r>
       <r>    6.6277    1.0000 </r>
       <r>    6.6542    1.0000 </r>
       <r>    6.6968    1.0000 </r>
       <r>    6.7384    1.0000 </r>
       <r>    6.7592    1.0000 </r>
       <r>    6.8245    1.0000 </r>
       <r>    6.8545    1.0001 </r>
       <r>    6.8795    1.0003 </r>
       <r>    6.9281    1.0012 </r>
       <r>    6.9696    1.0038 </r>
       <r>    6.9989    1.0076 </r>
       <r>    7.0221    1.0122 </r>
       <r>    7.0795    1.0286 </r>
       <r>    7.1110    1.0352 </r>
       <r>    7.1414    1.0306 </r>
       <r>    7.1599    1.0180 </r>
       <r>    7.2068    0.9328 </r>
       <r>    7.2551    0.7469 </r>
       <r>    7.2769    0.6350 </r>
       <r>    7.3312    0.3344 </r>
       <r>    7.3728    0.1425 </r>
       <r>    7.4178    0.0160 </r>
       <r>    7.4524   -0.0260 </r>
       <r>    7.4807   -0.0353 </r>
       <r>    7.5371   -0.0243 </r>
       <r>    7.5535   -0.0193 </r>
       <r>    7.6046   -0.0074 </r>
       <r>    7.6199   -0.0052 </r>
       <r>    7.6589   -0.0019 </r>
       <r>    7.6801   -0.0010 </r>
       <r>    7.7036   -0.0005 </r>
       <r>    7.7713   -0.0000 </r>
       <r>    7.8177   -0.0000 </r>
       <r>    7.8627   -0.0000 </r>
       <r>    7.9115   -0.0000 </r>
       <r>    7.9404   -0.0000 </r>
       <r>    8.0153   -0.0000 </r>
       <r>    8.0487   -0.0000 </r>
       <r>    8.0980   -0.0000 </r>
       <r>    8.1167   -0.0000 </r>
       <r>    8.1760   -0.0000 </r>
       <r>    8.4754   -0.0000 </r>
       <r>    8.5817   -0.0000 </r>
       <r>    8.6377   -0.0000 </r>
       <r>    9.2177   -0.0000 </r>
      </set>
     </set>
    </set>
   </array>
  </eigenvalues>
  <separator name="orbital magnetization" >
   <v name="MAGDIPOLOUT">      0.00000000      0.00000000      0.00000000</v>
  </separator>
  <dos>
   <i name="efermi">      7.30120461 </i>
   <total>
    <array>
     <dimension dim="1">gridpoints</dimension>
     <dimension dim="2">spin</dimension>
     <field>energy</field>
     <field>total</field>
     <field>integrated</field>
     <set>
      <set comment="spin 1">
       <r>   -49.7962     0.0000     0.0000 </r>
       <r>   -49.5901     0.0000     0.0000 </r>
       <r>   -49.3840     0.0000     0.0000 </r>
       <r>   -49.1779     0.0000     0.0000 </r>
       <r>   -48.9718     0.0000     0.0000 </r>
       <r>   -48.7658     0.0000     0.0000 </r>
       <r>   -48.5597     0.0000     0.0000 </r>
       <r>   -48.3536    -0.0000    -0.0000 </r>
       <r>   -48.1475    -0.0000    -0.0000 </r>
       <r>   -47.9414    -0.0000    -0.0000 </r>
       <r>   -47.7354    -0.0000    -0.0000 </r>
       <r>   -47.5293    -0.0000    -0.0000 </r>
       <r>   -47.3232    -0.0483    -0.0100 </r>
       <r>   -47.1171    -0.7809    -0.1709 </r>
       <r>   -46.9110    20.8714     4.1303 </r>
       <r>   -46.7050    47.6004    13.9398 </r>
       <r>   -46.4989    10.8152    16.1686 </r>
       <r>   -46.2928    -0.8124    16.0012 </r>
       <r>   -46.0867    -0.0057    16.0000 </r>
       <r>   -45.8806    -0.0000    16.0000 </r>
       <r>   -45.6746    -0.0000    16.0000 </r>
       <r>   -45.4685     0.0000    16.0000 </r>
       <r>   -45.2624     0.0000    16.0000 </r>
       <r>   -45.0563     0.0000    16.0000 </r>
       <r>   -44.8502     0.0000    16.0000 </r>
       <r>   -44.6442     0.0000    16.0000 </r>
       <r>   -44.4381     0.0000    16.0000 </r>
       <r>   -44.2320     0.0000    16.0000 </r>
       <r>   -44.0259     0.0000    16.0000 </r>
       <r>   -43.8198     0.0000    16.0000 </r>
       <r>   -43.6137     0.0000    16.0000 </r>
       <r>   -43.4077     0.0000    16.0000 </r>
       <r>   -43.2016     0.0000    16.0000 </r>
       <r>   -42.9955     0.0000    16.0000 </r>
       <r>   -42.7894     0.0000    16.0000 </r>
       <r>   -42.5833     0.0000    16.0000 </r>
       <r>   -42.3773    -0.0000    16.0000 </r>
       <r>   -42.1712    -0.0000    16.0000 </r>
       <r>   -41.9651    -0.0000    16.0000 </r>
       <r>   -41.7590    -0.0000    16.0000 </r>
       <r>   -41.5529    -0.0001    16.0000 </r>
       <r>   -41.3469    -0.0938    15.9806 </r>
       <r>   -41.1408     0.4095    16.0650 </r>
       <r>   -40.9347    15.5114    19.2616 </r>
       <r>   -40.7286    36.5021    26.7840 </r>
       <r>   -40.5225    16.5976    30.2044 </r>
       <r>   -40.3165    -0.9747    30.0035 </r>
       <r>   -40.1104    -0.0172    30.0000 </r>
       <r>   -39.9043    -0.0000    30.0000 </r>
       <r>   -39.6982    -0.0000    30.0000 </r>
       <r>   -39.4921     0.0000    30.0000 </r>
       <r>   -39.2861     0.0000    30.0000 </r>
       <r>   -39.0800     0.0000    30.0000 </r>
       <r>   -38.8739     0.0000    30.0000 </r>
       <r>   -38.6678     0.0000    30.0000 </r>
       <r>   -38.4617     0.0000    30.0000 </r>
       <r>   -38.2557     0.0000    30.0000 </r>
       <r>   -38.0496     0.0000    30.0000 </r>
       <r>   -37.8435     0.0000    30.0000 </r>
       <r>   -37.6374     0.0000    30.0000 </r>
       <r>   -37.4313     0.0000    30.0000 </r>
       <r>   -37.2253     0.0000    30.0000 </r>
       <r>   -37.0192     0.0000    30.0000 </r>
       <r>   -36.8131     0.0000    30.0000 </r>
       <r>   -36.6070     0.0000    30.0000 </r>
       <r>   -36.4009     0.0000    30.0000 </r>
       <r>   -36.1949     0.0000    30.0000 </r>
       <r>   -35.9888     0.0000    30.0000 </r>
       <r>   -35.7827     0.0000    30.0000 </r>
       <r>   -35.5766     0.0000    30.0000 </r>
       <r>   -35.3705     0.0000    30.0000 </r>
       <r>   -35.1645     0.0000    30.0000 </r>
       <r>   -34.9584     0.0000    30.0000 </r>
       <r>   -34.7523     0.0000    30.0000 </r>
       <r>   -34.5462     0.0000    30.0000 </r>
       <r>   -34.3401     0.0000    30.0000 </r>
       <r>   -34.1341     0.0000    30.0000 </r>
       <r>   -33.9280     0.0000    30.0000 </r>
       <r>   -33.7219     0.0000    30.0000 </r>
       <r>   -33.5158     0.0000    30.0000 </r>
       <r>   -33.3097     0.0000    30.0000 </r>
       <r>   -33.1037     0.0000    30.0000 </r>
       <r>   -32.8976     0.0000    30.0000 </r>
       <r>   -32.6915     0.0000    30.0000 </r>
       <r>   -32.4854     0.0000    30.0000 </r>
       <r>   -32.2793     0.0000    30.0000 </r>
       <r>   -32.0733     0.0000    30.0000 </r>
       <r>   -31.8672     0.0000    30.0000 </r>
       <r>   -31.6611     0.0000    30.0000 </r>
       <r>   -31.4550     0.0000    30.0000 </r>
       <r>   -31.2489     0.0000    30.0000 </r>
       <r>   -31.0429     0.0000    30.0000 </r>
       <r>   -30.8368     0.0000    30.0000 </r>
       <r>   -30.6307     0.0000    30.0000 </r>
       <r>   -30.4246     0.0000    30.0000 </r>
       <r>   -30.2185     0.0000    30.0000 </r>
       <r>   -30.0125     0.0000    30.0000 </r>
       <r>   -29.8064     0.0000    30.0000 </r>
       <r>   -29.6003     0.0000    30.0000 </r>
       <r>   -29.3942     0.0000    30.0000 </r>
       <r>   -29.1881     0.0000    30.0000 </r>
       <r>   -28.9821     0.0000    30.0000 </r>
       <r>   -28.7760     0.0000    30.0000 </r>
       <r>   -28.5699     0.0000    30.0000 </r>
       <r>   -28.3638     0.0000    30.0000 </r>
       <r>   -28.1577     0.0000    30.0000 </r>
       <r>   -27.9516     0.0000    30.0000 </r>
       <r>   -27.7456     0.0000    30.0000 </r>
       <r>   -27.5395     0.0000    30.0000 </r>
       <r>   -27.3334     0.0000    30.0000 </r>
       <r>   -27.1273     0.0000    30.0000 </r>
       <r>   -26.9212     0.0000    30.0000 </r>
       <r>   -26.7152     0.0000    30.0000 </r>
       <r>   -26.5091     0.0000    30.0000 </r>
       <r>   -26.3030     0.0000    30.0000 </r>
       <r>   -26.0969     0.0000    30.0000 </r>
       <r>   -25.8908     0.0000    30.0000 </r>
       <r>   -25.6848     0.0000    30.0000 </r>
       <r>   -25.4787     0.0000    30.0000 </r>
       <r>   -25.2726     0.0000    30.0000 </r>
       <r>   -25.0665     0.0000    30.0000 </r>
       <r>   -24.8604     0.0000    30.0000 </r>
       <r>   -24.6544    -0.0000    30.0000 </r>
       <r>   -24.4483    -0.0000    30.0000 </r>
       <r>   -24.2422    -0.0000    30.0000 </r>
       <r>   -24.0361    -0.0000    30.0000 </r>
       <r>   -23.8300    -0.0008    29.9998 </r>
       <r>   -23.6240    -0.2488    29.9486 </r>
       <r>   -23.4179     2.1908    30.4001 </r>
       <r>   -23.2118    25.1685    35.5868 </r>
       <r>   -23.0057    67.9524    49.5904 </r>
       <r>   -22.7996    98.0440    69.7954 </r>
       <r>   -22.5936    33.0132    76.5987 </r>
       <r>   -22.3875     7.3566    78.1148 </r>
       <r>   -22.1814    -0.5506    78.0013 </r>
       <r>   -21.9753    -0.0063    78.0000 </r>
       <r>   -21.7692    -0.0000    78.0000 </r>
       <r>   -21.5632    -0.0000    78.0000 </r>
       <r>   -21.3571     0.0000    78.0000 </r>
       <r>   -21.1510     0.0000    78.0000 </r>
       <r>   -20.9449     0.0000    78.0000 </r>
       <r>   -20.7388     0.0000    78.0000 </r>
       <r>   -20.5328    -0.0000    78.0000 </r>
       <r>   -20.3267    -0.0000    78.0000 </r>
       <r>   -20.1206    -0.0000    78.0000 </r>
       <r>   -19.9145    -0.0000    78.0000 </r>
       <r>   -19.7084    -0.0009    77.9998 </r>
       <r>   -19.5024    -0.3732    77.9229 </r>
       <r>   -19.2963     3.4680    78.6376 </r>
       <r>   -19.0902    37.2888    86.3221 </r>
       <r>   -18.8841    79.0961   102.6222 </r>
       <r>   -18.6780    83.2664   119.7818 </r>
       <r>   -18.4720     1.4977   120.0904 </r>
       <r>   -18.2659    -0.4379   120.0002 </r>
       <r>   -18.0598    -0.0008   120.0000 </r>
       <r>   -17.8537    -0.0000   120.0000 </r>
       <r>   -17.6476    -0.0000   120.0000 </r>
       <r>   -17.4416     0.0000   120.0000 </r>
       <r>   -17.2355     0.0000   120.0000 </r>
       <r>   -17.0294     0.0000   120.0000 </r>
       <r>   -16.8233     0.0000   120.0000 </r>
       <r>   -16.6172     0.0000   120.0000 </r>
       <r>   -16.4112     0.0000   120.0000 </r>
       <r>   -16.2051     0.0000   120.0000 </r>
       <r>   -15.9990     0.0000   120.0000 </r>
       <r>   -15.7929     0.0000   120.0000 </r>
       <r>   -15.5868     0.0000   120.0000 </r>
       <r>   -15.3808     0.0000   120.0000 </r>
       <r>   -15.1747     0.0000   120.0000 </r>
       <r>   -14.9686     0.0000   120.0000 </r>
       <r>   -14.7625     0.0000   120.0000 </r>
       <r>   -14.5564     0.0000   120.0000 </r>
       <r>   -14.3504     0.0000   120.0000 </r>
       <r>   -14.1443     0.0000   120.0000 </r>
       <r>   -13.9382     0.0000   120.0000 </r>
       <r>   -13.7321     0.0000   120.0000 </r>
       <r>   -13.5260     0.0000   120.0000 </r>
       <r>   -13.3200     0.0000   120.0000 </r>
       <r>   -13.1139     0.0000   120.0000 </r>
       <r>   -12.9078     0.0000   120.0000 </r>
       <r>   -12.7017     0.0000   120.0000 </r>
       <r>   -12.4956     0.0000   120.0000 </r>
       <r>   -12.2895     0.0000   120.0000 </r>
       <r>   -12.0835     0.0000   120.0000 </r>
       <r>   -11.8774     0.0000   120.0000 </r>
       <r>   -11.6713     0.0000   120.0000 </r>
       <r>   -11.4652     0.0000   120.0000 </r>
       <r>   -11.2591     0.0000   120.0000 </r>
       <r>   -11.0531     0.0000   120.0000 </r>
       <r>   -10.8470     0.0000   120.0000 </r>
       <r>   -10.6409     0.0000   120.0000 </r>
       <r>   -10.4348     0.0000   120.0000 </r>
       <r>   -10.2287     0.0000   120.0000 </r>
       <r>   -10.0227     0.0000   120.0000 </r>
       <r>    -9.8166     0.0000   120.0000 </r>
       <r>    -9.6105     0.0000   120.0000 </r>
       <r>    -9.4044     0.0000   120.0000 </r>
       <r>    -9.1983     0.0000   120.0000 </r>
       <r>    -8.9923     0.0000   120.0000 </r>
       <r>    -8.7862     0.0000   120.0000 </r>
       <r>    -8.5801     0.0000   120.0000 </r>
       <r>    -8.3740     0.0000   120.0000 </r>
       <r>    -8.1679     0.0000   120.0000 </r>
       <r>    -7.9619     0.0000   120.0000 </r>
       <r>    -7.7558     0.0000   120.0000 </r>
       <r>    -7.5497     0.0000   120.0000 </r>
       <r>    -7.3436     0.0000   120.0000 </r>
       <r>    -7.1375     0.0000   120.0000 </r>
       <r>    -6.9315     0.0000   120.0000 </r>
       <r>    -6.7254     0.0000   120.0000 </r>
       <r>    -6.5193     0.0000   120.0000 </r>
       <r>    -6.3132     0.0000   120.0000 </r>
       <r>    -6.1071     0.0000   120.0000 </r>
       <r>    -5.9011     0.0000   120.0000 </r>
       <r>    -5.6950     0.0000   120.0000 </r>
       <r>    -5.4889     0.0000   120.0000 </r>
       <r>    -5.2828     0.0000   120.0000 </r>
       <r>    -5.0767     0.0000   120.0000 </r>
       <r>    -4.8707     0.0000   120.0000 </r>
       <r>    -4.6646     0.0000   120.0000 </r>
       <r>    -4.4585     0.0000   120.0000 </r>
       <r>    -4.2524     0.0000   120.0000 </r>
       <r>    -4.0463     0.0000   120.0000 </r>
       <r>    -3.8403     0.0000   120.0000 </r>
       <r>    -3.6342     0.0000   120.0000 </r>
       <r>    -3.4281     0.0000   120.0000 </r>
       <r>    -3.2220     0.0000   120.0000 </r>
       <r>    -3.0159     0.0000   120.0000 </r>
       <r>    -2.8099     0.0000   120.0000 </r>
       <r>    -2.6038     0.0000   120.0000 </r>
       <r>    -2.3977     0.0000   120.0000 </r>
       <r>    -2.1916     0.0000   120.0000 </r>
       <r>    -1.9855     0.0000   120.0000 </r>
       <r>    -1.7795     0.0000   120.0000 </r>
       <r>    -1.5734     0.0000   120.0000 </r>
       <r>    -1.3673     0.0000   120.0000 </r>
       <r>    -1.1612     0.0000   120.0000 </r>
       <r>    -0.9551     0.0000   120.0000 </r>
       <r>    -0.7491    -0.0000   120.0000 </r>
       <r>    -0.5430    -0.0000   120.0000 </r>
       <r>    -0.3369    -0.0000   120.0000 </r>
       <r>    -0.1308    -0.0000   120.0000 </r>
       <r>     0.0753    -0.0002   120.0000 </r>
       <r>     0.2813    -0.0129   119.9973 </r>
       <r>     0.4874     0.1797   120.0343 </r>
       <r>     0.6935     0.8263   120.2046 </r>
       <r>     0.8996     1.5177   120.5174 </r>
       <r>     1.1057     1.8841   120.9057 </r>
       <r>     1.3117     3.0135   121.5267 </r>
       <r>     1.5178     4.2205   122.3964 </r>
       <r>     1.7239     2.1965   122.8491 </r>
       <r>     1.9300     4.3774   123.7512 </r>
       <r>     2.1361     3.9981   124.5751 </r>
       <r>     2.3421     3.2387   125.2425 </r>
       <r>     2.5482     6.4446   126.5706 </r>
       <r>     2.7543     8.6959   128.3627 </r>
       <r>     2.9604     7.5181   129.9120 </r>
       <r>     3.1665     8.3574   131.6343 </r>
       <r>     3.3726     8.0423   133.2917 </r>
       <r>     3.5786    14.4908   136.2780 </r>
       <r>     3.7847    19.7647   140.3511 </r>
       <r>     3.9908    20.9923   144.6772 </r>
       <r>     4.1969    25.5681   149.9462 </r>
       <r>     4.4030    32.2371   156.5897 </r>
       <r>     4.6090    33.5575   163.5052 </r>
       <r>     4.8151    38.3680   171.4121 </r>
       <r>     5.0212    36.6560   178.9662 </r>
       <r>     5.2273    34.9859   186.1761 </r>
       <r>     5.4334    34.1186   193.2072 </r>
       <r>     5.6394    29.6156   199.3104 </r>
       <r>     5.8455    15.8114   202.5688 </r>
       <r>     6.0516    50.6406   213.0049 </r>
       <r>     6.2577    61.9299   225.7674 </r>
       <r>     6.4638    57.3907   237.5945 </r>
       <r>     6.6698    51.6163   248.2316 </r>
       <r>     6.8759    54.9559   259.5569 </r>
       <r>     7.0820    55.1151   270.9150 </r>
       <r>     7.2881    46.1951   280.4349 </r>
       <r>     7.4942    47.6206   290.2486 </r>
       <r>     7.7002    53.2773   301.2280 </r>
       <r>     7.9063    43.7987   310.2540 </r>
       <r>     8.1124    33.4126   317.1397 </r>
       <r>     8.3185    28.4857   323.0101 </r>
       <r>     8.5246    21.4981   327.4404 </r>
       <r>     8.7306    17.6827   331.0845 </r>
       <r>     8.9367    11.0410   333.3598 </r>
       <r>     9.1428    10.9734   335.6212 </r>
       <r>     9.3489     1.9662   336.0264 </r>
       <r>     9.5550    -0.1249   336.0007 </r>
       <r>     9.7610    -0.0032   336.0000 </r>
       <r>     9.9671    -0.0000   336.0000 </r>
       <r>    10.1732    -0.0000   336.0000 </r>
       <r>    10.3793     0.0000   336.0000 </r>
       <r>    10.5854     0.0000   336.0000 </r>
       <r>    10.7914     0.0000   336.0000 </r>
       <r>    10.9975     0.0000   336.0000 </r>
       <r>    11.2036     0.0000   336.0000 </r>
       <r>    11.4097     0.0000   336.0000 </r>
       <r>    11.6158     0.0000   336.0000 </r>
       <r>    11.8218     0.0000   336.0000 </r>
       <r>    12.0279     0.0000   336.0000 </r>
      </set>
     </set>
    </array>
   </total>
  </dos>
 </calculation>
 <structure name="finalpos" >
  <crystal>
   <varray name="basis" >
    <v>       6.96450514       0.00448351       0.01776845 </v>
    <v>       0.00683458      10.26262807      -0.00253931 </v>
    <v>       0.02670316      -0.00287252      10.21992705 </v>
   </varray>
   <i name="volume">    730.45511941 </i>
   <varray name="rec_basis" >
    <v>       0.14358624      -0.00009572      -0.00037520 </v>
    <v>      -0.00006280       0.09744098       0.00002755 </v>
    <v>      -0.00024966       0.00002438       0.09784872 </v>
   </varray>
  </crystal>
  <varray name="positions" >
   <v>       0.25758808       0.16395644       0.51005318 </v>
   <v>       0.03333934       0.32357748       0.34131685 </v>
   <v>       0.01569768       0.32428536       0.67097876 </v>
   <v>       0.24550106       0.49349551       0.84054178 </v>
   <v>       0.28327152       0.85105052       0.51387005 </v>
   <v>       0.25097147       0.83546638       0.83729257 </v>
   <v>       0.22705044       0.81901741       0.14791525 </v>
   <v>       0.48182069       0.33781446       0.66632867 </v>
   <v>       0.48943597       0.32235241       0.99215848 </v>
   <v>       0.76666940       0.48694238       0.49835527 </v>
   <v>       0.99456589       0.00152636       0.99664563 </v>
   <v>       0.00908785       0.31173383       0.98926406 </v>
   <v>       0.00851276       0.67246719       0.66586963 </v>
   <v>       0.48245210       0.99784810       0.31343462 </v>
   <v>       0.75554476       0.49334165       0.16768356 </v>
   <v>       0.50670936       0.67631196       0.99713122 </v>
   <v>       0.75285955       0.82541466       0.83232120 </v>
   <v>       0.25622460       0.17596435       0.16549606 </v>
   <v>       0.22555036       0.48950481       0.50914581 </v>
   <v>       0.99186520       0.67604011       0.99204456 </v>
   <v>       0.49772967       0.00462339       0.68049173 </v>
   <v>       0.73564165       0.17933976       0.81865161 </v>
   <v>       0.77093322       0.83084055       0.16949753 </v>
   <v>       0.26654083       0.16661414       0.82193098 </v>
   <v>       0.72217564       0.84332036       0.49817454 </v>
   <v>       0.00411373       0.00044127       0.67219546 </v>
   <v>       0.75153621       0.48997097       0.83320037 </v>
   <v>       0.23483390       0.50423718       0.15097372 </v>
   <v>       0.01988591       0.67979792       0.34643695 </v>
   <v>       0.50535007       0.00113116       0.99987297 </v>
   <v>       0.74942599       0.17082526       0.50067168 </v>
   <v>       0.48119267       0.66694087       0.33371143 </v>
   <v>       0.48614291       0.65907774       0.67002934 </v>
   <v>       0.46869508       0.34343654       0.34095302 </v>
   <v>       0.02136243       0.99768461       0.33286975 </v>
   <v>       0.74970503       0.18361994       0.18248370 </v>
  </varray>
 </structure>
</modeling>
