<?xml version="1.0" encoding="ISO-8859-1"?>
<modeling>
 <generator>
  <i name="program" type="string">vasp </i>
  <i name="version" type="string">5.4.1  </i>
  <i name="subversion" type="string">05Feb16 (build Jan 29 2020 16:04:39) complex                          parallel </i>
  <i name="platform" type="string">IFC91_ompi </i>
  <i name="date" type="string">2020 06 15 </i>
  <i name="time" type="string">13:29:34 </i>
 </generator>
 <incar>
  <i type="string" name="SYSTEM"> automatically generated by mexm</i>
  <i type="int" name="ISTART">     0</i>
  <i type="string" name="PREC">accurate               ! avoid wrap aro</i>
  <i type="string" name="ALGO"> Fast                   ! blocked Davids</i>
  <i type="int" name="ISPIN">     1</i>
  <i type="int" name="ICHARG">     2</i>
  <i type="int" name="NELM">    70</i>
  <i type="int" name="IBRION">     2</i>
  <i name="EDIFF">      0.00001000</i>
  <i name="EDIFFG">     -0.01000000</i>
  <i type="int" name="NSW">   300</i>
  <i type="int" name="ISIF">     3</i>
  <i type="int" name="ISYM">     1</i>
  <i name="ENCUT">    300.00000000</i>
  <i name="POTIM">      0.15000000</i>
  <i type="string" name="LREAL"> Auto                  ! unpublished met</i>
  <i type="int" name="ISMEAR">     1</i>
  <i name="SIGMA">      0.15000000</i>
  <i type="logical" name="LWAVE"> F  </i>
  <i type="logical" name="LCHARG"> F  </i>
  <i type="logical" name="LVTOT"> F  </i>
  <v type="int" name="KPOINT_BSE">    -1     0     0     0</v>
  <i type="int" name="NELM">    70</i>
 </incar>
 <kpoints>
  <generation param="Gamma">
   <v type="int" name="divisions">       3        3        3 </v>
   <v name="usershift">      0.00000000       0.00000000       0.00000000 </v>
   <v name="genvec1">      0.33333333      -0.00000000       0.00000000 </v>
   <v name="genvec2">      0.00000000       0.33333333      -0.00000000 </v>
   <v name="genvec3">      0.00000000       0.00000000       0.33333333 </v>
   <v name="shift">      0.00000000       0.00000000       0.00000000 </v>
  </generation>
  <varray name="kpointlist" >
   <v>       0.00000000       0.00000000       0.00000000 </v>
   <v>       0.33333333      -0.00000000       0.00000000 </v>
   <v>      -0.00000000       0.33333333      -0.00000000 </v>
   <v>       0.33333333       0.33333333       0.00000000 </v>
   <v>      -0.33333333       0.33333333       0.00000000 </v>
   <v>       0.00000000       0.00000000       0.33333333 </v>
   <v>       0.33333333      -0.00000000       0.33333333 </v>
   <v>      -0.33333333       0.00000000       0.33333333 </v>
   <v>       0.00000000       0.33333333       0.33333333 </v>
   <v>       0.33333333       0.33333333       0.33333333 </v>
   <v>      -0.33333333       0.33333333       0.33333333 </v>
   <v>       0.00000000      -0.33333333       0.33333333 </v>
   <v>       0.33333333      -0.33333333       0.33333333 </v>
   <v>      -0.33333333      -0.33333333       0.33333333 </v>
  </varray>
  <varray name="weights" >
   <v>       0.03703704 </v>
   <v>       0.07407407 </v>
   <v>       0.07407407 </v>
   <v>       0.07407407 </v>
   <v>       0.07407407 </v>
   <v>       0.07407407 </v>
   <v>       0.07407407 </v>
   <v>       0.07407407 </v>
   <v>       0.07407407 </v>
   <v>       0.07407407 </v>
   <v>       0.07407407 </v>
   <v>       0.07407407 </v>
   <v>       0.07407407 </v>
   <v>       0.07407407 </v>
  </varray>
 </kpoints>
 <parameters>
  <separator name="general" >
   <i type="string" name="SYSTEM">automatically generated by mexm</i>
   <i type="logical" name="LCOMPAT"> F  </i>
  </separator>
  <separator name="electronic" >
   <i type="string" name="PREC">accura</i>
   <i name="ENMAX">    300.00000000</i>
   <i name="ENAUG">    461.25700000</i>
   <i name="EDIFF">      0.00001000</i>
   <i type="int" name="IALGO">    68</i>
   <i type="int" name="IWAVPR">    11</i>
   <i type="int" name="NBANDS">   172</i>
   <i name="NELECT">    287.00000000</i>
   <i type="int" name="TURBO">     0</i>
   <i type="int" name="IRESTART">     0</i>
   <i type="int" name="NREBOOT">     0</i>
   <i type="int" name="NMIN">     0</i>
   <i name="EREF">      0.00000000</i>
   <separator name="electronic smearing" >
    <i type="int" name="ISMEAR">     1</i>
    <i name="SIGMA">      0.15000000</i>
    <i name="KSPACING">      0.50000000</i>
    <i type="logical" name="KGAMMA"> T  </i>
   </separator>
   <separator name="electronic projectors" >
    <i type="logical" name="LREAL"> T  </i>
    <v name="ROPT">     -0.00025000     -0.00025000     -0.00025000     -0.00025000</v>
    <i type="int" name="LMAXPAW">  -100</i>
    <i type="int" name="LMAXMIX">     2</i>
    <i type="logical" name="NLSPLINE"> F  </i>
   </separator>
   <separator name="electronic startup" >
    <i type="int" name="ISTART">     0</i>
    <i type="int" name="ICHARG">     2</i>
    <i type="int" name="INIWAV">     1</i>
   </separator>
   <separator name="electronic spin" >
    <i type="int" name="ISPIN">     1</i>
    <i type="logical" name="LNONCOLLINEAR"> F  </i>
    <v name="MAGMOM">      1.00000000      1.00000000      1.00000000      1.00000000      1.00000000      1.00000000      1.00000000      1.00000000      1.00000000      1.00000000      1.00000000      1.00000000      1.00000000      1.00000000      1.00000000      1.00000000      1.00000000      1.00000000      1.00000000      1.00000000
      1.00000000      1.00000000      1.00000000      1.00000000      1.00000000      1.00000000      1.00000000      1.00000000      1.00000000      1.00000000      1.00000000      1.00000000      1.00000000      1.00000000      1.00000000      1.00000000</v>
    <i name="NUPDOWN">     -1.00000000</i>
    <i type="logical" name="LSORBIT"> F  </i>
    <v name="SAXIS">      0.00000000      0.00000000      1.00000000</v>
    <i type="logical" name="LSPIRAL"> F  </i>
    <v name="QSPIRAL">      0.00000000      0.00000000      0.00000000</v>
    <i type="logical" name="LZEROZ"> F  </i>
   </separator>
   <separator name="electronic exchange-correlation" >
    <i type="logical" name="LASPH"> F  </i>
    <i type="logical" name="LMETAGGA"> F  </i>
   </separator>
   <separator name="electronic convergence" >
    <i type="int" name="NELM">    70</i>
    <i type="int" name="NELMDL">    -5</i>
    <i type="int" name="NELMIN">     2</i>
    <i name="ENINI">    300.00000000</i>
    <separator name="electronic convergence detail" >
     <i type="logical" name="LDIAG"> T  </i>
     <i type="logical" name="LSUBROT"> F  </i>
     <i name="WEIMIN">      0.00100000</i>
     <i name="EBREAK">      0.00000001</i>
     <i name="DEPER">      0.30000000</i>
     <i type="int" name="NRMM">     4</i>
     <i name="TIME">      0.40000000</i>
    </separator>
   </separator>
   <separator name="electronic mixer" >
    <i name="AMIX">      0.40000000</i>
    <i name="BMIX">      1.00000000</i>
    <i name="AMIN">      0.10000000</i>
    <i name="AMIX_MAG">      1.60000000</i>
    <i name="BMIX_MAG">      1.00000000</i>
    <separator name="electronic mixer details" >
     <i type="int" name="IMIX">     4</i>
     <i type="logical" name="MIXFIRST"> F  </i>
     <i type="int" name="MAXMIX">   -45</i>
     <i name="WC">    100.00000000</i>
     <i type="int" name="INIMIX">     1</i>
     <i type="int" name="MIXPRE">     1</i>
     <i type="int" name="MREMOVE">     5</i>
    </separator>
   </separator>
   <separator name="electronic dipolcorrection" >
    <i type="logical" name="LDIPOL"> F  </i>
    <i type="logical" name="LMONO"> F  </i>
    <i type="int" name="IDIPOL">     0</i>
    <i name="EPSILON">      1.00000000</i>
    <v name="DIPOL">   -100.00000000   -100.00000000   -100.00000000</v>
    <i name="EFIELD">      0.00000000</i>
   </separator>
  </separator>
  <separator name="grids" >
   <i type="int" name="NGX">    40</i>
   <i type="int" name="NGY">    60</i>
   <i type="int" name="NGZ">    60</i>
   <i type="int" name="NGXF">    80</i>
   <i type="int" name="NGYF">   120</i>
   <i type="int" name="NGZF">   120</i>
   <i type="logical" name="ADDGRID"> F  </i>
  </separator>
  <separator name="ionic" >
   <i type="int" name="NSW">   300</i>
   <i type="int" name="IBRION">     2</i>
   <i type="int" name="ISIF">     3</i>
   <i name="PSTRESS">      0.00000000</i>
   <i name="EDIFFG">     -0.01000000</i>
   <i type="int" name="NFREE">     1</i>
   <i name="POTIM">      0.15000000</i>
   <i name="SMASS">     -3.00000000</i>
   <i name="SCALEE">      1.00000000</i>
  </separator>
  <separator name="ionic md" >
   <i name="TEBEG">      0.00010000</i>
   <i name="TEEND">      0.00010000</i>
   <i type="int" name="NBLOCK">     1</i>
   <i type="int" name="KBLOCK">   300</i>
   <i type="int" name="NPACO">   256</i>
   <i name="APACO">     16.00000000</i>
  </separator>
  <separator name="symmetry" >
   <i type="int" name="ISYM">     1</i>
   <i name="SYMPREC">      0.00001000</i>
  </separator>
  <separator name="dos" >
   <i type="logical" name="LORBIT"> F  </i>
   <v name="RWIGS">     -1.00000000     -1.00000000     -1.00000000     -1.00000000</v>
   <i type="int" name="NEDOS">   301</i>
   <i name="EMIN">     10.00000000</i>
   <i name="EMAX">    -10.00000000</i>
   <i name="EFERMI">      0.00000000</i>
  </separator>
  <separator name="writing" >
   <i type="int" name="NWRITE">     2</i>
   <i type="logical" name="LWAVE"> F  </i>
   <i type="logical" name="LCHARG"> F  </i>
   <i type="logical" name="LPARD"> F  </i>
   <i type="logical" name="LVTOT"> F  </i>
   <i type="logical" name="LVHAR"> F  </i>
   <i type="logical" name="LELF"> F  </i>
   <i type="logical" name="LOPTICS"> F  </i>
   <v name="STM">      0.00000000      0.00000000      0.00000000      0.00000000      0.00000000      0.00000000      0.00000000</v>
  </separator>
  <separator name="performance" >
   <i type="int" name="NPAR">     4</i>
   <i type="int" name="NSIM">     4</i>
   <i type="int" name="NBLK">    -1</i>
   <i type="logical" name="LPLANE"> T  </i>
   <i type="logical" name="LSCALAPACK"> T  </i>
   <i type="logical" name="LSCAAWARE"> F  </i>
   <i type="logical" name="LSCALU"> F  </i>
   <i type="logical" name="LASYNC"> F  </i>
   <i type="logical" name="LORBITALREAL"> F  </i>
  </separator>
  <separator name="miscellaneous" >
   <i type="int" name="IDIOT">     3</i>
   <i type="logical" name="LMUSIC"> F  </i>
   <v name="POMASS">     91.22400000    178.49000000    180.94800000     92.91000000</v>
   <v name="DARWINR">      0.00000000      0.00000000      0.00000000      0.00000000</v>
   <v name="DARWINV">      1.00000000      1.00000000      1.00000000      1.00000000</v>
   <i type="logical" name="LCORR"> T  </i>
  </separator>
  <i type="logical" name="GGA_COMPAT"> T  </i>
  <i type="logical" name="LBERRY"> F  </i>
  <i type="int" name="ICORELEVEL">     0</i>
  <i type="logical" name="LDAU"> F  </i>
  <i type="int" name="I_CONSTRAINED_M">     0</i>
  <separator name="electronic exchange-correlation" >
   <i type="string" name="GGA">--</i>
   <i type="int" name="VOSKOWN">     0</i>
   <i type="logical" name="LHFCALC"> F  </i>
   <i type="string" name="PRECFOCK"></i>
   <i type="logical" name="LSYMGRAD"> F  </i>
   <i type="logical" name="LHFONE"> F  </i>
   <i type="logical" name="LRHFCALC"> F  </i>
   <i type="logical" name="LTHOMAS"> F  </i>
   <i type="logical" name="LMODELHF"> F  </i>
   <i name="ENCUT4O">     -1.00000000</i>
   <i type="int" name="EXXOEP">     0</i>
   <i type="int" name="FOURORBIT">     0</i>
   <i name="AEXX">      0.00000000</i>
   <i name="HFALPHA">      0.00000000</i>
   <i name="MCALPHA">      0.00000000</i>
   <i name="ALDAX">      1.00000000</i>
   <i name="AGGAX">      1.00000000</i>
   <i name="ALDAC">      1.00000000</i>
   <i name="AGGAC">      1.00000000</i>
   <i type="int" name="NKREDX">     1</i>
   <i type="int" name="NKREDY">     1</i>
   <i type="int" name="NKREDZ">     1</i>
   <i type="logical" name="SHIFTRED"> F  </i>
   <i type="logical" name="ODDONLY"> F  </i>
   <i type="logical" name="EVENONLY"> F  </i>
   <i type="int" name="LMAXFOCK">     0</i>
   <i type="int" name="NMAXFOCKAE">     0</i>
   <i type="logical" name="LFOCKAEDFT"> F  </i>
   <i name="HFSCREEN">      0.00000000</i>
   <i name="HFSCREENC">      0.00000000</i>
   <i type="int" name="NBANDSGWLOW">     0</i>
  </separator>
  <separator name="vdW DFT" >
   <i type="logical" name="LUSE_VDW"> F  </i>
   <i name="Zab_VDW">     -0.84910000</i>
   <i name="PARAM1">      0.12340000</i>
   <i name="PARAM2">      1.00000000</i>
   <i name="PARAM3">      0.00000000</i>
  </separator>
  <separator name="model GW" >
   <i type="int" name="MODEL_GW">     0</i>
   <i name="MODEL_EPS0">     12.38840443</i>
   <i name="MODEL_ALPHA">      1.00000000</i>
  </separator>
  <separator name="linear response parameters" >
   <i type="logical" name="LEPSILON"> F  </i>
   <i type="logical" name="LRPA"> F  </i>
   <i type="logical" name="LNABLA"> F  </i>
   <i type="logical" name="LVEL"> F  </i>
   <i type="int" name="KINTER">     0</i>
   <i name="CSHIFT">      0.10000000</i>
   <i name="OMEGAMAX">     -1.00000000</i>
   <i name="DEG_THRESHOLD">      0.00200000</i>
  </separator>
  <separator name="orbital magnetization" >
   <i type="logical" name="NUCIND"> F  </i>
   <v name="MAGPOS">      0.00000000      0.00000000      0.00000000</v>
   <i type="logical" name="LNICSALL"> T  </i>
   <i type="logical" name="ORBITALMAG"> F  </i>
   <i type="logical" name="LMAGBLOCH"> F  </i>
   <i type="logical" name="LCHIMAG"> F  </i>
   <i type="logical" name="LGAUGE"> T  </i>
   <i type="int" name="MAGATOM">     0</i>
   <v name="MAGDIPOL">      0.00000000      0.00000000      0.00000000</v>
   <v name="AVECCONST">      0.00000000      0.00000000      0.00000000</v>
  </separator>
  <separator name="response functions" >
   <i type="logical" name="LADDER"> F  </i>
   <i type="logical" name="LFXC"> F  </i>
   <i type="logical" name="LHARTREE"> T  </i>
   <i type="int" name="IBSE">     0</i>
   <v type="int" name="KPOINT">    -1     0     0     0</v>
   <i type="logical" name="LTCTE"> F  </i>
   <i type="logical" name="LTETE"> F  </i>
   <i type="logical" name="LTRIPLET"> F  </i>
   <i type="logical" name="LFXCEPS"> F  </i>
   <i type="logical" name="LFXHEG"> F  </i>
   <i type="int" name="NATURALO">     0</i>
   <i type="logical" name="L2ORDER"> F  </i>
   <i type="logical" name="LUSEW"> F  </i>
   <i name="ENCUTGW">     -2.00000000</i>
   <i name="ENCUTGWSOFT">     -2.00000000</i>
   <i name="ENCUTLF">     -1.00000000</i>
   <i type="int" name="LMAXMP2">    -1</i>
   <i name="SCISSOR">      0.00000000</i>
   <i type="int" name="NOMEGA">     0</i>
   <i type="int" name="NOMEGAR">     0</i>
   <i type="int" name="NBANDSGW">    -1</i>
   <i type="int" name="NBANDSO">    -1</i>
   <i type="int" name="NBANDSV">    -1</i>
   <i type="int" name="NELM">    70</i>
   <i type="int" name="NELMHF">     1</i>
   <i type="int" name="DIM">     3</i>
   <i type="int" name="ANTIRES">     0</i>
   <i name="OMEGAMAX">    -30.00000000</i>
   <i name="OMEGAMIN">    -30.00000000</i>
   <i name="OMEGATL">   -200.00000000</i>
   <i type="int" name="OMEGAGRID">     0</i>
   <i name="CSHIFT">     -0.10000000</i>
   <i type="logical" name="SELFENERGY"> F  </i>
   <i type="logical" name="LSPECTRAL"> F  </i>
   <i type="logical" name="LSPECTRALGW"> F  </i>
   <i type="logical" name="LSINGLES"> F  </i>
   <i type="logical" name="LFERMIGW"> F  </i>
   <i type="logical" name="ODDONLYGW"> F  </i>
   <i type="logical" name="EVENONLYGW"> F  </i>
   <i type="int" name="NKREDLFX">     1</i>
   <i type="int" name="NKREDLFY">     1</i>
   <i type="int" name="NKREDLFZ">     1</i>
   <i type="int" name="MAXMEM">  1800</i>
   <i type="int" name="TELESCOPE">     0</i>
   <i type="int" name="TAUPAR">     1</i>
   <i type="int" name="OMEGAPAR">    -1</i>
   <i name="LAMBDA">      1.00000000</i>
  </separator>
  <separator name="External order field" >
   <i name="OFIELD_KAPPA">      0.00000000</i>
   <v name="OFIELD_K">      0.00000000      0.00000000      0.00000000</v>
   <i name="OFIELD_Q6_NEAR">      0.00000000</i>
   <i name="OFIELD_Q6_FAR">      0.00000000</i>
   <i name="OFIELD_A">      0.00000000</i>
  </separator>
 </parameters>
 <atominfo>
  <atoms>      36 </atoms>
  <types>       4 </types>
  <array name="atoms" >
   <dimension dim="1">ion</dimension>
   <field type="string">element</field>
   <field type="int">atomtype</field>
   <set>
    <rc><c>Zr</c><c>   1</c></rc>
    <rc><c>Zr</c><c>   1</c></rc>
    <rc><c>Zr</c><c>   1</c></rc>
    <rc><c>Zr</c><c>   1</c></rc>
    <rc><c>Zr</c><c>   1</c></rc>
    <rc><c>Zr</c><c>   1</c></rc>
    <rc><c>Zr</c><c>   1</c></rc>
    <rc><c>Zr</c><c>   1</c></rc>
    <rc><c>Zr</c><c>   1</c></rc>
    <rc><c>Zr</c><c>   1</c></rc>
    <rc><c>Zr</c><c>   1</c></rc>
    <rc><c>Zr</c><c>   1</c></rc>
    <rc><c>Hf</c><c>   2</c></rc>
    <rc><c>Hf</c><c>   2</c></rc>
    <rc><c>Hf</c><c>   2</c></rc>
    <rc><c>Hf</c><c>   2</c></rc>
    <rc><c>Hf</c><c>   2</c></rc>
    <rc><c>Hf</c><c>   2</c></rc>
    <rc><c>Hf</c><c>   2</c></rc>
    <rc><c>Hf</c><c>   2</c></rc>
    <rc><c>Hf</c><c>   2</c></rc>
    <rc><c>Ta</c><c>   3</c></rc>
    <rc><c>Ta</c><c>   3</c></rc>
    <rc><c>Ta</c><c>   3</c></rc>
    <rc><c>Ta</c><c>   3</c></rc>
    <rc><c>Ta</c><c>   3</c></rc>
    <rc><c>Ta</c><c>   3</c></rc>
    <rc><c>Ta</c><c>   3</c></rc>
    <rc><c>Ta</c><c>   3</c></rc>
    <rc><c>Ta</c><c>   3</c></rc>
    <rc><c>Ta</c><c>   3</c></rc>
    <rc><c>Ta</c><c>   3</c></rc>
    <rc><c>Nb</c><c>   4</c></rc>
    <rc><c>Nb</c><c>   4</c></rc>
    <rc><c>Nb</c><c>   4</c></rc>
    <rc><c>Nb</c><c>   4</c></rc>
   </set>
  </array>
  <array name="atomtypes" >
   <dimension dim="1">type</dimension>
   <field type="int">atomspertype</field>
   <field type="string">element</field>
   <field>mass</field>
   <field>valence</field>
   <field type="string">pseudopotential</field>
   <set>
    <rc><c>  12</c><c>Zr</c><c>     91.22400000</c><c>     12.00000000</c><c>  PAW_PBE Zr_sv 04Jan2005               </c></rc>
    <rc><c>   9</c><c>Hf</c><c>    178.49000000</c><c>      4.00000000</c><c>  PAW_PBE Hf 20Jan2003                  </c></rc>
    <rc><c>  11</c><c>Ta</c><c>    180.94800000</c><c>      5.00000000</c><c>  PAW_PBE Ta 17Jan2003                  </c></rc>
    <rc><c>   4</c><c>Nb</c><c>     92.91000000</c><c>     13.00000000</c><c>  PAW_PBE Nb_sv 25May2007               </c></rc>
   </set>
  </array>
 </atominfo>
 <structure name="initialpos" >
  <crystal>
   <varray name="basis" >
    <v>       7.02544103       0.02400375       0.06099207 </v>
    <v>       0.03570133      10.31665813      -0.00846017 </v>
    <v>       0.08899644      -0.00886922      10.25633449 </v>
   </varray>
   <i name="volume">    743.30426579 </i>
   <varray name="rec_basis" >
    <v>       0.14235223      -0.00049363      -0.00123565 </v>
    <v>      -0.00033194       0.09693183       0.00008670 </v>
    <v>      -0.00084681       0.00008289       0.09750814 </v>
   </varray>
  </crystal>
  <varray name="positions" >
   <v>       0.72919100       0.16288700       0.82516800 </v>
   <v>       0.50649300       0.33488300       0.34029000 </v>
   <v>       0.02401100       0.31874500       0.66714100 </v>
   <v>       0.26389900       0.49527500       0.15066000 </v>
   <v>       0.98129300       0.33272000       0.32954100 </v>
   <v>       0.49498100       0.66703500       0.33518100 </v>
   <v>       0.78015900       0.51100800       0.52344800 </v>
   <v>       0.77002400       0.83766300       0.51183000 </v>
   <v>       0.26130900       0.49920800       0.84296600 </v>
   <v>       0.25903200       0.16293700       0.16921900 </v>
   <v>       0.74798300       0.82722000       0.83269900 </v>
   <v>       0.28822600       0.17377600       0.85679900 </v>
   <v>       0.50280400       0.99592200       0.33901400 </v>
   <v>       0.46933100       0.99936800       0.65032400 </v>
   <v>       0.99966500       0.99781000       0.00010800 </v>
   <v>       0.02831800       0.00315800       0.67350600 </v>
   <v>       0.99260800       0.66682200       0.31546700 </v>
   <v>       0.48250700       0.33004300       0.64183500 </v>
   <v>       0.97369900       0.32503500       0.00545900 </v>
   <v>       0.75349900       0.51018800       0.83412900 </v>
   <v>       0.46503100       0.67421600       0.65478800 </v>
   <v>       0.50229300       0.67626100       0.00805200 </v>
   <v>       0.00044900       0.67602900       0.01068200 </v>
   <v>       0.74321400       0.83217200       0.15681600 </v>
   <v>       0.98714000       0.99949100       0.32824500 </v>
   <v>       0.25072100       0.83774400       0.16662700 </v>
   <v>       0.76467000       0.15250800       0.50478600 </v>
   <v>       0.21676600       0.50769800       0.50202300 </v>
   <v>       0.03867600       0.67728200       0.67530500 </v>
   <v>       0.73666700       0.51146100       0.15074400 </v>
   <v>       0.21870300       0.83277500       0.48294200 </v>
   <v>       0.25877900       0.82814100       0.84902600 </v>
   <v>       0.22603900       0.16127400       0.47491200 </v>
   <v>       0.73694600       0.15759600       0.16744900 </v>
   <v>       0.54019000       0.33663800       0.01071400 </v>
   <v>       0.50466700       0.98701600       0.01209600 </v>
  </varray>
 </structure>
 <calculation>
  <scstep>
   <time name="dav">    1.05    1.05</time>
   <time name="total">    1.22    1.42</time>
   <energy>
    <i name="alphaZ">   1447.98352596 </i>
    <i name="ewald"> -18299.30445971 </i>
    <i name="hartreedc">  -6350.09075587 </i>
    <i name="XCdc">   -384.76655762 </i>
    <i name="pawpsdc">  20177.92566552 </i>
    <i name="pawaedc"> -18531.09239067 </i>
    <i name="eentropy">     -0.00691811 </i>
    <i name="bandstr">    -79.25388731 </i>
    <i name="atom">  23750.65608077 </i>
    <i name="e_fr_energy">   1732.05030296 </i>
    <i name="e_wo_entrp">   1732.05722107 </i>
    <i name="e_0_energy">   1732.05260900 </i>
   </energy>
  </scstep>
  <scstep>
   <time name="dav">    0.97    0.98</time>
   <time name="total">    0.97    1.09</time>
   <energy>
    <i name="e_fr_energy">    -79.45531780 </i>
    <i name="e_wo_entrp">    -79.46492961 </i>
    <i name="e_0_energy">    -79.45852174 </i>
   </energy>
  </scstep>
  <scstep>
   <time name="dav">    1.36    1.37</time>
   <time name="total">    1.36    1.40</time>
   <energy>
    <i name="e_fr_energy">   -337.90880776 </i>
    <i name="e_wo_entrp">   -337.90640144 </i>
    <i name="e_0_energy">   -337.90800565 </i>
   </energy>
  </scstep>
  <scstep>
   <time name="dav">    1.73    1.79</time>
   <time name="total">    1.73    1.81</time>
   <energy>
    <i name="e_fr_energy">   -370.83890323 </i>
    <i name="e_wo_entrp">   -370.84217009 </i>
    <i name="e_0_energy">   -370.83999218 </i>
   </energy>
  </scstep>
  <scstep>
   <time name="dav">    1.36    1.45</time>
   <time name="total">    1.40    1.52</time>
   <energy>
    <i name="e_fr_energy">   -374.30100900 </i>
    <i name="e_wo_entrp">   -374.30436868 </i>
    <i name="e_0_energy">   -374.30212889 </i>
   </energy>
  </scstep>
  <scstep>
   <time name="diag">    0.11    0.11</time>
   <time name="diis">    0.71    0.72</time>
   <time name="orth">    0.01    0.01</time>
   <time name="total">    0.90    0.94</time>
   <energy>
    <i name="e_fr_energy">   -363.92815807 </i>
    <i name="e_wo_entrp">   -363.93327515 </i>
    <i name="e_0_energy">   -363.92986376 </i>
   </energy>
  </scstep>
  <scstep>
   <time name="diag">    0.11    0.11</time>
   <time name="diis">    0.75    0.75</time>
   <time name="orth">    0.01    0.01</time>
   <time name="total">    0.94    0.97</time>
   <energy>
    <i name="e_fr_energy">   -364.32989226 </i>
    <i name="e_wo_entrp">   -364.32230904 </i>
    <i name="e_0_energy">   -364.32736452 </i>
   </energy>
  </scstep>
  <scstep>
   <time name="diag">    0.10    0.12</time>
   <time name="diis">    0.80    0.83</time>
   <time name="orth">    0.01    0.01</time>
   <time name="total">    1.00    1.07</time>
   <energy>
    <i name="e_fr_energy">   -359.72322143 </i>
    <i name="e_wo_entrp">   -359.73188511 </i>
    <i name="e_0_energy">   -359.72610933 </i>
   </energy>
  </scstep>
  <scstep>
   <time name="diag">    0.08    0.08</time>
   <time name="diis">    0.76    0.77</time>
   <time name="orth">    0.01    0.01</time>
   <time name="total">    0.92    0.95</time>
   <energy>
    <i name="e_fr_energy">   -359.58334883 </i>
    <i name="e_wo_entrp">   -359.59268667 </i>
    <i name="e_0_energy">   -359.58646144 </i>
   </energy>
  </scstep>
  <scstep>
   <time name="diag">    0.08    0.08</time>
   <time name="diis">    0.74    0.74</time>
   <time name="orth">    0.01    0.01</time>
   <time name="total">    0.89    0.92</time>
   <energy>
    <i name="e_fr_energy">   -359.55961627 </i>
    <i name="e_wo_entrp">   -359.56861018 </i>
    <i name="e_0_energy">   -359.56261424 </i>
   </energy>
  </scstep>
  <scstep>
   <time name="diag">    0.08    0.08</time>
   <time name="diis">    0.74    0.74</time>
   <time name="orth">    0.01    0.01</time>
   <time name="total">    0.90    0.93</time>
   <energy>
    <i name="e_fr_energy">   -359.53500005 </i>
    <i name="e_wo_entrp">   -359.54526177 </i>
    <i name="e_0_energy">   -359.53842062 </i>
   </energy>
  </scstep>
  <scstep>
   <time name="diag">    0.07    0.07</time>
   <time name="diis">    0.82    0.83</time>
   <time name="orth">    0.09    0.09</time>
   <time name="total">    1.06    1.09</time>
   <energy>
    <i name="e_fr_energy">   -359.53396349 </i>
    <i name="e_wo_entrp">   -359.54391117 </i>
    <i name="e_0_energy">   -359.53727938 </i>
   </energy>
  </scstep>
  <scstep>
   <time name="diag">    0.08    0.09</time>
   <time name="diis">    0.69    0.77</time>
   <time name="orth">    0.01    0.01</time>
   <time name="total">    0.85    0.98</time>
   <energy>
    <i name="e_fr_energy">   -359.53303036 </i>
    <i name="e_wo_entrp">   -359.54315805 </i>
    <i name="e_0_energy">   -359.53640626 </i>
   </energy>
  </scstep>
  <scstep>
   <time name="diag">    0.07    0.07</time>
   <time name="diis">    0.82    0.83</time>
   <time name="orth">    0.01    0.01</time>
   <time name="total">    0.97    1.00</time>
   <energy>
    <i name="e_fr_energy">   -359.53363026 </i>
    <i name="e_wo_entrp">   -359.54366487 </i>
    <i name="e_0_energy">   -359.53697513 </i>
   </energy>
  </scstep>
  <scstep>
   <time name="diag">    0.07    0.07</time>
   <time name="diis">    0.81    0.81</time>
   <time name="orth">    0.02    0.02</time>
   <time name="total">    0.99    1.02</time>
   <energy>
    <i name="e_fr_energy">   -359.53400979 </i>
    <i name="e_wo_entrp">   -359.54410518 </i>
    <i name="e_0_energy">   -359.53737492 </i>
   </energy>
  </scstep>
  <scstep>
   <time name="diag">    0.07    0.07</time>
   <time name="diis">    0.65    0.66</time>
   <time name="orth">    0.01    0.01</time>
   <time name="total">    0.81    0.86</time>
   <energy>
    <i name="e_fr_energy">   -359.53412273 </i>
    <i name="e_wo_entrp">   -359.54418586 </i>
    <i name="e_0_energy">   -359.53747711 </i>
   </energy>
  </scstep>
  <scstep>
   <time name="diag">    0.08    0.08</time>
   <time name="diis">    0.60    0.60</time>
   <time name="orth">    0.01    0.01</time>
   <time name="total">    0.76    0.79</time>
   <energy>
    <i name="e_fr_energy">   -359.53417117 </i>
    <i name="e_wo_entrp">   -359.54425895 </i>
    <i name="e_0_energy">   -359.53753376 </i>
   </energy>
  </scstep>
  <scstep>
   <time name="diag">    0.07    0.07</time>
   <time name="diis">    0.69    0.70</time>
   <time name="orth">    0.01    0.01</time>
   <time name="total">    0.87    0.90</time>
   <energy>
    <i name="e_fr_energy">   -359.53420687 </i>
    <i name="e_wo_entrp">   -359.54431327 </i>
    <i name="e_0_energy">   -359.53757567 </i>
   </energy>
  </scstep>
  <scstep>
   <time name="diag">    0.07    0.08</time>
   <time name="diis">    0.50    0.51</time>
   <time name="orth">    0.01    0.01</time>
   <time name="total">    0.65    0.70</time>
   <energy>
    <i name="e_fr_energy">   -359.53422422 </i>
    <i name="e_wo_entrp">   -359.54433446 </i>
    <i name="e_0_energy">   -359.53759430 </i>
   </energy>
  </scstep>
  <scstep>
   <time name="diag">    0.08    0.08</time>
   <time name="diis">    0.44    0.45</time>
   <time name="orth">    0.01    0.01</time>
   <time name="total">    0.59    0.63</time>
   <energy>
    <i name="e_fr_energy">   -359.53423227 </i>
    <i name="e_wo_entrp">   -359.54434808 </i>
    <i name="e_0_energy">   -359.53760421 </i>
   </energy>
  </scstep>
  <scstep>
   <time name="diag">    0.08    0.08</time>
   <time name="diis">    0.46    0.49</time>
   <time name="orth">    0.02    0.02</time>
   <time name="total">    0.61    0.67</time>
   <energy>
    <i name="alphaZ">   1447.98352596 </i>
    <i name="ewald"> -18299.30445971 </i>
    <i name="hartreedc">  -6117.65999510 </i>
    <i name="XCdc">   -383.67706488 </i>
    <i name="pawpsdc">  33368.87751646 </i>
    <i name="pawaedc"> -31709.17247307 </i>
    <i name="eentropy">      0.01011604 </i>
    <i name="bandstr">  -2417.24748144 </i>
    <i name="atom">  23750.65608077 </i>
    <i name="e_fr_energy">   -359.53423497 </i>
    <i name="e_wo_entrp">   -359.54435102 </i>
    <i name="e_0_energy">   -359.53760699 </i>
   </energy>
  </scstep>
  <structure>
   <crystal>
    <varray name="basis" >
     <v>       7.02544103       0.02400375       0.06099207 </v>
     <v>       0.03570133      10.31665813      -0.00846017 </v>
     <v>       0.08899644      -0.00886922      10.25633449 </v>
    </varray>
    <i name="volume">    743.30426579 </i>
    <varray name="rec_basis" >
     <v>       0.14235223      -0.00049363      -0.00123565 </v>
     <v>      -0.00033194       0.09693183       0.00008670 </v>
     <v>      -0.00084681       0.00008289       0.09750814 </v>
    </varray>
   </crystal>
   <varray name="positions" >
    <v>       0.72919100       0.16288700       0.82516800 </v>
    <v>       0.50649300       0.33488300       0.34029000 </v>
    <v>       0.02401100       0.31874500       0.66714100 </v>
    <v>       0.26389900       0.49527500       0.15066000 </v>
    <v>       0.98129300       0.33272000       0.32954100 </v>
    <v>       0.49498100       0.66703500       0.33518100 </v>
    <v>       0.78015900       0.51100800       0.52344800 </v>
    <v>       0.77002400       0.83766300       0.51183000 </v>
    <v>       0.26130900       0.49920800       0.84296600 </v>
    <v>       0.25903200       0.16293700       0.16921900 </v>
    <v>       0.74798300       0.82722000       0.83269900 </v>
    <v>       0.28822600       0.17377600       0.85679900 </v>
    <v>       0.50280400       0.99592200       0.33901400 </v>
    <v>       0.46933100       0.99936800       0.65032400 </v>
    <v>       0.99966500       0.99781000       0.00010800 </v>
    <v>       0.02831800       0.00315800       0.67350600 </v>
    <v>       0.99260800       0.66682200       0.31546700 </v>
    <v>       0.48250700       0.33004300       0.64183500 </v>
    <v>       0.97369900       0.32503500       0.00545900 </v>
    <v>       0.75349900       0.51018800       0.83412900 </v>
    <v>       0.46503100       0.67421600       0.65478800 </v>
    <v>       0.50229300       0.67626100       0.00805200 </v>
    <v>       0.00044900       0.67602900       0.01068200 </v>
    <v>       0.74321400       0.83217200       0.15681600 </v>
    <v>       0.98714000       0.99949100       0.32824500 </v>
    <v>       0.25072100       0.83774400       0.16662700 </v>
    <v>       0.76467000       0.15250800       0.50478600 </v>
    <v>       0.21676600       0.50769800       0.50202300 </v>
    <v>       0.03867600       0.67728200       0.67530500 </v>
    <v>       0.73666700       0.51146100       0.15074400 </v>
    <v>       0.21870300       0.83277500       0.48294200 </v>
    <v>       0.25877900       0.82814100       0.84902600 </v>
    <v>       0.22603900       0.16127400       0.47491200 </v>
    <v>       0.73694600       0.15759600       0.16744900 </v>
    <v>       0.54019000       0.33663800       0.01071400 </v>
    <v>       0.50466700       0.98701600       0.01209600 </v>
   </varray>
  </structure>
  <varray name="forces" >
   <v>      -0.00421530       0.02949227       0.00453194 </v>
   <v>      -0.01376195      -0.00498940       0.00006244 </v>
   <v>      -0.00642791      -0.00212322      -0.00030361 </v>
   <v>       0.00512162      -0.02474866       0.01567469 </v>
   <v>       0.01540448       0.00142271       0.00905656 </v>
   <v>      -0.01356308       0.00694026       0.00049275 </v>
   <v>       0.01822686      -0.00802695       0.00469642 </v>
   <v>       0.01668172       0.01245969      -0.04367461 </v>
   <v>       0.00354441       0.11131307      -0.00294252 </v>
   <v>       0.00086612       0.01351241       0.01646961 </v>
   <v>      -0.03135427      -0.00277802      -0.00320685 </v>
   <v>       0.00435345      -0.07183682       0.00007250 </v>
   <v>      -0.00989333      -0.01274620       0.00734859 </v>
   <v>      -0.00826001      -0.00465991       0.00414867 </v>
   <v>      -0.02781258       0.02534440      -0.00112410 </v>
   <v>       0.00338433       0.02007611      -0.00557312 </v>
   <v>       0.00625920       0.01541687      -0.01129952 </v>
   <v>       0.00189371       0.00293548      -0.00177782 </v>
   <v>      -0.01149872      -0.00333277       0.00157596 </v>
   <v>       0.00457356      -0.03291078       0.00218014 </v>
   <v>      -0.02348506      -0.00363381      -0.02649068 </v>
   <v>       0.02184433       0.00208357      -0.00294475 </v>
   <v>      -0.00913714       0.00965340       0.01605211 </v>
   <v>       0.00365626       0.00498469       0.01537195 </v>
   <v>       0.00494648      -0.02103766       0.00970462 </v>
   <v>       0.00192695      -0.00466715      -0.15056808 </v>
   <v>      -0.00439487       0.00303897       0.00127635 </v>
   <v>      -0.00434950      -0.01408177      -0.01111299 </v>
   <v>       0.02605689      -0.00744026      -0.02224360 </v>
   <v>      -0.00354721      -0.00262246      -0.00303875 </v>
   <v>      -0.01682255      -0.00061365       0.03345383 </v>
   <v>       0.04094144      -0.06586254       0.14451338 </v>
   <v>       0.01235856       0.01028582      -0.00744468 </v>
   <v>      -0.00071810       0.00335073       0.01331949 </v>
   <v>       0.00492400       0.00685541       0.00332893 </v>
   <v>      -0.00772281       0.00894618      -0.00958526 </v>
  </varray>
  <varray name="stress" >
   <v>      -0.53966852      -0.23579178      -0.07054981 </v>
   <v>      -0.23579178      -0.69045683       0.21832611 </v>
   <v>      -0.07054982       0.21832609      -0.61739933 </v>
  </varray>
  <energy>
   <i name="e_fr_energy">   -359.53423497 </i>
   <i name="e_wo_entrp">   -359.53760699 </i>
   <i name="e_0_energy">      0.01011604 </i>
  </energy>
  <time name="totalsc">   22.16   23.66</time>
 </calculation>
 <calculation>
  <scstep>
   <time name="dav">    0.96    0.96</time>
   <time name="total">    1.08    1.25</time>
   <energy>
    <i name="alphaZ">   1448.48259960 </i>
    <i name="ewald"> -18301.53760808 </i>
    <i name="hartreedc">  -6118.22359913 </i>
    <i name="XCdc">   -383.58265619 </i>
    <i name="pawpsdc">  33368.93591495 </i>
    <i name="pawaedc"> -31709.22923397 </i>
    <i name="eentropy">      0.01004941 </i>
    <i name="bandstr">  -2415.04713290 </i>
    <i name="atom">  23750.65608077 </i>
    <i name="e_fr_energy">   -359.53558555 </i>
    <i name="e_wo_entrp">   -359.54563497 </i>
    <i name="e_0_energy">   -359.53893536 </i>
   </energy>
  </scstep>
  <scstep>
   <time name="diag">    0.08    0.08</time>
   <time name="diis">    0.79    0.79</time>
   <time name="orth">    0.01    0.01</time>
   <time name="total">    1.09    1.12</time>
   <energy>
    <i name="e_fr_energy">   -359.53555061 </i>
    <i name="e_wo_entrp">   -359.54572296 </i>
    <i name="e_0_energy">   -359.53894139 </i>
   </energy>
  </scstep>
  <scstep>
   <time name="diag">    0.08    0.08</time>
   <time name="diis">    0.70    0.76</time>
   <time name="orth">    0.01    0.02</time>
   <time name="total">    0.85    0.96</time>
   <energy>
    <i name="e_fr_energy">   -359.53551436 </i>
    <i name="e_wo_entrp">   -359.54561149 </i>
    <i name="e_0_energy">   -359.53888007 </i>
   </energy>
  </scstep>
  <scstep>
   <time name="diag">    0.08    0.12</time>
   <time name="diis">    0.69    0.69</time>
   <time name="orth">    0.01    0.01</time>
   <time name="total">    0.85    0.92</time>
   <energy>
    <i name="e_fr_energy">   -359.53548176 </i>
    <i name="e_wo_entrp">   -359.54555563 </i>
    <i name="e_0_energy">   -359.53883972 </i>
   </energy>
  </scstep>
  <scstep>
   <time name="diag">    0.08    0.08</time>
   <time name="diis">    0.40    0.40</time>
   <time name="orth">    0.01    0.01</time>
   <time name="total">    0.52    0.54</time>
   <energy>
    <i name="alphaZ">   1448.48259960 </i>
    <i name="ewald"> -18301.53760808 </i>
    <i name="hartreedc">  -6116.87641350 </i>
    <i name="XCdc">   -383.64131109 </i>
    <i name="pawpsdc">  33387.72978457 </i>
    <i name="pawaedc"> -31728.06662279 </i>
    <i name="eentropy">      0.01011761 </i>
    <i name="bandstr">  -2416.29210864 </i>
    <i name="atom">  23750.65608077 </i>
    <i name="e_fr_energy">   -359.53548157 </i>
    <i name="e_wo_entrp">   -359.54559917 </i>
    <i name="e_0_energy">   -359.53885410 </i>
   </energy>
  </scstep>
  <structure>
   <crystal>
    <varray name="basis" >
     <v>       7.02473203       0.02369418       0.06089358 </v>
     <v>       0.03524415      10.31532765      -0.00803957 </v>
     <v>       0.08885291      -0.00845435      10.25515192 </v>
    </varray>
    <i name="volume">    743.04816084 </i>
    <varray name="rec_basis" >
     <v>       0.14236652      -0.00048738      -0.00123390 </v>
     <v>      -0.00032771       0.09694430       0.00008276 </v>
     <v>      -0.00084561       0.00007889       0.09751936 </v>
    </varray>
   </crystal>
   <varray name="positions" >
    <v>       0.72918202       0.16292840       0.82517448 </v>
    <v>       0.50646468       0.33487607       0.34029025 </v>
    <v>       0.02399778       0.31874205       0.66714065 </v>
    <v>       0.26390945       0.49524028       0.15068203 </v>
    <v>       0.98132456       0.33272193       0.32955359 </v>
    <v>       0.49495300       0.66704480       0.33518187 </v>
    <v>       0.78019652       0.51099666       0.52345439 </v>
    <v>       0.77005906       0.83768034       0.51176818 </v>
    <v>       0.26131556       0.49936414       0.84296194 </v>
    <v>       0.25903339       0.16295597       0.16924225 </v>
    <v>       0.74791848       0.82721625       0.83269486 </v>
    <v>       0.28823548       0.17367520       0.85679896 </v>
    <v>       0.50278358       0.99590418       0.33902448 </v>
    <v>       0.46931394       0.99936151       0.65032995 </v>
    <v>       0.99960754       0.99784569       0.00010678 </v>
    <v>       0.02832493       0.00318614       0.67349812 </v>
    <v>       0.99262099       0.66684358       0.31545100 </v>
    <v>       0.48251091       0.33004711       0.64183247 </v>
    <v>       0.97367531       0.32503038       0.00546136 </v>
    <v>       0.75350862       0.51014181       0.83413198 </v>
    <v>       0.46498311       0.67421098       0.65475090 </v>
    <v>       0.50233804       0.67626381       0.00804758 </v>
    <v>       0.00042982       0.67604261       0.01070478 </v>
    <v>       0.74322122       0.83217899       0.15683765 </v>
    <v>       0.98715017       0.99946148       0.32825861 </v>
    <v>       0.25072770       0.83773725       0.16641449 </v>
    <v>       0.76466090       0.15251229       0.50478786 </v>
    <v>       0.21675734       0.50767825       0.50200735 </v>
    <v>       0.03873013       0.67727141       0.67527328 </v>
    <v>       0.73665976       0.51145733       0.15073975 </v>
    <v>       0.21866775       0.83277426       0.48298942 </v>
    <v>       0.25886124       0.82804859       0.84922936 </v>
    <v>       0.22606452       0.16128836       0.47490135 </v>
    <v>       0.73694426       0.15760072       0.16746781 </v>
    <v>       0.54020004       0.33664760       0.01071865 </v>
    <v>       0.50465120       0.98702858       0.01208258 </v>
   </varray>
  </structure>
  <varray name="forces" >
   <v>      -0.00411523       0.02878833       0.00302774 </v>
   <v>      -0.01183818      -0.00300832       0.00057674 </v>
   <v>      -0.00622545      -0.00159102       0.00267356 </v>
   <v>       0.00463768      -0.02366102       0.01616509 </v>
   <v>       0.01444585       0.00185821       0.00740831 </v>
   <v>      -0.01328256       0.00563365       0.00009869 </v>
   <v>       0.01464774      -0.00773978       0.00300505 </v>
   <v>       0.01476275       0.01040706      -0.03859631 </v>
   <v>       0.00239741       0.09884454      -0.00188386 </v>
   <v>      -0.00067338       0.01384740       0.01365111 </v>
   <v>      -0.02939367      -0.00168252      -0.00644562 </v>
   <v>       0.00473469      -0.06339283       0.00086382 </v>
   <v>      -0.01061194      -0.01268200       0.00508535 </v>
   <v>      -0.00626510      -0.00649266       0.00512774 </v>
   <v>      -0.02721563       0.02517154      -0.00204732 </v>
   <v>       0.00165249       0.01660178      -0.00390814 </v>
   <v>       0.00736208       0.01337263      -0.00965020 </v>
   <v>       0.00128289       0.00359525       0.00101146 </v>
   <v>      -0.00583433      -0.00333695       0.00169207 </v>
   <v>       0.00481330      -0.03059824      -0.00068763 </v>
   <v>      -0.01697548      -0.00196704      -0.02559678 </v>
   <v>       0.02237479      -0.00322756      -0.00232709 </v>
   <v>      -0.00986878       0.00645436       0.01374108 </v>
   <v>       0.00306055       0.00584963       0.01679594 </v>
   <v>       0.00550579      -0.01846601       0.00666937 </v>
   <v>       0.00250237      -0.00422338      -0.13934647 </v>
   <v>      -0.00508662       0.00302787       0.00126958 </v>
   <v>      -0.00284955      -0.01411308      -0.01271845 </v>
   <v>       0.01896535      -0.00693504      -0.01961727 </v>
   <v>      -0.00246151      -0.00226742       0.00163762 </v>
   <v>      -0.01597973       0.00012206       0.03276428 </v>
   <v>       0.03811901      -0.05776887       0.13077988 </v>
   <v>       0.01288624       0.00966890      -0.00609141 </v>
   <v>       0.00056705       0.00374954       0.01395013 </v>
   <v>      -0.00120416       0.00495552       0.00099132 </v>
   <v>      -0.00483674       0.01120545      -0.01006937 </v>
  </varray>
  <varray name="stress" >
   <v>      -0.14597080      -0.22120170      -0.06222877 </v>
   <v>      -0.22120165      -0.26925969       0.18070496 </v>
   <v>      -0.06222871       0.18070495      -0.19698814 </v>
  </varray>
  <energy>
   <i name="e_fr_energy">   -359.53548157 </i>
   <i name="e_wo_entrp">   -359.53885410 </i>
   <i name="e_0_energy">      0.01011761 </i>
  </energy>
  <time name="totalsc">    6.03    6.54</time>
 </calculation>
 <calculation>
  <scstep>
   <time name="dav">    1.00    1.01</time>
   <time name="total">    1.12    1.22</time>
   <energy>
    <i name="alphaZ">   1449.98126634 </i>
    <i name="ewald"> -18308.22227228 </i>
    <i name="hartreedc">  -6118.60815032 </i>
    <i name="XCdc">   -383.35556904 </i>
    <i name="pawpsdc">  33386.54548616 </i>
    <i name="pawaedc"> -31726.86932060 </i>
    <i name="eentropy">      0.00988429 </i>
    <i name="bandstr">  -2409.67649898 </i>
    <i name="atom">  23750.65608077 </i>
    <i name="e_fr_energy">   -359.53909366 </i>
    <i name="e_wo_entrp">   -359.54897796 </i>
    <i name="e_0_energy">   -359.54238843 </i>
   </energy>
  </scstep>
  <scstep>
   <time name="diag">    0.09    0.09</time>
   <time name="diis">    0.75    0.76</time>
   <time name="orth">    0.01    0.01</time>
   <time name="total">    0.92    0.95</time>
   <energy>
    <i name="e_fr_energy">   -359.53874871 </i>
    <i name="e_wo_entrp">   -359.54898492 </i>
    <i name="e_0_energy">   -359.54216078 </i>
   </energy>
  </scstep>
  <scstep>
   <time name="diag">    0.07    0.07</time>
   <time name="diis">    0.75    0.75</time>
   <time name="orth">    0.01    0.01</time>
   <time name="total">    0.90    0.93</time>
   <energy>
    <i name="e_fr_energy">   -359.53840607 </i>
    <i name="e_wo_entrp">   -359.54841989 </i>
    <i name="e_0_energy">   -359.54174401 </i>
   </energy>
  </scstep>
  <scstep>
   <time name="diag">    0.08    0.08</time>
   <time name="diis">    0.76    0.76</time>
   <time name="orth">    0.01    0.01</time>
   <time name="total">    0.91    0.94</time>
   <energy>
    <i name="e_fr_energy">   -359.53811214 </i>
    <i name="e_wo_entrp">   -359.54806420 </i>
    <i name="e_0_energy">   -359.54142949 </i>
   </energy>
  </scstep>
  <scstep>
   <time name="diag">    0.08    0.08</time>
   <time name="diis">    0.74    0.74</time>
   <time name="orth">    0.01    0.01</time>
   <time name="total">    0.89    0.93</time>
   <energy>
    <i name="e_fr_energy">   -359.53810413 </i>
    <i name="e_wo_entrp">   -359.54818049 </i>
    <i name="e_0_energy">   -359.54146292 </i>
   </energy>
  </scstep>
  <scstep>
   <time name="diag">    0.07    0.07</time>
   <time name="diis">    0.71    0.72</time>
   <time name="orth">    0.01    0.01</time>
   <time name="total">    0.90    0.94</time>
   <energy>
    <i name="e_fr_energy">   -359.53811900 </i>
    <i name="e_wo_entrp">   -359.54813322 </i>
    <i name="e_0_energy">   -359.54145707 </i>
   </energy>
  </scstep>
  <scstep>
   <time name="diag">    0.07    0.08</time>
   <time name="diis">    0.49    0.49</time>
   <time name="orth">    0.01    0.01</time>
   <time name="total">    0.64    0.67</time>
   <energy>
    <i name="e_fr_energy">   -359.53813351 </i>
    <i name="e_wo_entrp">   -359.54813772 </i>
    <i name="e_0_energy">   -359.54146825 </i>
   </energy>
  </scstep>
  <scstep>
   <time name="diag">    0.16    0.16</time>
   <time name="diis">    0.44    0.44</time>
   <time name="orth">    0.01    0.01</time>
   <time name="total">    0.64    0.68</time>
   <energy>
    <i name="alphaZ">   1449.98126634 </i>
    <i name="ewald"> -18308.22227228 </i>
    <i name="hartreedc">  -6114.84039316 </i>
    <i name="XCdc">   -383.51788085 </i>
    <i name="pawpsdc">  33435.33989214 </i>
    <i name="pawaedc"> -31775.63975071 </i>
    <i name="eentropy">      0.01000926 </i>
    <i name="bandstr">  -2413.30509401 </i>
    <i name="atom">  23750.65608077 </i>
    <i name="e_fr_energy">   -359.53814249 </i>
    <i name="e_wo_entrp">   -359.54815175 </i>
    <i name="e_0_energy">   -359.54147891 </i>
   </energy>
  </scstep>
  <structure>
   <crystal>
    <varray name="basis" >
     <v>       7.02260503       0.02276546       0.06059811 </v>
     <v>       0.03387259      10.31133622      -0.00677776 </v>
     <v>       0.08842234      -0.00720974      10.25160421 </v>
    </varray>
    <i name="volume">    742.28016363 </i>
    <varray name="rec_basis" >
     <v>       0.14240942      -0.00046862      -0.00122864 </v>
     <v>      -0.00031500       0.09698172       0.00007092 </v>
     <v>      -0.00084200       0.00006689       0.09755302 </v>
    </varray>
   </crystal>
   <varray name="positions" >
    <v>       0.72915510       0.16305261       0.82519393 </v>
    <v>       0.50637972       0.33485526       0.34029100 </v>
    <v>       0.02395811       0.31873321       0.66713959 </v>
    <v>       0.26394079       0.49513609       0.15074812 </v>
    <v>       0.98141927       0.33272774       0.32959138 </v>
    <v>       0.49486899       0.66707421       0.33518448 </v>
    <v>       0.78030911       0.51096263       0.52347358 </v>
    <v>       0.77016425       0.83773240       0.51158268 </v>
    <v>       0.26133527       0.49983261       0.84294973 </v>
    <v>       0.25903758       0.16301290       0.16931200 </v>
    <v>       0.74772490       0.82720499       0.83268242 </v>
    <v>       0.28826391       0.17337277       0.85679886 </v>
    <v>       0.50272230       0.99585069       0.33905591 </v>
    <v>       0.46926276       0.99934203       0.65034780 </v>
    <v>       0.99943514       0.99795276       0.00010313 </v>
    <v>       0.02834572       0.00327058       0.67347446 </v>
    <v>       0.99265996       0.66690835       0.31540298 </v>
    <v>       0.48252265       0.33005943       0.64182488 </v>
    <v>       0.97360421       0.32501652       0.00546844 </v>
    <v>       0.75353747       0.51000323       0.83414093 </v>
    <v>       0.46483944       0.67419593       0.65463958 </v>
    <v>       0.50247318       0.67627226       0.00803432 </v>
    <v>       0.00037228       0.67608343       0.01077311 </v>
    <v>       0.74324289       0.83219998       0.15690262 </v>
    <v>       0.98718067       0.99937289       0.32829945 </v>
    <v>       0.25074777       0.83771704       0.16577687 </v>
    <v>       0.76463360       0.15252514       0.50479343 </v>
    <v>       0.21673135       0.50761900       0.50196041 </v>
    <v>       0.03889255       0.67723964       0.67517812 </v>
    <v>       0.73663806       0.51144634       0.15072701 </v>
    <v>       0.21856198       0.83277204       0.48313168 </v>
    <v>       0.25910796       0.82777130       0.84983952 </v>
    <v>       0.22614109       0.16133145       0.47486941 </v>
    <v>       0.73693904       0.15761488       0.16752424 </v>
    <v>       0.54023015       0.33667640       0.01073258 </v>
    <v>       0.50460378       0.98706631       0.01204231 </v>
   </varray>
  </structure>
  <varray name="forces" >
   <v>      -0.00471040       0.02677503      -0.00224464 </v>
   <v>      -0.00473703       0.00167468       0.00224142 </v>
   <v>      -0.00449125      -0.00146326       0.01020151 </v>
   <v>       0.00327490      -0.02004704       0.01676738 </v>
   <v>       0.01027048       0.00230461       0.00416494 </v>
   <v>      -0.01352784       0.00296188      -0.00134140 </v>
   <v>       0.00467768      -0.00663260      -0.00161068 </v>
   <v>       0.00942494       0.00561417      -0.02371289 </v>
   <v>      -0.00239936       0.06564786      -0.00000052 </v>
   <v>      -0.00594931       0.01270964       0.00623188 </v>
   <v>      -0.02320287       0.00057784      -0.01613244 </v>
   <v>       0.00517273      -0.04098963       0.00151546 </v>
   <v>      -0.01265503      -0.01229271      -0.00148336 </v>
   <v>       0.00037620      -0.01011517       0.00630304 </v>
   <v>      -0.02663217       0.02547725      -0.00347926 </v>
   <v>      -0.00453575       0.00897022      -0.00096657 </v>
   <v>       0.01135216       0.00880718      -0.00530322 </v>
   <v>       0.00072747       0.00400588       0.00937176 </v>
   <v>       0.01011482      -0.00403250       0.00179590 </v>
   <v>       0.00604211      -0.02441618      -0.00864322 </v>
   <v>       0.00063201       0.00246407      -0.02561845 </v>
   <v>       0.02442032      -0.01808424       0.00029023 </v>
   <v>      -0.01252441      -0.00245145       0.00813644 </v>
   <v>       0.00231376       0.00866569       0.02267048 </v>
   <v>       0.00661168      -0.01101635      -0.00021604 </v>
   <v>       0.00348085      -0.00312189      -0.10887590 </v>
   <v>      -0.00896693       0.00341827       0.00010081 </v>
   <v>       0.00203438      -0.01594671      -0.01750144 </v>
   <v>       0.00104052      -0.00525325      -0.01382855 </v>
   <v>       0.00101685      -0.00039962       0.01543044 </v>
   <v>      -0.01279355       0.00387752       0.03200989 </v>
   <v>       0.03133060      -0.03507396       0.09444083 </v>
   <v>       0.01379266       0.00669027      -0.00287645 </v>
   <v>       0.00188171       0.00343038       0.01530329 </v>
   <v>      -0.01733096      -0.00091122      -0.00371459 </v>
   <v>       0.00446802       0.01817533      -0.00942610 </v>
  </varray>
  <varray name="stress" >
   <v>       1.16680062      -0.09820332      -0.02794561 </v>
   <v>      -0.09820331       1.23562290       0.01875958 </v>
   <v>      -0.02794560       0.01875956       1.26356207 </v>
  </varray>
  <energy>
   <i name="e_fr_energy">   -359.53814249 </i>
   <i name="e_wo_entrp">   -359.54147891 </i>
   <i name="e_0_energy">      0.01000926 </i>
  </energy>
  <time name="totalsc">    8.43    8.85</time>
 </calculation>
 <calculation>
  <scstep>
   <time name="dav">    1.02    1.02</time>
   <time name="total">    1.14    1.25</time>
   <energy>
    <i name="alphaZ">   1452.98511971 </i>
    <i name="ewald"> -18321.52506867 </i>
    <i name="hartreedc">  -6118.31912570 </i>
    <i name="XCdc">   -382.94812860 </i>
    <i name="pawpsdc">  33435.19312536 </i>
    <i name="pawaedc"> -31775.45916379 </i>
    <i name="eentropy">      0.00965506 </i>
    <i name="bandstr">  -2400.13483432 </i>
    <i name="atom">  23750.65608077 </i>
    <i name="e_fr_energy">   -359.54234018 </i>
    <i name="e_wo_entrp">   -359.55199525 </i>
    <i name="e_0_energy">   -359.54555854 </i>
   </energy>
  </scstep>
  <scstep>
   <time name="diag">    0.08    0.08</time>
   <time name="diis">    0.76    0.76</time>
   <time name="orth">    0.01    0.01</time>
   <time name="total">    0.92    0.94</time>
   <energy>
    <i name="e_fr_energy">   -359.54086655 </i>
    <i name="e_wo_entrp">   -359.55119581 </i>
    <i name="e_0_energy">   -359.54430963 </i>
   </energy>
  </scstep>
  <scstep>
   <time name="diag">    0.08    0.08</time>
   <time name="diis">    0.75    0.75</time>
   <time name="orth">    0.01    0.01</time>
   <time name="total">    0.90    0.93</time>
   <energy>
    <i name="e_fr_energy">   -359.53957134 </i>
    <i name="e_wo_entrp">   -359.54947658 </i>
    <i name="e_0_energy">   -359.54287309 </i>
   </energy>
  </scstep>
  <scstep>
   <time name="diag">    0.07    0.07</time>
   <time name="diis">    0.76    0.76</time>
   <time name="orth">    0.01    0.01</time>
   <time name="total">    0.91    0.93</time>
   <energy>
    <i name="e_fr_energy">   -359.53835701 </i>
    <i name="e_wo_entrp">   -359.54814758 </i>
    <i name="e_0_energy">   -359.54162054 </i>
   </energy>
  </scstep>
  <scstep>
   <time name="diag">    0.07    0.07</time>
   <time name="diis">    0.76    0.76</time>
   <time name="orth">    0.01    0.01</time>
   <time name="total">    0.91    0.93</time>
   <energy>
    <i name="e_fr_energy">   -359.53829930 </i>
    <i name="e_wo_entrp">   -359.54832801 </i>
    <i name="e_0_energy">   -359.54164220 </i>
   </energy>
  </scstep>
  <scstep>
   <time name="diag">    0.08    0.08</time>
   <time name="diis">    0.74    0.74</time>
   <time name="orth">    0.01    0.01</time>
   <time name="total">    0.89    0.92</time>
   <energy>
    <i name="e_fr_energy">   -359.53833213 </i>
    <i name="e_wo_entrp">   -359.54824147 </i>
    <i name="e_0_energy">   -359.54163525 </i>
   </energy>
  </scstep>
  <scstep>
   <time name="diag">    0.08    0.08</time>
   <time name="diis">    0.69    0.69</time>
   <time name="orth">    0.01    0.01</time>
   <time name="total">    0.86    0.90</time>
   <energy>
    <i name="e_fr_energy">   -359.53837122 </i>
    <i name="e_wo_entrp">   -359.54825958 </i>
    <i name="e_0_energy">   -359.54166734 </i>
   </energy>
  </scstep>
  <scstep>
   <time name="diag">    0.08    0.08</time>
   <time name="diis">    0.62    0.62</time>
   <time name="orth">    0.01    0.01</time>
   <time name="total">    0.78    0.80</time>
   <energy>
    <i name="e_fr_energy">   -359.53839610 </i>
    <i name="e_wo_entrp">   -359.54829777 </i>
    <i name="e_0_energy">   -359.54169665 </i>
   </energy>
  </scstep>
  <scstep>
   <time name="diag">    0.08    0.08</time>
   <time name="diis">    0.56    0.56</time>
   <time name="orth">    0.01    0.01</time>
   <time name="total">    0.72    0.76</time>
   <energy>
    <i name="e_fr_energy">   -359.53840965 </i>
    <i name="e_wo_entrp">   -359.54832090 </i>
    <i name="e_0_energy">   -359.54171340 </i>
   </energy>
  </scstep>
  <scstep>
   <time name="diag">    0.08    0.08</time>
   <time name="diis">    0.41    0.42</time>
   <time name="orth">    0.01    0.01</time>
   <time name="total">    0.55    0.58</time>
   <energy>
    <i name="alphaZ">   1452.98511971 </i>
    <i name="ewald"> -18321.52506867 </i>
    <i name="hartreedc">  -6110.79248925 </i>
    <i name="XCdc">   -383.27328966 </i>
    <i name="pawpsdc">  33537.90503514 </i>
    <i name="pawaedc"> -31878.02409565 </i>
    <i name="eentropy">      0.00990549 </i>
    <i name="bandstr">  -2407.47961692 </i>
    <i name="atom">  23750.65608077 </i>
    <i name="e_fr_energy">   -359.53841904 </i>
    <i name="e_wo_entrp">   -359.54832453 </i>
    <i name="e_0_energy">   -359.54172087 </i>
   </energy>
  </scstep>
  <structure>
   <crystal>
    <varray name="basis" >
     <v>       7.01835102       0.02090803       0.06000717 </v>
     <v>       0.03112946      10.30335337      -0.00425415 </v>
     <v>       0.08756119      -0.00472052      10.24450878 </v>
    </varray>
    <i name="volume">    740.74559818 </i>
    <varray name="rec_basis" >
     <v>       0.14249531      -0.00043102      -0.00121813 </v>
     <v>      -0.00028954       0.09705667       0.00004720 </v>
     <v>      -0.00083479       0.00004283       0.09762042 </v>
    </varray>
   </crystal>
   <varray name="positions" >
    <v>       0.72910129       0.16330113       0.82523280 </v>
    <v>       0.50620973       0.33481362       0.34029251 </v>
    <v>       0.02387873       0.31871550       0.66713748 </v>
    <v>       0.26400346       0.49492762       0.15088039 </v>
    <v>       0.98160874       0.33273935       0.32966698 </v>
    <v>       0.49470093       0.66713303       0.33518968 </v>
    <v>       0.78053434       0.51089456       0.52351199 </v>
    <v>       0.77037470       0.83783660       0.51121156 </v>
    <v>       0.26137489       0.50076993       0.84292519 </v>
    <v>       0.25904598       0.16312677       0.16945153 </v>
    <v>       0.74733762       0.82718243       0.83265753 </v>
    <v>       0.28832066       0.17276767       0.85679874 </v>
    <v>       0.50259969       0.99574366       0.33911881 </v>
    <v>       0.46916036       0.99930303       0.65038352 </v>
    <v>       0.99909029       0.99816695       0.00009579 </v>
    <v>       0.02838735       0.00343952       0.67342712 </v>
    <v>       0.99273794       0.66703794       0.31530689 </v>
    <v>       0.48254614       0.33008409       0.64180970 </v>
    <v>       0.97346198       0.32498878       0.00548262 </v>
    <v>       0.75359513       0.50972595       0.83415887 </v>
    <v>       0.46455199       0.67416580       0.65441687 </v>
    <v>       0.50274355       0.67628919       0.00800779 </v>
    <v>       0.00025718       0.67616507       0.01090982 </v>
    <v>       0.74328627       0.83224195       0.15703260 </v>
    <v>       0.98724166       0.99919564       0.32838117 </v>
    <v>       0.25078786       0.83767676       0.16450122 </v>
    <v>       0.76457899       0.15255087       0.50480459 </v>
    <v>       0.21667932       0.50750046       0.50186651 </v>
    <v>       0.03921745       0.67717613       0.67498774 </v>
    <v>       0.73659462       0.51142433       0.15070151 </v>
    <v>       0.21835040       0.83276754       0.48341630 </v>
    <v>       0.25960152       0.82721640       0.85106034 </v>
    <v>       0.22629430       0.16141769       0.47480551 </v>
    <v>       0.73692860       0.15764320       0.16763715 </v>
    <v>       0.54029041       0.33673401       0.01076046 </v>
    <v>       0.50450894       0.98714180       0.01196173 </v>
   </varray>
  </structure>
  <varray name="forces" >
   <v>      -0.00716461       0.02219126      -0.01085361 </v>
   <v>       0.00859036       0.01099628       0.00453918 </v>
   <v>      -0.00145163       0.00009036       0.02557048 </v>
   <v>       0.00156609      -0.01344477       0.01775372 </v>
   <v>       0.00260468       0.00270757      -0.00319974 </v>
   <v>      -0.01301216      -0.00304388      -0.00449695 </v>
   <v>      -0.01536108      -0.00302658      -0.01066789 </v>
   <v>      -0.00060915      -0.00515411       0.00792264 </v>
   <v>      -0.01056878      -0.00292960       0.00450564 </v>
   <v>      -0.01535592       0.01135733      -0.00958427 </v>
   <v>      -0.01113689       0.00534337      -0.03594485 </v>
   <v>       0.00805755       0.00494038       0.00454242 </v>
   <v>      -0.01610223      -0.01130539      -0.01485818 </v>
   <v>       0.01403342      -0.01744129       0.01024965 </v>
   <v>      -0.02564558       0.02661534      -0.00680263 </v>
   <v>      -0.01756357      -0.00706508       0.00517951 </v>
   <v>       0.01904727      -0.00142687       0.00334803 </v>
   <v>      -0.00096006       0.00568243       0.02618446 </v>
   <v>       0.04307049      -0.00461852       0.00193968 </v>
   <v>       0.00830726      -0.01226972      -0.02508208 </v>
   <v>       0.03831792       0.01150584      -0.02524560 </v>
   <v>       0.02952962      -0.05072764       0.00615617 </v>
   <v>      -0.01823967      -0.02252494      -0.00450364 </v>
   <v>      -0.00070159       0.01456402       0.03392270 </v>
   <v>       0.00810408       0.00517667      -0.01522351 </v>
   <v>       0.00551165      -0.00065941      -0.04503292 </v>
   <v>      -0.01535681       0.00381382      -0.00159197 </v>
   <v>       0.01087591      -0.01907136      -0.02765016 </v>
   <v>      -0.03778781      -0.00217085      -0.00182731 </v>
   <v>       0.00710769       0.00269233       0.04317937 </v>
   <v>      -0.00737675       0.01085425       0.02995006 </v>
   <v>       0.01716517       0.01236685       0.01971286 </v>
   <v>       0.01491559       0.00064469       0.00302764 </v>
   <v>       0.00473138       0.00363250       0.01684733 </v>
   <v>      -0.05195090      -0.01329177      -0.01431335 </v>
   <v>       0.02480906       0.03499648      -0.00765291 </v>
  </varray>
  <varray name="stress" >
   <v>       4.05006549       0.13816496       0.02799289 </v>
   <v>       0.13816497       4.46537356      -0.30589764 </v>
   <v>       0.02799286      -0.30589762       4.42731949 </v>
  </varray>
  <energy>
   <i name="e_fr_energy">   -359.53841904 </i>
   <i name="e_wo_entrp">   -359.54172087 </i>
   <i name="e_0_energy">      0.00990549 </i>
  </energy>
  <time name="totalsc">   10.28   10.71</time>
 </calculation>
 <calculation>
  <scstep>
   <time name="dav">    0.91    0.92</time>
   <time name="total">    1.05    1.15</time>
   <energy>
    <i name="alphaZ">   1451.60293933 </i>
    <i name="ewald"> -18315.41937436 </i>
    <i name="hartreedc">  -6109.23790437 </i>
    <i name="XCdc">   -383.53326561 </i>
    <i name="pawpsdc">  33538.25247309 </i>
    <i name="pawaedc"> -31878.33004487 </i>
    <i name="eentropy">      0.01006555 </i>
    <i name="bandstr">  -2413.54105705 </i>
    <i name="atom">  23750.65608077 </i>
    <i name="e_fr_energy">   -359.54008752 </i>
    <i name="e_wo_entrp">   -359.55015307 </i>
    <i name="e_0_energy">   -359.54344270 </i>
   </energy>
  </scstep>
  <scstep>
   <time name="diag">    0.07    0.07</time>
   <time name="diis">    0.73    0.74</time>
   <time name="orth">    0.01    0.01</time>
   <time name="total">    0.88    0.91</time>
   <energy>
    <i name="e_fr_energy">   -359.53981073 </i>
    <i name="e_wo_entrp">   -359.54953879 </i>
    <i name="e_0_energy">   -359.54305342 </i>
   </energy>
  </scstep>
  <scstep>
   <time name="diag">    0.07    0.07</time>
   <time name="diis">    0.78    0.79</time>
   <time name="orth">    0.01    0.01</time>
   <time name="total">    0.95    0.98</time>
   <energy>
    <i name="e_fr_energy">   -359.53949444 </i>
    <i name="e_wo_entrp">   -359.54943110 </i>
    <i name="e_0_energy">   -359.54280666 </i>
   </energy>
  </scstep>
  <scstep>
   <time name="diag">    0.09    0.09</time>
   <time name="diis">    0.80    0.81</time>
   <time name="orth">    0.01    0.01</time>
   <time name="total">    0.97    1.01</time>
   <energy>
    <i name="e_fr_energy">   -359.53920987 </i>
    <i name="e_wo_entrp">   -359.54920925 </i>
    <i name="e_0_energy">   -359.54254300 </i>
   </energy>
  </scstep>
  <scstep>
   <time name="diag">    0.07    0.07</time>
   <time name="diis">    0.73    0.73</time>
   <time name="orth">    0.01    0.01</time>
   <time name="total">    0.88    0.91</time>
   <energy>
    <i name="e_fr_energy">   -359.53917714 </i>
    <i name="e_wo_entrp">   -359.54905975 </i>
    <i name="e_0_energy">   -359.54247134 </i>
   </energy>
  </scstep>
  <scstep>
   <time name="diag">    0.08    0.08</time>
   <time name="diis">    0.74    0.75</time>
   <time name="orth">    0.01    0.01</time>
   <time name="total">    0.89    0.93</time>
   <energy>
    <i name="e_fr_energy">   -359.53916551 </i>
    <i name="e_wo_entrp">   -359.54910446 </i>
    <i name="e_0_energy">   -359.54247849 </i>
   </energy>
  </scstep>
  <scstep>
   <time name="diag">    0.08    0.08</time>
   <time name="diis">    0.44    0.44</time>
   <time name="orth">    0.01    0.01</time>
   <time name="total">    0.56    0.59</time>
   <energy>
    <i name="alphaZ">   1451.60293933 </i>
    <i name="ewald"> -18315.41937436 </i>
    <i name="hartreedc">  -6112.86351192 </i>
    <i name="XCdc">   -383.37633888 </i>
    <i name="pawpsdc">  33492.23270463 </i>
    <i name="pawaedc"> -31832.17673373 </i>
    <i name="eentropy">      0.00994789 </i>
    <i name="bandstr">  -2410.20487208 </i>
    <i name="atom">  23750.65608077 </i>
    <i name="e_fr_energy">   -359.53915835 </i>
    <i name="e_wo_entrp">   -359.54910624 </i>
    <i name="e_0_energy">   -359.54247431 </i>
   </energy>
  </scstep>
  <structure>
   <crystal>
    <varray name="basis" >
     <v>       7.02030691       0.02176203       0.06027887 </v>
     <v>       0.03239068      10.30702369      -0.00541445 </v>
     <v>       0.08795713      -0.00586500      10.24777109 </v>
    </varray>
    <i name="volume">    741.45091779 </i>
    <varray name="rec_basis" >
     <v>       0.14245581      -0.00044832      -0.00122296 </v>
     <v>      -0.00030126       0.09702220       0.00005811 </v>
     <v>      -0.00083810       0.00005390       0.09758942 </v>
    </varray>
   </crystal>
   <varray name="positions" >
    <v>       0.72912600       0.16318679       0.82521494 </v>
    <v>       0.50628794       0.33483279       0.34029182 </v>
    <v>       0.02391525       0.31872365       0.66713845 </v>
    <v>       0.26397466       0.49502355       0.15081951 </v>
    <v>       0.98152157       0.33273400       0.32963219 </v>
    <v>       0.49477823       0.66710598       0.33518730 </v>
    <v>       0.78043073       0.51092587       0.52349430 </v>
    <v>       0.77027788       0.83778859       0.51138232 </v>
    <v>       0.26135649       0.50033863       0.84293659 </v>
    <v>       0.25904209       0.16307439       0.16938734 </v>
    <v>       0.74751579       0.82719284       0.83266899 </v>
    <v>       0.28829466       0.17304609       0.85679873 </v>
    <v>       0.50265611       0.99579293       0.33908986 </v>
    <v>       0.46920748       0.99932099       0.65036709 </v>
    <v>       0.99924890       0.99806842       0.00009920 </v>
    <v>       0.02836817       0.00336178       0.67344892 </v>
    <v>       0.99270204       0.66697829       0.31535111 </v>
    <v>       0.48253533       0.33007274       0.64181669 </v>
    <v>       0.97352742       0.32500156       0.00547610 </v>
    <v>       0.75356865       0.50985353       0.83415059 </v>
    <v>       0.46468425       0.67417966       0.65451934 </v>
    <v>       0.50261916       0.67628138       0.00801999 </v>
    <v>       0.00031011       0.67612753       0.01084693 </v>
    <v>       0.74326630       0.83222265       0.15697280 </v>
    <v>       0.98721363       0.99927720       0.32834355 </v>
    <v>       0.25076949       0.83769515       0.16508813 </v>
    <v>       0.76460411       0.15253904       0.50479946 </v>
    <v>       0.21670328       0.50755500       0.50190970 </v>
    <v>       0.03906800       0.67720531       0.67507531 </v>
    <v>       0.73661461       0.51143446       0.15071324 </v>
    <v>       0.21844773       0.83276966       0.48328535 </v>
    <v>       0.25937449       0.82747182       0.85049857 </v>
    <v>       0.22622381       0.16137799       0.47483492 </v>
    <v>       0.73693339       0.15763019       0.16758520 </v>
    <v>       0.54026267       0.33670750       0.01074764 </v>
    <v>       0.50455256       0.98710706       0.01199881 </v>
   </varray>
  </structure>
  <varray name="forces" >
   <v>      -0.00640364       0.02407420      -0.00629463 </v>
   <v>       0.00264662       0.00685145       0.00341592 </v>
   <v>      -0.00176365      -0.00078247       0.01908493 </v>
   <v>       0.00241728      -0.01705221       0.01638581 </v>
   <v>       0.00611199       0.00254539      -0.00030660 </v>
   <v>      -0.01365393      -0.00047242      -0.00282565 </v>
   <v>      -0.00614767      -0.00431291      -0.00609954 </v>
   <v>       0.00399173      -0.00061460      -0.00566507 </v>
   <v>      -0.00657759       0.02849540       0.00264689 </v>
   <v>      -0.01112805       0.01180686      -0.00272475 </v>
   <v>      -0.01639877       0.00249838      -0.02741766 </v>
   <v>       0.00665659      -0.01604091       0.00388716 </v>
   <v>      -0.01525877      -0.01138156      -0.00786113 </v>
   <v>       0.00781371      -0.01363597       0.00737420 </v>
   <v>      -0.02672911       0.02684098      -0.00506053 </v>
   <v>      -0.01150774       0.00075254       0.00098875 </v>
   <v>       0.01543205       0.00399299       0.00021670 </v>
   <v>      -0.00013560       0.00442667       0.01763375 </v>
   <v>       0.02706913      -0.00514471       0.00216555 </v>
   <v>       0.00726304      -0.01856169      -0.01764134 </v>
   <v>       0.02105687       0.00757597      -0.02688642 </v>
   <v>       0.02701781      -0.03473964       0.00332226 </v>
   <v>      -0.01573861      -0.01266193       0.00175462 </v>
   <v>       0.00087846       0.01224266       0.02928040 </v>
   <v>       0.00779919      -0.00287872      -0.00675481 </v>
   <v>       0.00474448      -0.00144618      -0.07697820 </v>
   <v>      -0.01305670       0.00340112      -0.00091307 </v>
   <v>       0.00628867      -0.01779711      -0.02312458 </v>
   <v>      -0.01990457      -0.00304841      -0.00929590 </v>
   <v>       0.00397666       0.00086751       0.03008138 </v>
   <v>      -0.01023139       0.00782548       0.03212613 </v>
   <v>       0.02499443      -0.01057319       0.05715653 </v>
   <v>       0.01507066       0.00291661       0.00058723 </v>
   <v>       0.00361438       0.00369706       0.01577196 </v>
   <v>      -0.03552361      -0.00749864      -0.00959637 </v>
   <v>       0.01531566       0.02783196      -0.00843393 </v>
  </varray>
  <varray name="stress" >
   <v>       2.99445700       0.06158042       0.01078200 </v>
   <v>       0.06158039       3.26340847      -0.17631534 </v>
   <v>       0.01078196      -0.17631534       3.24367354 </v>
  </varray>
  <energy>
   <i name="e_fr_energy">   -359.53915835 </i>
   <i name="e_wo_entrp">   -359.54247431 </i>
   <i name="e_0_energy">      0.00994789 </i>
  </energy>
  <time name="totalsc">    7.79    8.19</time>
 </calculation>
 <calculation>
  <scstep>
   <time name="dav">    0.92    0.92</time>
   <time name="total">    1.03    1.20</time>
   <energy>
    <i name="alphaZ">   1451.16700304 </i>
    <i name="ewald"> -18313.54288601 </i>
    <i name="hartreedc">  -6112.27053878 </i>
    <i name="XCdc">   -383.45834409 </i>
    <i name="pawpsdc">  33493.29502795 </i>
    <i name="pawaedc"> -31833.26399267 </i>
    <i name="eentropy">      0.01004403 </i>
    <i name="bandstr">  -2412.13248951 </i>
    <i name="atom">  23750.65608077 </i>
    <i name="e_fr_energy">   -359.54009530 </i>
    <i name="e_wo_entrp">   -359.55013932 </i>
    <i name="e_0_energy">   -359.54344331 </i>
   </energy>
  </scstep>
  <scstep>
   <time name="diag">    0.08    0.08</time>
   <time name="diis">    0.78    0.80</time>
   <time name="orth">    0.01    0.01</time>
   <time name="total">    0.93    0.98</time>
   <energy>
    <i name="e_fr_energy">   -359.54007147 </i>
    <i name="e_wo_entrp">   -359.55003527 </i>
    <i name="e_0_energy">   -359.54339274 </i>
   </energy>
  </scstep>
  <scstep>
   <time name="diag">    0.10    0.10</time>
   <time name="diis">    0.70    0.70</time>
   <time name="orth">    0.03    0.03</time>
   <time name="total">    0.93    0.98</time>
   <energy>
    <i name="e_fr_energy">   -359.54001062 </i>
    <i name="e_wo_entrp">   -359.54996886 </i>
    <i name="e_0_energy">   -359.54333004 </i>
   </energy>
  </scstep>
  <scstep>
   <time name="diag">    0.09    0.09</time>
   <time name="diis">    0.55    0.55</time>
   <time name="orth">    0.01    0.01</time>
   <time name="total">    0.72    0.74</time>
   <energy>
    <i name="e_fr_energy">   -359.53998460 </i>
    <i name="e_wo_entrp">   -359.54998532 </i>
    <i name="e_0_energy">   -359.54331817 </i>
   </energy>
  </scstep>
  <scstep>
   <time name="diag">    0.07    0.07</time>
   <time name="diis">    0.30    0.30</time>
   <time name="orth">    0.01    0.01</time>
   <time name="total">    0.41    0.46</time>
   <energy>
    <i name="alphaZ">   1451.16700304 </i>
    <i name="ewald"> -18313.54288601 </i>
    <i name="hartreedc">  -6113.43650837 </i>
    <i name="XCdc">   -383.40751852 </i>
    <i name="pawpsdc">  33477.17169615 </i>
    <i name="pawaedc"> -31817.16041020 </i>
    <i name="eentropy">      0.00997416 </i>
    <i name="bandstr">  -2410.99741005 </i>
    <i name="atom">  23750.65608077 </i>
    <i name="e_fr_energy">   -359.53997903 </i>
    <i name="e_wo_entrp">   -359.54995319 </i>
    <i name="e_0_energy">   -359.54330375 </i>
   </energy>
  </scstep>
  <structure>
   <crystal>
    <varray name="basis" >
     <v>       7.02100925       0.02157463       0.06022548 </v>
     <v>       0.03211415      10.30801116      -0.00522614 </v>
     <v>       0.08787840      -0.00567989      10.24883881 </v>
    </varray>
    <i name="volume">    741.67365257 </i>
    <varray name="rec_basis" >
     <v>       0.14244151      -0.00044439      -0.00122161 </v>
     <v>      -0.00029859       0.09701288       0.00005632 </v>
     <v>      -0.00083718       0.00005208       0.09757924 </v>
    </varray>
   </crystal>
   <varray name="positions" >
    <v>       0.72911570       0.16322601       0.82521677 </v>
    <v>       0.50626982       0.33483089       0.34029346 </v>
    <v>       0.02390482       0.31872126       0.66714645 </v>
    <v>       0.26398341       0.49499200       0.15084195 </v>
    <v>       0.98154744       0.33273643       0.32964083 </v>
    <v>       0.49475011       0.66711263       0.33518673 </v>
    <v>       0.78045307       0.51091611       0.52349616 </v>
    <v>       0.77030488       0.83780044       0.51133673 </v>
    <v>       0.26135690       0.50045981       0.84293490 </v>
    <v>       0.25903604       0.16309270       0.16940242 </v>
    <v>       0.74746059       0.82719130       0.83265431 </v>
    <v>       0.28830545       0.17296887       0.85680037 </v>
    <v>       0.50263231       0.99577562       0.33909383 </v>
    <v>       0.46920049       0.99931059       0.65037439 </v>
    <v>       0.99919196       0.99810487       0.00009626 </v>
    <v>       0.02836575       0.00338175       0.67344389 </v>
    <v>       0.99272083       0.66699505       0.31533998 </v>
    <v>       0.48253787       0.33007751       0.64182254 </v>
    <v>       0.97352796       0.32499609       0.00547858 </v>
    <v>       0.75358006       0.50981333       0.83414502 </v>
    <v>       0.46466425       0.67417938       0.65448177 </v>
    <v>       0.50266767       0.67626840       0.00801823 </v>
    <v>       0.00028683       0.67613160       0.01086363 </v>
    <v>       0.74327171       0.83223279       0.15700055 </v>
    <v>       0.98722567       0.99925536       0.32835010 </v>
    <v>       0.25077755       0.83768984       0.16490663 </v>
    <v>       0.76458953       0.15254350       0.50480041 </v>
    <v>       0.21670136       0.50753357       0.50188877 </v>
    <v>       0.03909326       0.67719665       0.67504925 </v>
    <v>       0.73661190       0.51143227       0.15072325 </v>
    <v>       0.21841650       0.83277251       0.48333234 </v>
    <v>       0.25944731       0.82740276       0.85066504 </v>
    <v>       0.22625110       0.16138925       0.47482769 </v>
    <v>       0.73693436       0.15763506       0.16760512 </v>
    <v>       0.54024735       0.33671102       0.01074687 </v>
    <v>       0.50455119       0.98712776       0.01198575 </v>
   </varray>
  </structure>
  <varray name="forces" >
   <v>      -0.00686685       0.02358643      -0.00726520 </v>
   <v>       0.00412215       0.00687128       0.00443778 </v>
   <v>      -0.00115025      -0.00125432       0.01845763 </v>
   <v>       0.00284631      -0.01508292       0.01582540 </v>
   <v>       0.00454939       0.00231900      -0.00000862 </v>
   <v>      -0.01383733      -0.00020963      -0.00415927 </v>
   <v>      -0.00646038      -0.00381879      -0.00646102 </v>
   <v>       0.00477562      -0.00070983      -0.00342914 </v>
   <v>      -0.00735668       0.02110380       0.00280383 </v>
   <v>      -0.01133438       0.01076161      -0.00367235 </v>
   <v>      -0.01526765       0.00220526      -0.02747427 </v>
   <v>       0.00752548      -0.01044562       0.00373989 </v>
   <v>      -0.01482809      -0.01096700      -0.00992690 </v>
   <v>       0.00818772      -0.01442528       0.00719031 </v>
   <v>      -0.02573711       0.02496973      -0.00500860 </v>
   <v>      -0.01183735      -0.00114646       0.00224337 </v>
   <v>       0.01641505       0.00297870      -0.00054419 </v>
   <v>      -0.00118539       0.00417049       0.01871477 </v>
   <v>       0.02782583      -0.00472820       0.00264630 </v>
   <v>       0.00763913      -0.01585274      -0.01703859 </v>
   <v>       0.02122619       0.00862901      -0.02536543 </v>
   <v>       0.02778441      -0.03660873       0.00550040 </v>
   <v>      -0.01669214      -0.01383247       0.00189643 </v>
   <v>       0.00011737       0.01164287       0.02687738 </v>
   <v>       0.00756168      -0.00026482      -0.00828605 </v>
   <v>       0.00515149      -0.00122662      -0.06807509 </v>
   <v>      -0.01238250       0.00261802      -0.00143100 </v>
   <v>       0.00562375      -0.01636728      -0.02153090 </v>
   <v>      -0.02025706      -0.00249803      -0.00744860 </v>
   <v>       0.00353731       0.00175995       0.02945647 </v>
   <v>      -0.01092316       0.00805791       0.03056846 </v>
   <v>       0.02198306      -0.00553159       0.04571654 </v>
   <v>       0.01404330       0.00139009       0.00001948 </v>
   <v>       0.00289570       0.00249604       0.01521681 </v>
   <v>      -0.03504585      -0.00717169      -0.00805912 </v>
   <v>       0.01735122       0.02658181      -0.00612689 </v>
  </varray>
  <varray name="stress" >
   <v>       2.51832293       0.03046787       0.00420576 </v>
   <v>       0.03046787       2.81355735      -0.17371033 </v>
   <v>       0.00420577      -0.17371030       2.80021419 </v>
  </varray>
  <energy>
   <i name="e_fr_energy">   -359.53997903 </i>
   <i name="e_wo_entrp">   -359.54330375 </i>
[...]
       <r>    6.4871    1.0000 </r>
       <r>    6.5130    1.0000 </r>
       <r>    6.5682    1.0000 </r>
       <r>    6.6069    1.0000 </r>
       <r>    6.6327    1.0000 </r>
       <r>    6.7014    1.0000 </r>
       <r>    6.7237    1.0000 </r>
       <r>    6.7482    1.0000 </r>
       <r>    6.8105    1.0000 </r>
       <r>    6.8669    1.0002 </r>
       <r>    6.8910    1.0004 </r>
       <r>    6.9347    1.0016 </r>
       <r>    6.9413    1.0019 </r>
       <r>    7.0169    1.0116 </r>
       <r>    7.0499    1.0204 </r>
       <r>    7.0764    1.0285 </r>
       <r>    7.1166    1.0354 </r>
       <r>    7.1492    1.0248 </r>
       <r>    7.1752    0.9957 </r>
       <r>    7.2290    0.8499 </r>
       <r>    7.2726    0.6448 </r>
       <r>    7.3051    0.4642 </r>
       <r>    7.3642    0.1666 </r>
       <r>    7.3682    0.1509 </r>
       <r>    7.4103    0.0256 </r>
       <r>    7.4364   -0.0143 </r>
       <r>    7.5095   -0.0316 </r>
       <r>    7.5295   -0.0259 </r>
       <r>    7.5686   -0.0145 </r>
       <r>    7.6061   -0.0068 </r>
       <r>    7.6326   -0.0036 </r>
       <r>    7.6757   -0.0011 </r>
       <r>    7.7357   -0.0002 </r>
       <r>    7.7934   -0.0000 </r>
       <r>    7.8326   -0.0000 </r>
       <r>    7.8703   -0.0000 </r>
       <r>    7.9253   -0.0000 </r>
       <r>    7.9437   -0.0000 </r>
       <r>    7.9806   -0.0000 </r>
       <r>    7.9952   -0.0000 </r>
       <r>    8.0617   -0.0000 </r>
       <r>    8.1176   -0.0000 </r>
       <r>    8.1434   -0.0000 </r>
       <r>    8.2230   -0.0000 </r>
       <r>    8.2698   -0.0000 </r>
       <r>    8.4397   -0.0000 </r>
       <r>    8.6028   -0.0000 </r>
       <r>    8.6569   -0.0000 </r>
       <r>    9.0641   -0.0000 </r>
      </set>
     </set>
    </set>
   </array>
  </eigenvalues>
  <separator name="orbital magnetization" >
   <v name="MAGDIPOLOUT">      0.00000000      0.00000000      0.00000000</v>
  </separator>
  <dos>
   <i name="efermi">      7.29870922 </i>
   <total>
    <array>
     <dimension dim="1">gridpoints</dimension>
     <dimension dim="2">spin</dimension>
     <field>energy</field>
     <field>total</field>
     <field>integrated</field>
     <set>
      <set comment="spin 1">
       <r>   -49.6844     0.0000     0.0000 </r>
       <r>   -49.4791     0.0000     0.0000 </r>
       <r>   -49.2738     0.0000     0.0000 </r>
       <r>   -49.0685     0.0000     0.0000 </r>
       <r>   -48.8632     0.0000     0.0000 </r>
       <r>   -48.6579     0.0000     0.0000 </r>
       <r>   -48.4526     0.0000     0.0000 </r>
       <r>   -48.2473    -0.0000    -0.0000 </r>
       <r>   -48.0420    -0.0000    -0.0000 </r>
       <r>   -47.8368    -0.0000    -0.0000 </r>
       <r>   -47.6315    -0.0000    -0.0000 </r>
       <r>   -47.4262    -0.0000    -0.0000 </r>
       <r>   -47.2209    -0.0642    -0.0132 </r>
       <r>   -47.0156    -0.7759    -0.1725 </r>
       <r>   -46.8103    26.2972     5.2263 </r>
       <r>   -46.6050    14.4318     8.1891 </r>
       <r>   -46.3997    -0.9109     8.0021 </r>
       <r>   -46.1944    -0.0102     8.0000 </r>
       <r>   -45.9891    -0.0000     8.0000 </r>
       <r>   -45.7838    -0.0000     8.0000 </r>
       <r>   -45.5785     0.0000     8.0000 </r>
       <r>   -45.3732     0.0000     8.0000 </r>
       <r>   -45.1679     0.0000     8.0000 </r>
       <r>   -44.9626     0.0000     8.0000 </r>
       <r>   -44.7573     0.0000     8.0000 </r>
       <r>   -44.5520     0.0000     8.0000 </r>
       <r>   -44.3467     0.0000     8.0000 </r>
       <r>   -44.1414     0.0000     8.0000 </r>
       <r>   -43.9361     0.0000     8.0000 </r>
       <r>   -43.7308     0.0000     8.0000 </r>
       <r>   -43.5255     0.0000     8.0000 </r>
       <r>   -43.3202     0.0000     8.0000 </r>
       <r>   -43.1149     0.0000     8.0000 </r>
       <r>   -42.9096     0.0000     8.0000 </r>
       <r>   -42.7043     0.0000     8.0000 </r>
       <r>   -42.4990     0.0000     8.0000 </r>
       <r>   -42.2937    -0.0000     8.0000 </r>
       <r>   -42.0884    -0.0000     8.0000 </r>
       <r>   -41.8831    -0.0000     8.0000 </r>
       <r>   -41.6778    -0.0000     8.0000 </r>
       <r>   -41.4725    -0.0024     7.9995 </r>
       <r>   -41.2672    -0.7130     7.8531 </r>
       <r>   -41.0619     6.0677     9.0988 </r>
       <r>   -40.8566    84.0622    26.3567 </r>
       <r>   -40.6513    29.5027    32.4135 </r>
       <r>   -40.4460    -1.9942    32.0041 </r>
       <r>   -40.2407    -0.0201    32.0000 </r>
       <r>   -40.0354    -0.0000    32.0000 </r>
       <r>   -39.8301    -0.0000    32.0000 </r>
       <r>   -39.6248     0.0000    32.0000 </r>
       <r>   -39.4195     0.0000    32.0000 </r>
       <r>   -39.2142     0.0000    32.0000 </r>
       <r>   -39.0089     0.0000    32.0000 </r>
       <r>   -38.8036     0.0000    32.0000 </r>
       <r>   -38.5983     0.0000    32.0000 </r>
       <r>   -38.3930     0.0000    32.0000 </r>
       <r>   -38.1877     0.0000    32.0000 </r>
       <r>   -37.9824     0.0000    32.0000 </r>
       <r>   -37.7771     0.0000    32.0000 </r>
       <r>   -37.5718     0.0000    32.0000 </r>
       <r>   -37.3665     0.0000    32.0000 </r>
       <r>   -37.1612     0.0000    32.0000 </r>
       <r>   -36.9559     0.0000    32.0000 </r>
       <r>   -36.7506     0.0000    32.0000 </r>
       <r>   -36.5453     0.0000    32.0000 </r>
       <r>   -36.3400     0.0000    32.0000 </r>
       <r>   -36.1347     0.0000    32.0000 </r>
       <r>   -35.9294     0.0000    32.0000 </r>
       <r>   -35.7241     0.0000    32.0000 </r>
       <r>   -35.5188     0.0000    32.0000 </r>
       <r>   -35.3135     0.0000    32.0000 </r>
       <r>   -35.1082     0.0000    32.0000 </r>
       <r>   -34.9029     0.0000    32.0000 </r>
       <r>   -34.6976     0.0000    32.0000 </r>
       <r>   -34.4923     0.0000    32.0000 </r>
       <r>   -34.2870     0.0000    32.0000 </r>
       <r>   -34.0817     0.0000    32.0000 </r>
       <r>   -33.8764     0.0000    32.0000 </r>
       <r>   -33.6712     0.0000    32.0000 </r>
       <r>   -33.4659     0.0000    32.0000 </r>
       <r>   -33.2606     0.0000    32.0000 </r>
       <r>   -33.0553     0.0000    32.0000 </r>
       <r>   -32.8500     0.0000    32.0000 </r>
       <r>   -32.6447     0.0000    32.0000 </r>
       <r>   -32.4394     0.0000    32.0000 </r>
       <r>   -32.2341     0.0000    32.0000 </r>
       <r>   -32.0288     0.0000    32.0000 </r>
       <r>   -31.8235     0.0000    32.0000 </r>
       <r>   -31.6182     0.0000    32.0000 </r>
       <r>   -31.4129     0.0000    32.0000 </r>
       <r>   -31.2076     0.0000    32.0000 </r>
       <r>   -31.0023     0.0000    32.0000 </r>
       <r>   -30.7970     0.0000    32.0000 </r>
       <r>   -30.5917     0.0000    32.0000 </r>
       <r>   -30.3864     0.0000    32.0000 </r>
       <r>   -30.1811     0.0000    32.0000 </r>
       <r>   -29.9758     0.0000    32.0000 </r>
       <r>   -29.7705     0.0000    32.0000 </r>
       <r>   -29.5652     0.0000    32.0000 </r>
       <r>   -29.3599     0.0000    32.0000 </r>
       <r>   -29.1546     0.0000    32.0000 </r>
       <r>   -28.9493     0.0000    32.0000 </r>
       <r>   -28.7440     0.0000    32.0000 </r>
       <r>   -28.5387     0.0000    32.0000 </r>
       <r>   -28.3334     0.0000    32.0000 </r>
       <r>   -28.1281     0.0000    32.0000 </r>
       <r>   -27.9228     0.0000    32.0000 </r>
       <r>   -27.7175     0.0000    32.0000 </r>
       <r>   -27.5122     0.0000    32.0000 </r>
       <r>   -27.3069     0.0000    32.0000 </r>
       <r>   -27.1016     0.0000    32.0000 </r>
       <r>   -26.8963     0.0000    32.0000 </r>
       <r>   -26.6910     0.0000    32.0000 </r>
       <r>   -26.4857     0.0000    32.0000 </r>
       <r>   -26.2804     0.0000    32.0000 </r>
       <r>   -26.0751     0.0000    32.0000 </r>
       <r>   -25.8698     0.0000    32.0000 </r>
       <r>   -25.6645     0.0000    32.0000 </r>
       <r>   -25.4592     0.0000    32.0000 </r>
       <r>   -25.2539     0.0000    32.0000 </r>
       <r>   -25.0486     0.0000    32.0000 </r>
       <r>   -24.8433     0.0000    32.0000 </r>
       <r>   -24.6380     0.0000    32.0000 </r>
       <r>   -24.4327    -0.0000    32.0000 </r>
       <r>   -24.2274    -0.0000    32.0000 </r>
       <r>   -24.0221    -0.0000    32.0000 </r>
       <r>   -23.8168    -0.0000    32.0000 </r>
       <r>   -23.6115    -0.0107    31.9978 </r>
       <r>   -23.4062    -0.6029    31.8740 </r>
       <r>   -23.2009     7.9269    33.5014 </r>
       <r>   -22.9956    51.0856    43.9892 </r>
       <r>   -22.7903    45.5226    53.3349 </r>
       <r>   -22.5850    13.3072    56.0669 </r>
       <r>   -22.3797    -0.2749    56.0104 </r>
       <r>   -22.1744    -0.0508    56.0000 </r>
       <r>   -21.9691    -0.0000    56.0000 </r>
       <r>   -21.7638    -0.0000    56.0000 </r>
       <r>   -21.5585     0.0000    56.0000 </r>
       <r>   -21.3532     0.0000    56.0000 </r>
       <r>   -21.1479     0.0000    56.0000 </r>
       <r>   -20.9426     0.0000    56.0000 </r>
       <r>   -20.7373    -0.0000    56.0000 </r>
       <r>   -20.5320    -0.0000    56.0000 </r>
       <r>   -20.3267    -0.0000    56.0000 </r>
       <r>   -20.1214    -0.0000    56.0000 </r>
       <r>   -19.9161    -0.0001    56.0000 </r>
       <r>   -19.7109    -0.1108    55.9772 </r>
       <r>   -19.5056    -0.4382    55.8873 </r>
       <r>   -19.3003    27.4198    61.5165 </r>
       <r>   -19.0950    97.1203    81.4552 </r>
       <r>   -18.8897   140.6844   110.3375 </r>
       <r>   -18.6844    79.9284   126.7467 </r>
       <r>   -18.4791     6.8732   128.1577 </r>
       <r>   -18.2738    -0.7650   128.0007 </r>
       <r>   -18.0685    -0.0033   128.0000 </r>
       <r>   -17.8632    -0.0000   128.0000 </r>
       <r>   -17.6579    -0.0000   128.0000 </r>
       <r>   -17.4526     0.0000   128.0000 </r>
       <r>   -17.2473     0.0000   128.0000 </r>
       <r>   -17.0420     0.0000   128.0000 </r>
       <r>   -16.8367     0.0000   128.0000 </r>
       <r>   -16.6314     0.0000   128.0000 </r>
       <r>   -16.4261     0.0000   128.0000 </r>
       <r>   -16.2208     0.0000   128.0000 </r>
       <r>   -16.0155     0.0000   128.0000 </r>
       <r>   -15.8102     0.0000   128.0000 </r>
       <r>   -15.6049     0.0000   128.0000 </r>
       <r>   -15.3996     0.0000   128.0000 </r>
       <r>   -15.1943     0.0000   128.0000 </r>
       <r>   -14.9890     0.0000   128.0000 </r>
       <r>   -14.7837     0.0000   128.0000 </r>
       <r>   -14.5784     0.0000   128.0000 </r>
       <r>   -14.3731     0.0000   128.0000 </r>
       <r>   -14.1678     0.0000   128.0000 </r>
       <r>   -13.9625     0.0000   128.0000 </r>
       <r>   -13.7572     0.0000   128.0000 </r>
       <r>   -13.5519     0.0000   128.0000 </r>
       <r>   -13.3466     0.0000   128.0000 </r>
       <r>   -13.1413     0.0000   128.0000 </r>
       <r>   -12.9360     0.0000   128.0000 </r>
       <r>   -12.7307     0.0000   128.0000 </r>
       <r>   -12.5254     0.0000   128.0000 </r>
       <r>   -12.3201     0.0000   128.0000 </r>
       <r>   -12.1148     0.0000   128.0000 </r>
       <r>   -11.9095     0.0000   128.0000 </r>
       <r>   -11.7042     0.0000   128.0000 </r>
       <r>   -11.4989     0.0000   128.0000 </r>
       <r>   -11.2936     0.0000   128.0000 </r>
       <r>   -11.0883     0.0000   128.0000 </r>
       <r>   -10.8830     0.0000   128.0000 </r>
       <r>   -10.6777     0.0000   128.0000 </r>
       <r>   -10.4724     0.0000   128.0000 </r>
       <r>   -10.2671     0.0000   128.0000 </r>
       <r>   -10.0618     0.0000   128.0000 </r>
       <r>    -9.8565     0.0000   128.0000 </r>
       <r>    -9.6512     0.0000   128.0000 </r>
       <r>    -9.4459     0.0000   128.0000 </r>
       <r>    -9.2406     0.0000   128.0000 </r>
       <r>    -9.0353     0.0000   128.0000 </r>
       <r>    -8.8300     0.0000   128.0000 </r>
       <r>    -8.6247     0.0000   128.0000 </r>
       <r>    -8.4194     0.0000   128.0000 </r>
       <r>    -8.2141     0.0000   128.0000 </r>
       <r>    -8.0088     0.0000   128.0000 </r>
       <r>    -7.8035     0.0000   128.0000 </r>
       <r>    -7.5982     0.0000   128.0000 </r>
       <r>    -7.3929     0.0000   128.0000 </r>
       <r>    -7.1876     0.0000   128.0000 </r>
       <r>    -6.9823     0.0000   128.0000 </r>
       <r>    -6.7770     0.0000   128.0000 </r>
       <r>    -6.5717     0.0000   128.0000 </r>
       <r>    -6.3664     0.0000   128.0000 </r>
       <r>    -6.1611     0.0000   128.0000 </r>
       <r>    -5.9558     0.0000   128.0000 </r>
       <r>    -5.7506     0.0000   128.0000 </r>
       <r>    -5.5453     0.0000   128.0000 </r>
       <r>    -5.3400     0.0000   128.0000 </r>
       <r>    -5.1347     0.0000   128.0000 </r>
       <r>    -4.9294     0.0000   128.0000 </r>
       <r>    -4.7241     0.0000   128.0000 </r>
       <r>    -4.5188     0.0000   128.0000 </r>
       <r>    -4.3135     0.0000   128.0000 </r>
       <r>    -4.1082     0.0000   128.0000 </r>
       <r>    -3.9029     0.0000   128.0000 </r>
       <r>    -3.6976     0.0000   128.0000 </r>
       <r>    -3.4923     0.0000   128.0000 </r>
       <r>    -3.2870     0.0000   128.0000 </r>
       <r>    -3.0817     0.0000   128.0000 </r>
       <r>    -2.8764     0.0000   128.0000 </r>
       <r>    -2.6711     0.0000   128.0000 </r>
       <r>    -2.4658     0.0000   128.0000 </r>
       <r>    -2.2605     0.0000   128.0000 </r>
       <r>    -2.0552     0.0000   128.0000 </r>
       <r>    -1.8499     0.0000   128.0000 </r>
       <r>    -1.6446     0.0000   128.0000 </r>
       <r>    -1.4393     0.0000   128.0000 </r>
       <r>    -1.2340     0.0000   128.0000 </r>
       <r>    -1.0287     0.0000   128.0000 </r>
       <r>    -0.8234    -0.0000   128.0000 </r>
       <r>    -0.6181    -0.0000   128.0000 </r>
       <r>    -0.4128    -0.0000   128.0000 </r>
       <r>    -0.2075    -0.0000   128.0000 </r>
       <r>    -0.0022    -0.0000   128.0000 </r>
       <r>     0.2031    -0.0029   127.9994 </r>
       <r>     0.4084     0.0149   128.0025 </r>
       <r>     0.6137     0.4314   128.0910 </r>
       <r>     0.8190     1.3807   128.3745 </r>
       <r>     1.0243     1.8600   128.7563 </r>
       <r>     1.2296     2.5178   129.2732 </r>
       <r>     1.4349     3.9282   130.0797 </r>
       <r>     1.6402     2.2841   130.5486 </r>
       <r>     1.8455     2.7554   131.1143 </r>
       <r>     2.0508     4.5353   132.0454 </r>
       <r>     2.2561     3.4123   132.7459 </r>
       <r>     2.4614     5.7201   133.9202 </r>
       <r>     2.6667     6.4943   135.2535 </r>
       <r>     2.8720     7.1978   136.7312 </r>
       <r>     3.0773     8.2182   138.4184 </r>
       <r>     3.2826     7.7331   140.0059 </r>
       <r>     3.4879     9.1938   141.8934 </r>
       <r>     3.6932    15.9809   145.1743 </r>
       <r>     3.8985    22.1055   149.7125 </r>
       <r>     4.1038    23.1198   154.4590 </r>
       <r>     4.3091    26.6196   159.9239 </r>
       <r>     4.5144    27.7182   165.6144 </r>
       <r>     4.7197    36.7839   173.1661 </r>
       <r>     4.9250    41.5227   181.6907 </r>
       <r>     5.1303    38.1988   189.5328 </r>
       <r>     5.3356    34.7938   196.6759 </r>
       <r>     5.5409    32.1056   203.2672 </r>
       <r>     5.7462    23.3421   208.0593 </r>
       <r>     5.9515    29.4167   214.0985 </r>
       <r>     6.1568    54.1443   225.2142 </r>
       <r>     6.3621    57.5196   237.0229 </r>
       <r>     6.5674    56.2557   248.5721 </r>
       <r>     6.7727    53.7840   259.6139 </r>
       <r>     6.9780    55.3485   270.9769 </r>
       <r>     7.1833    51.5107   281.5519 </r>
       <r>     7.3886    46.9132   291.1832 </r>
       <r>     7.5939    46.9094   300.8136 </r>
       <r>     7.7992    46.5716   310.3747 </r>
       <r>     8.0045    41.9135   318.9795 </r>
       <r>     8.2098    37.0813   326.5922 </r>
       <r>     8.4150    29.2472   332.5966 </r>
       <r>     8.6203    22.9910   337.3166 </r>
       <r>     8.8256    14.7061   340.3358 </r>
       <r>     9.0309    14.5952   343.3321 </r>
       <r>     9.2362     3.4712   344.0448 </r>
       <r>     9.4415    -0.2128   344.0011 </r>
       <r>     9.6468    -0.0053   344.0000 </r>
       <r>     9.8521    -0.0000   344.0000 </r>
       <r>    10.0574    -0.0000   344.0000 </r>
       <r>    10.2627     0.0000   344.0000 </r>
       <r>    10.4680     0.0000   344.0000 </r>
       <r>    10.6733     0.0000   344.0000 </r>
       <r>    10.8786     0.0000   344.0000 </r>
       <r>    11.0839     0.0000   344.0000 </r>
       <r>    11.2892     0.0000   344.0000 </r>
       <r>    11.4945     0.0000   344.0000 </r>
       <r>    11.6998     0.0000   344.0000 </r>
       <r>    11.9051     0.0000   344.0000 </r>
      </set>
     </set>
    </array>
   </total>
  </dos>
 </calculation>
 <structure name="finalpos" >
  <crystal>
   <varray name="basis" >
    <v>       7.01968143       0.02005309       0.06034836 </v>
    <v>       0.02986570      10.31993686      -0.00877554 </v>
    <v>       0.08799957      -0.00923535      10.25520620 </v>
   </varray>
   <i name="volume">    742.85296106 </i>
   <varray name="rec_basis" >
    <v>       0.14246830      -0.00041334      -0.00122289 </v>
    <v>      -0.00027759       0.09690070       0.00008965 </v>
    <v>      -0.00083861       0.00008535       0.09751872 </v>
   </varray>
  </crystal>
  <varray name="positions" >
   <v>       0.72862745       0.16461647       0.82514979 </v>
   <v>       0.50653102       0.33475183       0.34070921 </v>
   <v>       0.02410516       0.31861508       0.66738244 </v>
   <v>       0.26429209       0.49476933       0.15147154 </v>
   <v>       0.98116655       0.33230206       0.32990534 </v>
   <v>       0.49324622       0.66771190       0.33495020 </v>
   <v>       0.78017915       0.51071967       0.52308742 </v>
   <v>       0.77102991       0.83766605       0.51052050 </v>
   <v>       0.26136769       0.50120724       0.84310187 </v>
   <v>       0.25860192       0.16334105       0.16939538 </v>
   <v>       0.74630881       0.82677612       0.83204314 </v>
   <v>       0.28872649       0.17252293       0.85688268 </v>
   <v>       0.50137624       0.99515591       0.33872387 </v>
   <v>       0.46945327       0.99880680       0.65051478 </v>
   <v>       0.99779262       0.99885597      -0.00047915 </v>
   <v>       0.02736369       0.00365957       0.67383363 </v>
   <v>       0.99466006       0.66740624       0.31516039 </v>
   <v>       0.48209314       0.33024925       0.64212791 </v>
   <v>       0.97414743       0.32503735       0.00573845 </v>
   <v>       0.75415753       0.50939748       0.83390019 </v>
   <v>       0.46451313       0.67441855       0.65352615 </v>
   <v>       0.50462569       0.67520938       0.00833127 </v>
   <v>      -0.00072391       0.67551381       0.01091912 </v>
   <v>       0.74362431       0.83227632       0.15759478 </v>
   <v>       0.98780387       0.99922444       0.32812972 </v>
   <v>       0.25143425       0.83768556       0.16140023 </v>
   <v>       0.76375099       0.15251808       0.50476114 </v>
   <v>       0.21652702       0.50715354       0.50141605 </v>
   <v>       0.03892279       0.67685850       0.67480725 </v>
   <v>       0.73693308       0.51137547       0.15174320 </v>
   <v>       0.21676658       0.83329259       0.48511664 </v>
   <v>       0.26123232       0.82726414       0.85228082 </v>
   <v>       0.22663781       0.16120614       0.47484907 </v>
   <v>       0.73708625       0.15751718       0.16796776 </v>
   <v>       0.53939534       0.33701938       0.01096264 </v>
   <v>       0.50622704       0.98790364       0.01206557 </v>
  </varray>
 </structure>
</modeling>
