       N       E                     dE             d eps       ncg     rms          rms(c)
DAV:   1     0.201766028497E+04    0.20177E+04   -0.11613E+05  5624   0.106E+03
DAV:   2    -0.718630698544E+02   -0.20895E+04   -0.20179E+04  5792   0.397E+02
DAV:   3    -0.340931115794E+03   -0.26907E+03   -0.25548E+03  8816   0.993E+01
DAV:   4    -0.372921861657E+03   -0.31991E+02   -0.30459E+02  8624   0.313E+01
DAV:   5    -0.376181353000E+03   -0.32595E+01   -0.31899E+01  8280   0.102E+01    0.639E+01
RMM:   6    -0.365786855712E+03    0.10394E+02   -0.22555E+01  7136   0.100E+01    0.303E+01
RMM:   7    -0.367839456751E+03   -0.20526E+01   -0.25877E+01  7583   0.822E+00    0.116E+01
RMM:   8    -0.361664509459E+03    0.61749E+01   -0.61782E+00  7654   0.367E+00    0.409E+00
RMM:   9    -0.361566565837E+03    0.97944E-01   -0.20614E+00  7783   0.184E+00    0.272E+00
RMM:  10    -0.361506999336E+03    0.59567E-01   -0.37607E-01  7709   0.107E+00    0.115E+00
RMM:  11    -0.361498373670E+03    0.86257E-02   -0.12808E-01  7797   0.536E-01    0.676E-01
RMM:  12    -0.361492973887E+03    0.53998E-02   -0.44927E-02  7814   0.309E-01    0.379E-01
RMM:  13    -0.361492156637E+03    0.81725E-03   -0.15510E-02  7896   0.167E-01    0.225E-01
RMM:  14    -0.361492352440E+03   -0.19580E-03   -0.67586E-03  8175   0.952E-02    0.118E-01
RMM:  15    -0.361492510805E+03   -0.15837E-03   -0.30783E-03  7905   0.614E-02    0.495E-02
RMM:  16    -0.361492564707E+03   -0.53901E-04   -0.12805E-03  6782   0.358E-02    0.272E-02
RMM:  17    -0.361492592158E+03   -0.27452E-04   -0.53668E-04  5954   0.238E-02    0.151E-02
RMM:  18    -0.361492610215E+03   -0.18056E-04   -0.27805E-04  5856   0.182E-02    0.911E-03
RMM:  19    -0.361492613620E+03   -0.34052E-05   -0.87647E-05  4622   0.126E-02
   1 F= -.36149261E+03 E0= -.36149543E+03  d E =-.361493E+03
       N       E                     dE             d eps       ncg     rms          rms(c)
DAV:   1    -0.361508994744E+03   -0.16385E-01   -0.40293E-01  7400   0.231E+00    0.102E+00
RMM:   2    -0.361501352466E+03    0.76423E-02   -0.88398E-02  7762   0.675E-01    0.381E-01
RMM:   3    -0.361496809660E+03    0.45428E-02   -0.17457E-02  7939   0.206E-01    0.228E-01
RMM:   4    -0.361495748810E+03    0.10608E-02   -0.44164E-03  7890   0.140E-01    0.143E-01
RMM:   5    -0.361495316834E+03    0.43198E-03   -0.11808E-03  7785   0.696E-02    0.999E-02
RMM:   6    -0.361495380084E+03   -0.63250E-04   -0.53591E-04  7580   0.358E-02    0.703E-02
RMM:   7    -0.361495425574E+03   -0.45490E-04   -0.21230E-04  6700   0.258E-02    0.374E-02
RMM:   8    -0.361495452837E+03   -0.27263E-04   -0.13404E-04  6315   0.181E-02    0.244E-02
RMM:   9    -0.361495472858E+03   -0.20021E-04   -0.59067E-05  4335   0.145E-02    0.197E-02
RMM:  10    -0.361495498901E+03   -0.26043E-04   -0.39867E-05  4144   0.126E-02    0.798E-03
RMM:  11    -0.361495507876E+03   -0.89748E-05   -0.19617E-05  3606   0.120E-02
   2 F= -.36149551E+03 E0= -.36149827E+03  d E =-.289426E-02
       N       E                     dE             d eps       ncg     rms          rms(c)
DAV:   1    -0.361498370393E+03   -0.28715E-02   -0.79441E-02  7192   0.103E+00    0.451E-01
RMM:   2    -0.361496846165E+03    0.15242E-02   -0.17459E-02  7761   0.301E-01    0.169E-01
RMM:   3    -0.361495930638E+03    0.91553E-03   -0.33975E-03  7929   0.914E-02    0.991E-02
RMM:   4    -0.361495732104E+03    0.19853E-03   -0.85687E-04  7835   0.616E-02    0.624E-02
RMM:   5    -0.361495652322E+03    0.79782E-04   -0.23048E-04  7135   0.309E-02    0.423E-02
RMM:   6    -0.361495670447E+03   -0.18125E-04   -0.99647E-05  5919   0.175E-02    0.310E-02
RMM:   7    -0.361495687050E+03   -0.16603E-04   -0.36500E-05  3938   0.125E-02    0.193E-02
RMM:   8    -0.361495697456E+03   -0.10406E-04   -0.25808E-05  3674   0.114E-02    0.967E-03
RMM:   9    -0.361495704435E+03   -0.69788E-05   -0.15718E-05  3485   0.108E-02
   3 F= -.36149570E+03 E0= -.36149844E+03  d E =-.309082E-02
       N       E                     dE             d eps       ncg     rms          rms(c)
DAV:   1    -0.361495770733E+03   -0.73276E-04   -0.12574E-03  7728   0.124E-01    0.580E-02
RMM:   2    -0.361495755617E+03    0.15115E-04   -0.31327E-04  7332   0.386E-02    0.236E-02
RMM:   3    -0.361495740051E+03    0.15567E-04   -0.55866E-05  5685   0.126E-02    0.156E-02
RMM:   4    -0.361495735407E+03    0.46433E-05   -0.12786E-05  2770   0.101E-02
   4 F= -.36149574E+03 E0= -.36149848E+03  d E =-.312179E-02
       N       E                     dE             d eps       ncg     rms          rms(c)
DAV:   1    -0.361496229510E+03   -0.48946E-03   -0.15214E-02  7056   0.452E-01    0.198E-01
RMM:   2    -0.361495952277E+03    0.27723E-03   -0.34438E-03  7739   0.134E-01    0.749E-02
RMM:   3    -0.361495767456E+03    0.18482E-03   -0.65965E-04  7572   0.405E-02    0.454E-02
RMM:   4    -0.361495722150E+03    0.45305E-04   -0.17420E-04  7209   0.274E-02    0.283E-02
RMM:   5    -0.361495700799E+03    0.21352E-04   -0.38414E-05  3471   0.153E-02    0.232E-02
RMM:   6    -0.361495698052E+03    0.27466E-05   -0.17240E-05  2983   0.107E-02
   5 F= -.36149570E+03 E0= -.36149845E+03  d E =-.308443E-02
       N       E                     dE             d eps       ncg     rms          rms(c)
DAV:   1    -0.361495938482E+03   -0.23768E-03   -0.60746E-03  7184   0.282E-01    0.129E-01
RMM:   2    -0.361495822471E+03    0.11601E-03   -0.15030E-03  7719   0.850E-02    0.494E-02
RMM:   3    -0.361495746591E+03    0.75880E-04   -0.28501E-04  6957   0.261E-02    0.304E-02
RMM:   4    -0.361495727930E+03    0.18661E-04   -0.69763E-05  5825   0.177E-02    0.183E-02
RMM:   5    -0.361495720069E+03    0.78615E-05   -0.16056E-05  2840   0.111E-02
   6 F= -.36149572E+03 E0= -.36149846E+03  d E =-.310645E-02
       N       E                     dE             d eps       ncg     rms          rms(c)
DAV:   1    -0.361495739653E+03   -0.11723E-04   -0.50888E-04  5968   0.869E-02    0.338E-02
RMM:   2    -0.361495728819E+03    0.10834E-04   -0.80333E-05  5713   0.231E-02    0.124E-02
RMM:   3    -0.361495724824E+03    0.39950E-05   -0.10983E-05  2669   0.765E-03
   7 F= -.36149572E+03 E0= -.36149847E+03  d E =-.311120E-02
       N       E                     dE             d eps       ncg     rms          rms(c)
DAV:   1    -0.361495729310E+03   -0.49096E-06   -0.13137E-04  4976   0.444E-02    0.187E-02
RMM:   2    -0.361495725400E+03    0.39104E-05   -0.20506E-05  2704   0.142E-02
   8 F= -.36149573E+03 E0= -.36149846E+03  d E =-.311178E-02
       N       E                     dE             d eps       ncg     rms          rms(c)
DAV:   1    -0.361495846394E+03   -0.11708E-03   -0.95850E-03  5376   0.290E-01    0.308E-02
RMM:   2    -0.361495878564E+03   -0.32170E-04   -0.43896E-04  6638   0.580E-02    0.142E-02
RMM:   3    -0.361495872032E+03    0.65326E-05   -0.33582E-05  3889   0.174E-02
   9 F= -.36149587E+03 E0= -.36149862E+03  d E =-.146632E-03
       N       E                     dE             d eps       ncg     rms          rms(c)
DAV:   1    -0.361495960165E+03   -0.81600E-04   -0.86277E-02  5312   0.865E-01    0.908E-02
RMM:   2    -0.361496239054E+03   -0.27889E-03   -0.39000E-03  7163   0.173E-01    0.440E-02
RMM:   3    -0.361496191816E+03    0.47238E-04   -0.42253E-04  7241   0.470E-02    0.321E-02
RMM:   4    -0.361496182271E+03    0.95448E-05   -0.10445E-04  6215   0.168E-02    0.196E-02
RMM:   5    -0.361496180744E+03    0.15267E-05   -0.36821E-05  3926   0.108E-02
  10 F= -.36149618E+03 E0= -.36149894E+03  d E =-.455345E-03
       N       E                     dE             d eps       ncg     rms          rms(c)
DAV:   1    -0.361495313446E+03    0.86882E-03   -0.34354E-01  5216   0.173E+00    0.178E-01
RMM:   2    -0.361496456720E+03   -0.11433E-02   -0.15356E-02  7089   0.348E-01    0.849E-02
RMM:   3    -0.361496282961E+03    0.17376E-03   -0.16346E-03  7632   0.940E-02    0.628E-02
RMM:   4    -0.361496239481E+03    0.43480E-04   -0.38296E-04  7656   0.308E-02    0.384E-02
RMM:   5    -0.361496233851E+03    0.56292E-05   -0.16200E-04  6767   0.206E-02    0.233E-02
RMM:   6    -0.361496234034E+03   -0.18305E-06   -0.64058E-05  4922   0.148E-02
  11 F= -.36149623E+03 E0= -.36149903E+03  d E =-.508635E-03
       N       E                     dE             d eps       ncg     rms          rms(c)
DAV:   1    -0.361496158836E+03    0.75016E-04   -0.61408E-02  5296   0.731E-01    0.758E-02
RMM:   2    -0.361496364534E+03   -0.20570E-03   -0.27201E-03  6639   0.147E-01    0.352E-02
RMM:   3    -0.361496323521E+03    0.41013E-04   -0.24256E-04  6976   0.430E-02    0.261E-02
RMM:   4    -0.361496312522E+03    0.10999E-04   -0.43976E-05  4839   0.132E-02    0.150E-02
RMM:   5    -0.361496310280E+03    0.22422E-05   -0.15469E-05  2942   0.100E-02
  12 F= -.36149631E+03 E0= -.36149909E+03  d E =-.584881E-03
       N       E                     dE             d eps       ncg     rms          rms(c)
DAV:   1    -0.361496357094E+03   -0.44572E-04   -0.75449E-03  5376   0.253E-01    0.346E-02
RMM:   2    -0.361496373044E+03   -0.15950E-04   -0.33901E-04  7540   0.508E-02    0.175E-02
RMM:   3    -0.361496365273E+03    0.77711E-05   -0.35151E-05  4226   0.141E-02
  13 F= -.36149637E+03 E0= -.36149915E+03  d E =-.549924E-04
       N       E                     dE             d eps       ncg     rms          rms(c)
DAV:   1    -0.361496396546E+03   -0.23502E-04   -0.67731E-02  5264   0.753E-01    0.109E-01
RMM:   2    -0.361496500553E+03   -0.10401E-03   -0.30902E-03  7657   0.152E-01    0.533E-02
RMM:   3    -0.361496454564E+03    0.45989E-04   -0.40494E-04  7558   0.403E-02    0.388E-02
RMM:   4    -0.361496427163E+03    0.27401E-04   -0.11756E-04  6538   0.181E-02    0.225E-02
RMM:   5    -0.361496419438E+03    0.77253E-05   -0.49440E-05  5114   0.127E-02
  14 F= -.36149642E+03 E0= -.36149921E+03  d E =-.109158E-03
