<?xml version="1.0" encoding="ISO-8859-1"?>
<modeling>
 <generator>
  <i name="program" type="string">vasp </i>
  <i name="version" type="string">5.4.1  </i>
  <i name="subversion" type="string">05Feb16 (build Jan 29 2020 16:04:39) complex                          parallel </i>
  <i name="platform" type="string">IFC91_ompi </i>
  <i name="date" type="string">2020 06 08 </i>
  <i name="time" type="string">00:37:27 </i>
 </generator>
 <incar>
  <i type="string" name="SYSTEM"> automatically generated by mexm</i>
  <i type="int" name="ISTART">     0</i>
  <i type="string" name="PREC">accurate               ! avoid wrap aro</i>
  <i type="string" name="ALGO"> Fast                   ! blocked Davids</i>
  <i type="int" name="ISPIN">     1</i>
  <i type="int" name="ICHARG">     2</i>
  <i type="int" name="NELM">    70</i>
  <i type="int" name="IBRION">     2</i>
  <i name="EDIFF">      0.00001000</i>
  <i name="EDIFFG">     -0.01000000</i>
  <i type="int" name="NSW">   300</i>
  <i type="int" name="ISIF">     3</i>
  <i type="int" name="ISYM">     1</i>
  <i name="ENCUT">    300.00000000</i>
  <i name="POTIM">      0.15000000</i>
  <i type="string" name="LREAL"> Auto                  ! unpublished met</i>
  <i type="int" name="ISMEAR">     1</i>
  <i name="SIGMA">      0.15000000</i>
  <i type="logical" name="LWAVE"> F  </i>
  <i type="logical" name="LCHARG"> F  </i>
  <i type="logical" name="LVTOT"> F  </i>
  <v type="int" name="KPOINT_BSE">    -1     0     0     0</v>
  <i type="int" name="NELM">    70</i>
 </incar>
 <kpoints>
  <generation param="Gamma">
   <v type="int" name="divisions">       3        3        3 </v>
   <v name="usershift">      0.00000000       0.00000000       0.00000000 </v>
   <v name="genvec1">      0.33333333       0.00000000       0.00000000 </v>
   <v name="genvec2">     -0.00000000       0.33333333       0.00000000 </v>
   <v name="genvec3">     -0.00000000      -0.00000000       0.33333333 </v>
   <v name="shift">      0.00000000       0.00000000       0.00000000 </v>
  </generation>
  <varray name="kpointlist" >
   <v>       0.00000000       0.00000000       0.00000000 </v>
   <v>       0.33333333       0.00000000       0.00000000 </v>
   <v>      -0.00000000       0.33333333       0.00000000 </v>
   <v>       0.33333333       0.33333333       0.00000000 </v>
   <v>      -0.33333333       0.33333333       0.00000000 </v>
   <v>      -0.00000000       0.00000000       0.33333333 </v>
   <v>       0.33333333       0.00000000       0.33333333 </v>
   <v>      -0.33333333      -0.00000000       0.33333333 </v>
   <v>      -0.00000000       0.33333333       0.33333333 </v>
   <v>       0.33333333       0.33333333       0.33333333 </v>
   <v>      -0.33333333       0.33333333       0.33333333 </v>
   <v>       0.00000000      -0.33333333       0.33333333 </v>
   <v>       0.33333333      -0.33333333       0.33333333 </v>
   <v>      -0.33333333      -0.33333333       0.33333333 </v>
  </varray>
  <varray name="weights" >
   <v>       0.03703704 </v>
   <v>       0.07407407 </v>
   <v>       0.07407407 </v>
   <v>       0.07407407 </v>
   <v>       0.07407407 </v>
   <v>       0.07407407 </v>
   <v>       0.07407407 </v>
   <v>       0.07407407 </v>
   <v>       0.07407407 </v>
   <v>       0.07407407 </v>
   <v>       0.07407407 </v>
   <v>       0.07407407 </v>
   <v>       0.07407407 </v>
   <v>       0.07407407 </v>
  </varray>
 </kpoints>
 <parameters>
  <separator name="general" >
   <i type="string" name="SYSTEM">automatically generated by mexm</i>
   <i type="logical" name="LCOMPAT"> F  </i>
  </separator>
  <separator name="electronic" >
   <i type="string" name="PREC">accura</i>
   <i name="ENMAX">    300.00000000</i>
   <i name="ENAUG">    461.25700000</i>
   <i name="EDIFF">      0.00001000</i>
   <i type="int" name="IALGO">    68</i>
   <i type="int" name="IWAVPR">    11</i>
   <i type="int" name="NBANDS">   184</i>
   <i name="NELECT">    306.00000000</i>
   <i type="int" name="TURBO">     0</i>
   <i type="int" name="IRESTART">     0</i>
   <i type="int" name="NREBOOT">     0</i>
   <i type="int" name="NMIN">     0</i>
   <i name="EREF">      0.00000000</i>
   <separator name="electronic smearing" >
    <i type="int" name="ISMEAR">     1</i>
    <i name="SIGMA">      0.15000000</i>
    <i name="KSPACING">      0.50000000</i>
    <i type="logical" name="KGAMMA"> T  </i>
   </separator>
   <separator name="electronic projectors" >
    <i type="logical" name="LREAL"> T  </i>
    <v name="ROPT">     -0.00025000     -0.00025000     -0.00025000     -0.00025000</v>
    <i type="int" name="LMAXPAW">  -100</i>
    <i type="int" name="LMAXMIX">     2</i>
    <i type="logical" name="NLSPLINE"> F  </i>
   </separator>
   <separator name="electronic startup" >
    <i type="int" name="ISTART">     0</i>
    <i type="int" name="ICHARG">     2</i>
    <i type="int" name="INIWAV">     1</i>
   </separator>
   <separator name="electronic spin" >
    <i type="int" name="ISPIN">     1</i>
    <i type="logical" name="LNONCOLLINEAR"> F  </i>
    <v name="MAGMOM">      1.00000000      1.00000000      1.00000000      1.00000000      1.00000000      1.00000000      1.00000000      1.00000000      1.00000000      1.00000000      1.00000000      1.00000000      1.00000000      1.00000000      1.00000000      1.00000000      1.00000000      1.00000000      1.00000000      1.00000000
      1.00000000      1.00000000      1.00000000      1.00000000      1.00000000      1.00000000      1.00000000      1.00000000      1.00000000      1.00000000      1.00000000      1.00000000      1.00000000      1.00000000      1.00000000      1.00000000</v>
    <i name="NUPDOWN">     -1.00000000</i>
    <i type="logical" name="LSORBIT"> F  </i>
    <v name="SAXIS">      0.00000000      0.00000000      1.00000000</v>
    <i type="logical" name="LSPIRAL"> F  </i>
    <v name="QSPIRAL">      0.00000000      0.00000000      0.00000000</v>
    <i type="logical" name="LZEROZ"> F  </i>
   </separator>
   <separator name="electronic exchange-correlation" >
    <i type="logical" name="LASPH"> F  </i>
    <i type="logical" name="LMETAGGA"> F  </i>
   </separator>
   <separator name="electronic convergence" >
    <i type="int" name="NELM">    70</i>
    <i type="int" name="NELMDL">    -5</i>
    <i type="int" name="NELMIN">     2</i>
    <i name="ENINI">    300.00000000</i>
    <separator name="electronic convergence detail" >
     <i type="logical" name="LDIAG"> T  </i>
     <i type="logical" name="LSUBROT"> F  </i>
     <i name="WEIMIN">      0.00100000</i>
     <i name="EBREAK">      0.00000001</i>
     <i name="DEPER">      0.30000000</i>
     <i type="int" name="NRMM">     4</i>
     <i name="TIME">      0.40000000</i>
    </separator>
   </separator>
   <separator name="electronic mixer" >
    <i name="AMIX">      0.40000000</i>
    <i name="BMIX">      1.00000000</i>
    <i name="AMIN">      0.10000000</i>
    <i name="AMIX_MAG">      1.60000000</i>
    <i name="BMIX_MAG">      1.00000000</i>
    <separator name="electronic mixer details" >
     <i type="int" name="IMIX">     4</i>
     <i type="logical" name="MIXFIRST"> F  </i>
     <i type="int" name="MAXMIX">   -45</i>
     <i name="WC">    100.00000000</i>
     <i type="int" name="INIMIX">     1</i>
     <i type="int" name="MIXPRE">     1</i>
     <i type="int" name="MREMOVE">     5</i>
    </separator>
   </separator>
   <separator name="electronic dipolcorrection" >
    <i type="logical" name="LDIPOL"> F  </i>
    <i type="logical" name="LMONO"> F  </i>
    <i type="int" name="IDIPOL">     0</i>
    <i name="EPSILON">      1.00000000</i>
    <v name="DIPOL">   -100.00000000   -100.00000000   -100.00000000</v>
    <i name="EFIELD">      0.00000000</i>
   </separator>
  </separator>
  <separator name="grids" >
   <i type="int" name="NGX">    40</i>
   <i type="int" name="NGY">    60</i>
   <i type="int" name="NGZ">    60</i>
   <i type="int" name="NGXF">    80</i>
   <i type="int" name="NGYF">   120</i>
   <i type="int" name="NGZF">   120</i>
   <i type="logical" name="ADDGRID"> F  </i>
  </separator>
  <separator name="ionic" >
   <i type="int" name="NSW">   300</i>
   <i type="int" name="IBRION">     2</i>
   <i type="int" name="ISIF">     3</i>
   <i name="PSTRESS">      0.00000000</i>
   <i name="EDIFFG">     -0.01000000</i>
   <i type="int" name="NFREE">     1</i>
   <i name="POTIM">      0.15000000</i>
   <i name="SMASS">     -3.00000000</i>
   <i name="SCALEE">      1.00000000</i>
  </separator>
  <separator name="ionic md" >
   <i name="TEBEG">      0.00010000</i>
   <i name="TEEND">      0.00010000</i>
   <i type="int" name="NBLOCK">     1</i>
   <i type="int" name="KBLOCK">   300</i>
   <i type="int" name="NPACO">   256</i>
   <i name="APACO">     16.00000000</i>
  </separator>
  <separator name="symmetry" >
   <i type="int" name="ISYM">     1</i>
   <i name="SYMPREC">      0.00001000</i>
  </separator>
  <separator name="dos" >
   <i type="logical" name="LORBIT"> F  </i>
   <v name="RWIGS">     -1.00000000     -1.00000000     -1.00000000     -1.00000000</v>
   <i type="int" name="NEDOS">   301</i>
   <i name="EMIN">     10.00000000</i>
   <i name="EMAX">    -10.00000000</i>
   <i name="EFERMI">      0.00000000</i>
  </separator>
  <separator name="writing" >
   <i type="int" name="NWRITE">     2</i>
   <i type="logical" name="LWAVE"> F  </i>
   <i type="logical" name="LCHARG"> F  </i>
   <i type="logical" name="LPARD"> F  </i>
   <i type="logical" name="LVTOT"> F  </i>
   <i type="logical" name="LVHAR"> F  </i>
   <i type="logical" name="LELF"> F  </i>
   <i type="logical" name="LOPTICS"> F  </i>
   <v name="STM">      0.00000000      0.00000000      0.00000000      0.00000000      0.00000000      0.00000000      0.00000000</v>
  </separator>
  <separator name="performance" >
   <i type="int" name="NPAR">     4</i>
   <i type="int" name="NSIM">     4</i>
   <i type="int" name="NBLK">    -1</i>
   <i type="logical" name="LPLANE"> T  </i>
   <i type="logical" name="LSCALAPACK"> T  </i>
   <i type="logical" name="LSCAAWARE"> F  </i>
   <i type="logical" name="LSCALU"> F  </i>
   <i type="logical" name="LASYNC"> F  </i>
   <i type="logical" name="LORBITALREAL"> F  </i>
  </separator>
  <separator name="miscellaneous" >
   <i type="int" name="IDIOT">     3</i>
   <i type="logical" name="LMUSIC"> F  </i>
   <v name="POMASS">    178.49000000     92.91000000    180.94800000     91.22400000</v>
   <v name="DARWINR">      0.00000000      0.00000000      0.00000000      0.00000000</v>
   <v name="DARWINV">      1.00000000      1.00000000      1.00000000      1.00000000</v>
   <i type="logical" name="LCORR"> T  </i>
  </separator>
  <i type="logical" name="GGA_COMPAT"> T  </i>
  <i type="logical" name="LBERRY"> F  </i>
  <i type="int" name="ICORELEVEL">     0</i>
  <i type="logical" name="LDAU"> F  </i>
  <i type="int" name="I_CONSTRAINED_M">     0</i>
  <separator name="electronic exchange-correlation" >
   <i type="string" name="GGA">--</i>
   <i type="int" name="VOSKOWN">     0</i>
   <i type="logical" name="LHFCALC"> F  </i>
   <i type="string" name="PRECFOCK"></i>
   <i type="logical" name="LSYMGRAD"> F  </i>
   <i type="logical" name="LHFONE"> F  </i>
   <i type="logical" name="LRHFCALC"> F  </i>
   <i type="logical" name="LTHOMAS"> F  </i>
   <i type="logical" name="LMODELHF"> F  </i>
   <i name="ENCUT4O">     -1.00000000</i>
   <i type="int" name="EXXOEP">     0</i>
   <i type="int" name="FOURORBIT">     0</i>
   <i name="AEXX">      0.00000000</i>
   <i name="HFALPHA">      0.00000000</i>
   <i name="MCALPHA">      0.00000000</i>
   <i name="ALDAX">      1.00000000</i>
   <i name="AGGAX">      1.00000000</i>
   <i name="ALDAC">      1.00000000</i>
   <i name="AGGAC">      1.00000000</i>
   <i type="int" name="NKREDX">     1</i>
   <i type="int" name="NKREDY">     1</i>
   <i type="int" name="NKREDZ">     1</i>
   <i type="logical" name="SHIFTRED"> F  </i>
   <i type="logical" name="ODDONLY"> F  </i>
   <i type="logical" name="EVENONLY"> F  </i>
   <i type="int" name="LMAXFOCK">     0</i>
   <i type="int" name="NMAXFOCKAE">     0</i>
   <i type="logical" name="LFOCKAEDFT"> F  </i>
   <i name="HFSCREEN">      0.00000000</i>
   <i name="HFSCREENC">      0.00000000</i>
   <i type="int" name="NBANDSGWLOW">     0</i>
  </separator>
  <separator name="vdW DFT" >
   <i type="logical" name="LUSE_VDW"> F  </i>
   <i name="Zab_VDW">     -0.84910000</i>
   <i name="PARAM1">      0.12340000</i>
   <i name="PARAM2">      1.00000000</i>
   <i name="PARAM3">      0.00000000</i>
  </separator>
  <separator name="model GW" >
   <i type="int" name="MODEL_GW">     0</i>
   <i name="MODEL_EPS0">     12.14655319</i>
   <i name="MODEL_ALPHA">      1.00000000</i>
  </separator>
  <separator name="linear response parameters" >
   <i type="logical" name="LEPSILON"> F  </i>
   <i type="logical" name="LRPA"> F  </i>
   <i type="logical" name="LNABLA"> F  </i>
   <i type="logical" name="LVEL"> F  </i>
   <i type="int" name="KINTER">     0</i>
   <i name="CSHIFT">      0.10000000</i>
   <i name="OMEGAMAX">     -1.00000000</i>
   <i name="DEG_THRESHOLD">      0.00200000</i>
  </separator>
  <separator name="orbital magnetization" >
   <i type="logical" name="NUCIND"> F  </i>
   <v name="MAGPOS">      0.00000000      0.00000000      0.00000000</v>
   <i type="logical" name="LNICSALL"> T  </i>
   <i type="logical" name="ORBITALMAG"> F  </i>
   <i type="logical" name="LMAGBLOCH"> F  </i>
   <i type="logical" name="LCHIMAG"> F  </i>
   <i type="logical" name="LGAUGE"> T  </i>
   <i type="int" name="MAGATOM">     0</i>
   <v name="MAGDIPOL">      0.00000000      0.00000000      0.00000000</v>
   <v name="AVECCONST">      0.00000000      0.00000000      0.00000000</v>
  </separator>
  <separator name="response functions" >
   <i type="logical" name="LADDER"> F  </i>
   <i type="logical" name="LFXC"> F  </i>
   <i type="logical" name="LHARTREE"> T  </i>
   <i type="int" name="IBSE">     0</i>
   <v type="int" name="KPOINT">    -1     0     0     0</v>
   <i type="logical" name="LTCTE"> F  </i>
   <i type="logical" name="LTETE"> F  </i>
   <i type="logical" name="LTRIPLET"> F  </i>
   <i type="logical" name="LFXCEPS"> F  </i>
   <i type="logical" name="LFXHEG"> F  </i>
   <i type="int" name="NATURALO">     0</i>
   <i type="logical" name="L2ORDER"> F  </i>
   <i type="logical" name="LUSEW"> F  </i>
   <i name="ENCUTGW">     -2.00000000</i>
   <i name="ENCUTGWSOFT">     -2.00000000</i>
   <i name="ENCUTLF">     -1.00000000</i>
   <i type="int" name="LMAXMP2">    -1</i>
   <i name="SCISSOR">      0.00000000</i>
   <i type="int" name="NOMEGA">     0</i>
   <i type="int" name="NOMEGAR">     0</i>
   <i type="int" name="NBANDSGW">    -1</i>
   <i type="int" name="NBANDSO">    -1</i>
   <i type="int" name="NBANDSV">    -1</i>
   <i type="int" name="NELM">    70</i>
   <i type="int" name="NELMHF">     1</i>
   <i type="int" name="DIM">     3</i>
   <i type="int" name="ANTIRES">     0</i>
   <i name="OMEGAMAX">    -30.00000000</i>
   <i name="OMEGAMIN">    -30.00000000</i>
   <i name="OMEGATL">   -200.00000000</i>
   <i type="int" name="OMEGAGRID">     0</i>
   <i name="CSHIFT">     -0.10000000</i>
   <i type="logical" name="SELFENERGY"> F  </i>
   <i type="logical" name="LSPECTRAL"> F  </i>
   <i type="logical" name="LSPECTRALGW"> F  </i>
   <i type="logical" name="LSINGLES"> F  </i>
   <i type="logical" name="LFERMIGW"> F  </i>
   <i type="logical" name="ODDONLYGW"> F  </i>
   <i type="logical" name="EVENONLYGW"> F  </i>
   <i type="int" name="NKREDLFX">     1</i>
   <i type="int" name="NKREDLFY">     1</i>
   <i type="int" name="NKREDLFZ">     1</i>
   <i type="int" name="MAXMEM">  1800</i>
   <i type="int" name="TELESCOPE">     0</i>
   <i type="int" name="TAUPAR">     1</i>
   <i type="int" name="OMEGAPAR">    -1</i>
   <i name="LAMBDA">      1.00000000</i>
  </separator>
  <separator name="External order field" >
   <i name="OFIELD_KAPPA">      0.00000000</i>
   <v name="OFIELD_K">      0.00000000      0.00000000      0.00000000</v>
   <i name="OFIELD_Q6_NEAR">      0.00000000</i>
   <i name="OFIELD_Q6_FAR">      0.00000000</i>
   <i name="OFIELD_A">      0.00000000</i>
  </separator>
 </parameters>
 <atominfo>
  <atoms>      36 </atoms>
  <types>       4 </types>
  <array name="atoms" >
   <dimension dim="1">ion</dimension>
   <field type="string">element</field>
   <field type="int">atomtype</field>
   <set>
    <rc><c>Hf</c><c>   1</c></rc>
    <rc><c>Hf</c><c>   1</c></rc>
    <rc><c>Hf</c><c>   1</c></rc>
    <rc><c>Hf</c><c>   1</c></rc>
    <rc><c>Hf</c><c>   1</c></rc>
    <rc><c>Hf</c><c>   1</c></rc>
    <rc><c>Hf</c><c>   1</c></rc>
    <rc><c>Hf</c><c>   1</c></rc>
    <rc><c>Hf</c><c>   1</c></rc>
    <rc><c>Nb</c><c>   2</c></rc>
    <rc><c>Nb</c><c>   2</c></rc>
    <rc><c>Nb</c><c>   2</c></rc>
    <rc><c>Nb</c><c>   2</c></rc>
    <rc><c>Nb</c><c>   2</c></rc>
    <rc><c>Nb</c><c>   2</c></rc>
    <rc><c>Nb</c><c>   2</c></rc>
    <rc><c>Nb</c><c>   2</c></rc>
    <rc><c>Nb</c><c>   2</c></rc>
    <rc><c>Ta</c><c>   3</c></rc>
    <rc><c>Ta</c><c>   3</c></rc>
    <rc><c>Ta</c><c>   3</c></rc>
    <rc><c>Ta</c><c>   3</c></rc>
    <rc><c>Ta</c><c>   3</c></rc>
    <rc><c>Ta</c><c>   3</c></rc>
    <rc><c>Ta</c><c>   3</c></rc>
    <rc><c>Ta</c><c>   3</c></rc>
    <rc><c>Ta</c><c>   3</c></rc>
    <rc><c>Zr</c><c>   4</c></rc>
    <rc><c>Zr</c><c>   4</c></rc>
    <rc><c>Zr</c><c>   4</c></rc>
    <rc><c>Zr</c><c>   4</c></rc>
    <rc><c>Zr</c><c>   4</c></rc>
    <rc><c>Zr</c><c>   4</c></rc>
    <rc><c>Zr</c><c>   4</c></rc>
    <rc><c>Zr</c><c>   4</c></rc>
    <rc><c>Zr</c><c>   4</c></rc>
   </set>
  </array>
  <array name="atomtypes" >
   <dimension dim="1">type</dimension>
   <field type="int">atomspertype</field>
   <field type="string">element</field>
   <field>mass</field>
   <field>valence</field>
   <field type="string">pseudopotential</field>
   <set>
    <rc><c>   9</c><c>Hf</c><c>    178.49000000</c><c>      4.00000000</c><c>  PAW_PBE Hf 20Jan2003                  </c></rc>
    <rc><c>   9</c><c>Nb</c><c>     92.91000000</c><c>     13.00000000</c><c>  PAW_PBE Nb_sv 25May2007               </c></rc>
    <rc><c>   9</c><c>Ta</c><c>    180.94800000</c><c>      5.00000000</c><c>  PAW_PBE Ta 17Jan2003                  </c></rc>
    <rc><c>   9</c><c>Zr</c><c>     91.22400000</c><c>     12.00000000</c><c>  PAW_PBE Zr_sv 04Jan2005               </c></rc>
   </set>
  </array>
 </atominfo>
 <structure name="initialpos" >
  <crystal>
   <varray name="basis" >
    <v>       6.91803594       0.03647792       0.02020691 </v>
    <v>       0.05395112      10.19927301       0.01800378 </v>
    <v>       0.03022401       0.01764335      10.32926423 </v>
   </varray>
   <i name="volume">    728.79319124 </i>
   <varray name="rec_basis" >
    <v>       0.14455496      -0.00076391      -0.00042167 </v>
    <v>      -0.00051652       0.09804923      -0.00016597 </v>
    <v>      -0.00028189      -0.00016940       0.09681343 </v>
   </varray>
  </crystal>
  <varray name="positions" >
   <v>       0.99987907       0.33097722       0.00717981 </v>
   <v>       0.26572825       0.49363856       0.83653987 </v>
   <v>       0.97403926       0.66536277       0.98589049 </v>
   <v>       0.24557220       0.81562736       0.17281049 </v>
   <v>       0.99540887       0.66915027       0.66563988 </v>
   <v>       0.76512045       0.17281114       0.50029560 </v>
   <v>       0.48476107       0.99645819       0.66443319 </v>
   <v>       0.75506893       0.16675534       0.81962547 </v>
   <v>       0.76538242       0.83111351       0.18731735 </v>
   <v>       0.99435490       0.34340229       0.32531808 </v>
   <v>       0.24483685       0.49696091       0.49597591 </v>
   <v>       0.00703180       0.34903505       0.66478343 </v>
   <v>       0.99733507       0.66106161       0.34953499 </v>
   <v>       0.23714133       0.82836250       0.49279178 </v>
   <v>       0.24612328       0.82561188       0.83854887 </v>
   <v>       0.49029201       0.31686335       0.01042327 </v>
   <v>       0.74249480       0.49653615       0.18066601 </v>
   <v>       0.76312531       0.86052602       0.82167189 </v>
   <v>       0.25246542       0.18009882       0.17962586 </v>
   <v>       0.01915711       0.99444896       0.33573639 </v>
   <v>       0.01784455       0.98452962       0.66831506 </v>
   <v>       0.24520007       0.18238775       0.81911878 </v>
   <v>       0.49932864       0.34369667       0.33954909 </v>
   <v>       0.75046867       0.49400484       0.49638245 </v>
   <v>       0.48409120       0.32851724       0.64973337 </v>
   <v>       0.50858368       0.65897335       0.34815956 </v>
   <v>       0.76514718       0.83280194       0.48739156 </v>
   <v>       0.01846469       0.00453662       0.99736046 </v>
   <v>       0.22709736       0.17262919       0.50039113 </v>
   <v>       0.25705809       0.50359643       0.16756011 </v>
   <v>       0.48951645       0.00544409       0.99373548 </v>
   <v>       0.74740306       0.16860649       0.17898260 </v>
   <v>       0.48468390       0.99480193       0.34293936 </v>
   <v>       0.72555784       0.47683201       0.82430669 </v>
   <v>       0.53224544       0.67746062       0.99325564 </v>
   <v>       0.50199078       0.67637931       0.65801003 </v>
  </varray>
 </structure>
 <calculation>
  <scstep>
   <time name="dav">    1.07    1.24</time>
   <time name="total">    1.27    1.72</time>
   <energy>
    <i name="alphaZ">   1582.68565627 </i>
    <i name="ewald"> -21337.27419190 </i>
    <i name="hartreedc">  -6864.97240620 </i>
    <i name="XCdc">   -116.92752814 </i>
    <i name="pawpsdc">  22956.18843697 </i>
    <i name="pawaedc"> -21419.48755377 </i>
    <i name="eentropy">      0.00045812 </i>
    <i name="bandstr">   -195.03976202 </i>
    <i name="atom">  27412.48717566 </i>
    <i name="e_fr_energy">   2017.66028497 </i>
    <i name="e_wo_entrp">   2017.65982686 </i>
    <i name="e_0_energy">   2017.66013227 </i>
   </energy>
  </scstep>
  <scstep>
   <time name="dav">    1.11    1.12</time>
   <time name="total">    1.12    1.21</time>
   <energy>
    <i name="e_fr_energy">    -71.86306985 </i>
    <i name="e_wo_entrp">    -71.85566899 </i>
    <i name="e_0_energy">    -71.86060290 </i>
   </energy>
  </scstep>
  <scstep>
   <time name="dav">    1.47    1.48</time>
   <time name="total">    1.47    1.51</time>
   <energy>
    <i name="e_fr_energy">   -340.93111579 </i>
    <i name="e_wo_entrp">   -340.93033148 </i>
    <i name="e_0_energy">   -340.93085436 </i>
   </energy>
  </scstep>
  <scstep>
   <time name="dav">    1.55    1.56</time>
   <time name="total">    1.58    1.61</time>
   <energy>
    <i name="e_fr_energy">   -372.92186166 </i>
    <i name="e_wo_entrp">   -372.93042549 </i>
    <i name="e_0_energy">   -372.92471627 </i>
   </energy>
  </scstep>
  <scstep>
   <time name="dav">    1.57    1.59</time>
   <time name="total">    1.60    1.67</time>
   <energy>
    <i name="e_fr_energy">   -376.18135300 </i>
    <i name="e_wo_entrp">   -376.18907322 </i>
    <i name="e_0_energy">   -376.18392641 </i>
   </energy>
  </scstep>
  <scstep>
   <time name="diag">    0.09    0.09</time>
   <time name="diis">    0.77    0.77</time>
   <time name="orth">    0.01    0.01</time>
   <time name="total">    0.93    0.96</time>
   <energy>
    <i name="e_fr_energy">   -365.78685571 </i>
    <i name="e_wo_entrp">   -365.79170045 </i>
    <i name="e_0_energy">   -365.78847063 </i>
   </energy>
  </scstep>
  <scstep>
   <time name="diag">    0.08    0.08</time>
   <time name="diis">    0.77    0.78</time>
   <time name="orth">    0.01    0.01</time>
   <time name="total">    0.93    0.96</time>
   <energy>
    <i name="e_fr_energy">   -367.83945675 </i>
    <i name="e_wo_entrp">   -367.83765178 </i>
    <i name="e_0_energy">   -367.83885509 </i>
   </energy>
  </scstep>
  <scstep>
   <time name="diag">    0.08    0.08</time>
   <time name="diis">    0.78    0.79</time>
   <time name="orth">    0.01    0.01</time>
   <time name="total">    0.99    1.02</time>
   <energy>
    <i name="e_fr_energy">   -361.66450946 </i>
    <i name="e_wo_entrp">   -361.67713261 </i>
    <i name="e_0_energy">   -361.66871718 </i>
   </energy>
  </scstep>
  <scstep>
   <time name="diag">    0.08    0.13</time>
   <time name="diis">    0.73    0.81</time>
   <time name="orth">    0.02    0.02</time>
   <time name="total">    0.90    1.14</time>
   <energy>
    <i name="e_fr_energy">   -361.56656584 </i>
    <i name="e_wo_entrp">   -361.57304462 </i>
    <i name="e_0_energy">   -361.56872543 </i>
   </energy>
  </scstep>
  <scstep>
   <time name="diag">    0.08    0.08</time>
   <time name="diis">    0.79    0.79</time>
   <time name="orth">    0.01    0.01</time>
   <time name="total">    0.95    0.97</time>
   <energy>
    <i name="e_fr_energy">   -361.50699934 </i>
    <i name="e_wo_entrp">   -361.51503573 </i>
    <i name="e_0_energy">   -361.50967813 </i>
   </energy>
  </scstep>
  <scstep>
   <time name="diag">    0.08    0.08</time>
   <time name="diis">    0.79    0.80</time>
   <time name="orth">    0.01    0.01</time>
   <time name="total">    0.96    0.98</time>
   <energy>
    <i name="e_fr_energy">   -361.49837367 </i>
    <i name="e_wo_entrp">   -361.50744840 </i>
    <i name="e_0_energy">   -361.50139858 </i>
   </energy>
  </scstep>
  <scstep>
   <time name="diag">    0.08    0.08</time>
   <time name="diis">    0.80    0.80</time>
   <time name="orth">    0.01    0.01</time>
   <time name="total">    0.96    1.00</time>
   <energy>
    <i name="e_fr_energy">   -361.49297389 </i>
    <i name="e_wo_entrp">   -361.50142851 </i>
    <i name="e_0_energy">   -361.49579209 </i>
   </energy>
  </scstep>
  <scstep>
   <time name="diag">    0.09    0.09</time>
   <time name="diis">    0.72    0.86</time>
   <time name="orth">    0.01    0.01</time>
   <time name="total">    0.90    1.08</time>
   <energy>
    <i name="e_fr_energy">   -361.49215664 </i>
    <i name="e_wo_entrp">   -361.50056745 </i>
    <i name="e_0_energy">   -361.49496024 </i>
   </energy>
  </scstep>
  <scstep>
   <time name="diag">    0.08    0.08</time>
   <time name="diis">    0.90    0.91</time>
   <time name="orth">    0.01    0.01</time>
   <time name="total">    1.08    1.12</time>
   <energy>
    <i name="e_fr_energy">   -361.49235244 </i>
    <i name="e_wo_entrp">   -361.50083282 </i>
    <i name="e_0_energy">   -361.49517923 </i>
   </energy>
  </scstep>
  <scstep>
   <time name="diag">    0.09    0.09</time>
   <time name="diis">    0.81    0.81</time>
   <time name="orth">    0.02    0.02</time>
   <time name="total">    0.99    1.03</time>
   <energy>
    <i name="e_fr_energy">   -361.49251081 </i>
    <i name="e_wo_entrp">   -361.50088462 </i>
    <i name="e_0_energy">   -361.49530208 </i>
   </energy>
  </scstep>
  <scstep>
   <time name="diag">    0.08    0.08</time>
   <time name="diis">    0.71    0.71</time>
   <time name="orth">    0.01    0.01</time>
   <time name="total">    0.87    0.92</time>
   <energy>
    <i name="e_fr_energy">   -361.49256471 </i>
    <i name="e_wo_entrp">   -361.50099869 </i>
    <i name="e_0_energy">   -361.49537603 </i>
   </energy>
  </scstep>
  <scstep>
   <time name="diag">    0.09    0.09</time>
   <time name="diis">    0.63    0.64</time>
   <time name="orth">    0.01    0.01</time>
   <time name="total">    0.82    0.88</time>
   <energy>
    <i name="e_fr_energy">   -361.49259216 </i>
    <i name="e_wo_entrp">   -361.50103767 </i>
    <i name="e_0_energy">   -361.49540733 </i>
   </energy>
  </scstep>
  <scstep>
   <time name="diag">    0.08    0.08</time>
   <time name="diis">    0.62    0.63</time>
   <time name="orth">    0.01    0.01</time>
   <time name="total">    0.78    0.81</time>
   <energy>
    <i name="e_fr_energy">   -361.49261021 </i>
    <i name="e_wo_entrp">   -361.50106876 </i>
    <i name="e_0_energy">   -361.49542973 </i>
   </energy>
  </scstep>
  <scstep>
   <time name="diag">    0.08    0.08</time>
   <time name="diis">    0.49    0.50</time>
   <time name="orth">    0.01    0.01</time>
   <time name="total">    0.63    0.65</time>
   <energy>
    <i name="alphaZ">   1582.68565627 </i>
    <i name="ewald"> -21337.27419190 </i>
    <i name="hartreedc">  -6615.37393438 </i>
    <i name="XCdc">   -118.75517158 </i>
    <i name="pawpsdc">  35552.57241742 </i>
    <i name="pawaedc"> -33992.91730856 </i>
    <i name="eentropy">      0.00845727 </i>
    <i name="bandstr">  -2844.92571381 </i>
    <i name="atom">  27412.48717566 </i>
    <i name="e_fr_energy">   -361.49261362 </i>
    <i name="e_wo_entrp">   -361.50107088 </i>
    <i name="e_0_energy">   -361.49543271 </i>
   </energy>
  </scstep>
  <structure>
   <crystal>
    <varray name="basis" >
     <v>       6.91803594       0.03647792       0.02020691 </v>
     <v>       0.05395112      10.19927301       0.01800378 </v>
     <v>       0.03022401       0.01764335      10.32926423 </v>
    </varray>
    <i name="volume">    728.79319124 </i>
    <varray name="rec_basis" >
     <v>       0.14455496      -0.00076391      -0.00042167 </v>
     <v>      -0.00051652       0.09804923      -0.00016597 </v>
     <v>      -0.00028189      -0.00016940       0.09681343 </v>
    </varray>
   </crystal>
   <varray name="positions" >
    <v>       0.99987907       0.33097722       0.00717981 </v>
    <v>       0.26572825       0.49363856       0.83653987 </v>
    <v>       0.97403926       0.66536277       0.98589049 </v>
    <v>       0.24557220       0.81562736       0.17281049 </v>
    <v>       0.99540887       0.66915027       0.66563988 </v>
    <v>       0.76512045       0.17281114       0.50029560 </v>
    <v>       0.48476107       0.99645819       0.66443319 </v>
    <v>       0.75506893       0.16675534       0.81962547 </v>
    <v>       0.76538242       0.83111351       0.18731735 </v>
    <v>       0.99435490       0.34340229       0.32531808 </v>
    <v>       0.24483685       0.49696091       0.49597591 </v>
    <v>       0.00703180       0.34903505       0.66478343 </v>
    <v>       0.99733507       0.66106161       0.34953499 </v>
    <v>       0.23714133       0.82836250       0.49279178 </v>
    <v>       0.24612328       0.82561188       0.83854887 </v>
    <v>       0.49029201       0.31686335       0.01042327 </v>
    <v>       0.74249480       0.49653615       0.18066601 </v>
    <v>       0.76312531       0.86052602       0.82167189 </v>
    <v>       0.25246542       0.18009882       0.17962586 </v>
    <v>       0.01915711       0.99444896       0.33573639 </v>
    <v>       0.01784455       0.98452962       0.66831506 </v>
    <v>       0.24520007       0.18238775       0.81911878 </v>
    <v>       0.49932864       0.34369667       0.33954909 </v>
    <v>       0.75046867       0.49400484       0.49638245 </v>
    <v>       0.48409120       0.32851724       0.64973337 </v>
    <v>       0.50858368       0.65897335       0.34815956 </v>
    <v>       0.76514718       0.83280194       0.48739156 </v>
    <v>       0.01846469       0.00453662       0.99736046 </v>
    <v>       0.22709736       0.17262919       0.50039113 </v>
    <v>       0.25705809       0.50359643       0.16756011 </v>
    <v>       0.48951645       0.00544409       0.99373548 </v>
    <v>       0.74740306       0.16860649       0.17898260 </v>
    <v>       0.48468390       0.99480193       0.34293936 </v>
    <v>       0.72555784       0.47683201       0.82430669 </v>
    <v>       0.53224544       0.67746062       0.99325564 </v>
    <v>       0.50199078       0.67637931       0.65801003 </v>
   </varray>
  </structure>
  <varray name="forces" >
   <v>      -0.00341031       0.00064802      -0.01186876 </v>
   <v>      -0.00387756      -0.00260629      -0.00084511 </v>
   <v>       0.00199234      -0.00863833       0.01081347 </v>
   <v>      -0.00164478      -0.00092220      -0.00171214 </v>
   <v>       0.00017491       0.00031713       0.00684444 </v>
   <v>      -0.00000155      -0.00066527       0.00932242 </v>
   <v>       0.00090518       0.00490081      -0.00252472 </v>
   <v>       0.00016784       0.00506630      -0.00964332 </v>
   <v>       0.00171038       0.01061041      -0.00453881 </v>
   <v>       0.00223537      -0.00914838       0.00816470 </v>
   <v>       0.00307743       0.00715579       0.00664105 </v>
   <v>      -0.01274016      -0.00858731       0.00334282 </v>
   <v>       0.00333468       0.00283098      -0.01566799 </v>
   <v>       0.01405230      -0.00484960       0.01263466 </v>
   <v>       0.00877377      -0.00372334      -0.00065424 </v>
   <v>       0.00337365      -0.00018289      -0.01630172 </v>
   <v>       0.00060352       0.00938232      -0.01402053 </v>
   <v>      -0.00509827      -0.01470958       0.00514565 </v>
   <v>      -0.00806999      -0.00366246      -0.00115357 </v>
   <v>      -0.00460299       0.00386303      -0.00468931 </v>
   <v>      -0.00386931       0.00823386      -0.00321823 </v>
   <v>       0.00304710       0.00116785      -0.00068680 </v>
   <v>      -0.00057469      -0.00850743       0.01184292 </v>
   <v>      -0.00787255      -0.00084087       0.00529286 </v>
   <v>       0.00349044      -0.00085052      -0.00054352 </v>
   <v>       0.00087080       0.01009066       0.00264423 </v>
   <v>      -0.00681795       0.01088702       0.00413720 </v>
   <v>      -0.00062294       0.00366910       0.00558374 </v>
   <v>       0.00127846      -0.00265991       0.00119824 </v>
   <v>      -0.00342882       0.00018840      -0.00620508 </v>
   <v>       0.00193167      -0.00129512       0.00129308 </v>
   <v>       0.00821032      -0.00768483      -0.00101766 </v>
   <v>       0.00170789       0.00243191      -0.00560741 </v>
   <v>       0.00054621       0.00798450       0.00196761 </v>
   <v>      -0.00093480      -0.00757577       0.00783214 </v>
   <v>       0.00208243      -0.00231800      -0.00380232 </v>
  </varray>
  <varray name="stress" >
   <v>      -4.11267179      -0.15249220      -0.02459371 </v>
   <v>      -0.15249220      -4.36082242      -0.01796376 </v>
   <v>      -0.02459366      -0.01796383      -4.28245180 </v>
  </varray>
  <energy>
   <i name="e_fr_energy">   -361.49261362 </i>
   <i name="e_wo_entrp">   -361.49543271 </i>
   <i name="e_0_energy">      0.00845727 </i>
  </energy>
  <time name="totalsc">   21.34   22.91</time>
 </calculation>
 <calculation>
  <scstep>
   <time name="dav">    1.27    1.29</time>
   <time name="total">    1.41    1.65</time>
   <energy>
    <i name="alphaZ">   1586.38331642 </i>
    <i name="ewald"> -21354.21650938 </i>
    <i name="hartreedc">  -6620.21023266 </i>
    <i name="XCdc">   -118.02437408 </i>
    <i name="pawpsdc">  35552.84617897 </i>
    <i name="pawaedc"> -33993.18316885 </i>
    <i name="eentropy">      0.00880929 </i>
    <i name="bandstr">  -2827.60019011 </i>
    <i name="atom">  27412.48717566 </i>
    <i name="e_fr_energy">   -361.50899474 </i>
    <i name="e_wo_entrp">   -361.51780403 </i>
    <i name="e_0_energy">   -361.51193117 </i>
   </energy>
  </scstep>
  <scstep>
   <time name="diag">    0.08    0.08</time>
   <time name="diis">    0.72    0.84</time>
   <time name="orth">    0.01    0.01</time>
   <time name="total">    0.88    1.02</time>
   <energy>
    <i name="e_fr_energy">   -361.50135247 </i>
    <i name="e_wo_entrp">   -361.50909319 </i>
    <i name="e_0_energy">   -361.50393271 </i>
   </energy>
  </scstep>
  <scstep>
   <time name="diag">    0.08    0.08</time>
   <time name="diis">    0.88    0.88</time>
   <time name="orth">    0.01    0.01</time>
   <time name="total">    1.07    1.10</time>
   <energy>
    <i name="e_fr_energy">   -361.49680966 </i>
    <i name="e_wo_entrp">   -361.50544121 </i>
    <i name="e_0_energy">   -361.49968684 </i>
   </energy>
  </scstep>
  <scstep>
   <time name="diag">    0.13    0.13</time>
   <time name="diis">    0.83    0.84</time>
   <time name="orth">    0.01    0.01</time>
   <time name="total">    1.04    1.07</time>
   <energy>
    <i name="e_fr_energy">   -361.49574881 </i>
    <i name="e_wo_entrp">   -361.50399522 </i>
    <i name="e_0_energy">   -361.49849761 </i>
   </energy>
  </scstep>
  <scstep>
   <time name="diag">    0.08    0.08</time>
   <time name="diis">    0.80    0.80</time>
   <time name="orth">    0.01    0.01</time>
   <time name="total">    0.96    0.98</time>
   <energy>
    <i name="e_fr_energy">   -361.49531683 </i>
    <i name="e_wo_entrp">   -361.50357687 </i>
    <i name="e_0_energy">   -361.49807018 </i>
   </energy>
  </scstep>
  <scstep>
   <time name="diag">    0.08    0.08</time>
   <time name="diis">    0.82    0.82</time>
   <time name="orth">    0.01    0.01</time>
   <time name="total">    0.98    1.00</time>
   <energy>
    <i name="e_fr_energy">   -361.49538008 </i>
    <i name="e_wo_entrp">   -361.50371008 </i>
    <i name="e_0_energy">   -361.49815675 </i>
   </energy>
  </scstep>
  <scstep>
   <time name="diag">    0.08    0.08</time>
   <time name="diis">    0.70    0.70</time>
   <time name="orth">    0.01    0.01</time>
   <time name="total">    0.85    0.88</time>
   <energy>
    <i name="e_fr_energy">   -361.49542557 </i>
    <i name="e_wo_entrp">   -361.50369614 </i>
    <i name="e_0_energy">   -361.49818243 </i>
   </energy>
  </scstep>
  <scstep>
   <time name="diag">    0.08    0.08</time>
   <time name="diis">    0.66    0.66</time>
   <time name="orth">    0.01    0.01</time>
   <time name="total">    0.82    0.85</time>
   <energy>
    <i name="e_fr_energy">   -361.49545284 </i>
    <i name="e_wo_entrp">   -361.50373175 </i>
    <i name="e_0_energy">   -361.49821247 </i>
   </energy>
  </scstep>
  <scstep>
   <time name="diag">    0.08    0.08</time>
   <time name="diis">    0.46    0.47</time>
   <time name="orth">    0.01    0.01</time>
   <time name="total">    0.62    0.66</time>
   <energy>
    <i name="e_fr_energy">   -361.49547286 </i>
    <i name="e_wo_entrp">   -361.50376478 </i>
    <i name="e_0_energy">   -361.49823683 </i>
   </energy>
  </scstep>
  <scstep>
   <time name="diag">    0.08    0.08</time>
   <time name="diis">    0.45    0.45</time>
   <time name="orth">    0.01    0.01</time>
   <time name="total">    0.61    0.65</time>
   <energy>
    <i name="e_fr_energy">   -361.49549890 </i>
    <i name="e_wo_entrp">   -361.50378483 </i>
    <i name="e_0_energy">   -361.49826088 </i>
   </energy>
  </scstep>
  <scstep>
   <time name="diag">    0.08    0.08</time>
   <time name="diis">    0.39    0.39</time>
   <time name="orth">    0.01    0.01</time>
   <time name="total">    0.52    0.55</time>
   <energy>
    <i name="alphaZ">   1586.38331642 </i>
    <i name="ewald"> -21354.21650938 </i>
    <i name="hartreedc">  -6609.91357042 </i>
    <i name="XCdc">   -118.47743796 </i>
    <i name="pawpsdc">  35657.83376544 </i>
    <i name="pawaedc"> -34098.02185091 </i>
    <i name="eentropy">      0.00829180 </i>
    <i name="bandstr">  -2837.57868852 </i>
    <i name="atom">  27412.48717566 </i>
    <i name="e_fr_energy">   -361.49550788 </i>
    <i name="e_wo_entrp">   -361.50379967 </i>
    <i name="e_0_energy">   -361.49827181 </i>
   </energy>
  </scstep>
  <structure>
   <crystal>
    <varray name="basis" >
     <v>       6.91283187       0.03625584       0.02015985 </v>
     <v>       0.05362604      10.19113788       0.01795593 </v>
     <v>       0.03015433       0.01759451      10.32117484 </v>
    </varray>
    <i name="volume">    727.09446590 </i>
    <varray name="rec_basis" >
     <v>       0.14466373      -0.00076048      -0.00042135 </v>
     <v>      -0.00051417       0.09812747      -0.00016578 </v>
     <v>      -0.00028167      -0.00016923       0.09688931 </v>
    </varray>
   </crystal>
   <varray name="positions" >
    <v>       0.99987200       0.33097820       0.00716320 </v>
    <v>       0.26572017       0.49363489       0.83653871 </v>
    <v>       0.97404345       0.66535047       0.98590566 </v>
    <v>       0.24556878       0.81562607       0.17280810 </v>
    <v>       0.99540919       0.66915070       0.66564947 </v>
    <v>       0.76512040       0.17281017       0.50030867 </v>
    <v>       0.48476293       0.99646515       0.66442963 </v>
    <v>       0.75506928       0.16676255       0.81961194 </v>
    <v>       0.76538591       0.83112857       0.18731096 </v>
    <v>       0.99435962       0.34338928       0.32532954 </v>
    <v>       0.24484317       0.49697103       0.49598518 </v>
    <v>       0.00700522       0.34902295       0.66478819 </v>
    <v>       0.99734211       0.66106564       0.34951301 </v>
    <v>       0.23717071       0.82835548       0.49280944 </v>
    <v>       0.24614168       0.82560653       0.83854793 </v>
    <v>       0.49029917       0.31686310       0.01040042 </v>
    <v>       0.74249605       0.49654949       0.18064634 </v>
    <v>       0.76311477       0.86050517       0.82167916 </v>
    <v>       0.25244858       0.18009368       0.17962429 </v>
    <v>       0.01914747       0.99445449       0.33572983 </v>
    <v>       0.01783638       0.98454134       0.66831054 </v>
    <v>       0.24520643       0.18238939       0.81911780 </v>
    <v>       0.49932746       0.34368457       0.33956571 </v>
    <v>       0.75045218       0.49400369       0.49638990 </v>
    <v>       0.48409851       0.32851600       0.64973259 </v>
    <v>       0.50858537       0.65898765       0.34816323 </v>
    <v>       0.76513278       0.83281743       0.48739736 </v>
    <v>       0.01846331       0.00454181       0.99736828 </v>
    <v>       0.22710006       0.17262540       0.50039281 </v>
    <v>       0.25705095       0.50359674       0.16755143 </v>
    <v>       0.48952050       0.00544224       0.99373729 </v>
    <v>       0.74742033       0.16859553       0.17898116 </v>
    <v>       0.48468748       0.99480538       0.34293149 </v>
    <v>       0.72555888       0.47684333       0.82430942 </v>
    <v>       0.53224352       0.67744986       0.99326663 </v>
    <v>       0.50199519       0.67637601       0.65800470 </v>
   </varray>
  </structure>
  <varray name="forces" >
   <v>      -0.00711796       0.00250163      -0.01292712 </v>
   <v>      -0.00515267       0.00321179       0.00039402 </v>
   <v>       0.00424506      -0.01131496       0.01231522 </v>
   <v>       0.00223458       0.00056767      -0.00646657 </v>
   <v>      -0.00011320      -0.00304900       0.01055700 </v>
   <v>      -0.00247820      -0.00572087       0.00890354 </v>
   <v>       0.00340906       0.00552266      -0.00425167 </v>
   <v>      -0.00098013       0.00628349      -0.00714102 </v>
   <v>      -0.00204637       0.01236208      -0.01362402 </v>
   <v>       0.00365885      -0.00858779       0.00780527 </v>
   <v>       0.00087436       0.00971175       0.00888099 </v>
   <v>      -0.01607945      -0.00898936       0.00420068 </v>
   <v>       0.00584324      -0.00155044      -0.02257994 </v>
   <v>       0.02049853      -0.00687856       0.01513073 </v>
   <v>       0.01283692      -0.00409225       0.00154219 </v>
   <v>       0.00915611       0.00508763      -0.01615000 </v>
   <v>       0.00210003       0.01102452      -0.02097221 </v>
   <v>      -0.01018996      -0.01952280       0.01081523 </v>
   <v>      -0.00855670      -0.01075194      -0.00410429 </v>
   <v>      -0.00812468       0.00880457      -0.00818038 </v>
   <v>      -0.00513792       0.01398169      -0.00491637 </v>
   <v>       0.00273920      -0.00510987       0.00408186 </v>
   <v>      -0.00248384      -0.01364492       0.00773635 </v>
   <v>      -0.00601110       0.00148253       0.01031015 </v>
   <v>       0.00731511       0.00011333       0.00362914 </v>
   <v>      -0.00347265       0.01269544      -0.00354409 </v>
   <v>      -0.01238347       0.01348302       0.01102495 </v>
   <v>      -0.00354926       0.00416372       0.00907647 </v>
   <v>       0.00437268      -0.00471859      -0.00079357 </v>
   <v>      -0.00371249       0.00461833      -0.01041818 </v>
   <v>       0.00543246      -0.00294251       0.00540074 </v>
   <v>       0.00727872      -0.01330548      -0.00470592 </v>
   <v>       0.00497275       0.00653174      -0.00741051 </v>
   <v>       0.00285499       0.01253991       0.00512217 </v>
   <v>      -0.00390079      -0.01061226       0.00987908 </v>
   <v>       0.00166817      -0.00389591       0.00138010 </v>
  </varray>
  <varray name="stress" >
   <v>      -1.05299096      -0.11789718      -0.02901326 </v>
   <v>      -0.11789723      -1.23055055      -0.03193529 </v>
   <v>      -0.02901330      -0.03193530      -1.15186285 </v>
  </varray>
  <energy>
   <i name="e_fr_energy">   -361.49550788 </i>
   <i name="e_wo_entrp">   -361.49827181 </i>
   <i name="e_0_energy">      0.00829180 </i>
  </energy>
  <time name="totalsc">   11.41   12.22</time>
 </calculation>
 <calculation>
  <scstep>
   <time name="dav">    1.31    1.38</time>
   <time name="total">    1.49    1.70</time>
   <energy>
    <i name="alphaZ">   1588.03314366 </i>
    <i name="ewald"> -21361.76736601 </i>
    <i name="hartreedc">  -6612.06501589 </i>
    <i name="XCdc">   -118.15154486 </i>
    <i name="pawpsdc">  35657.76493735 </i>
    <i name="pawaedc"> -34097.94000537 </i>
    <i name="eentropy">      0.00844265 </i>
    <i name="bandstr">  -2829.86813759 </i>
    <i name="atom">  27412.48717566 </i>
    <i name="e_fr_energy">   -361.49837039 </i>
    <i name="e_wo_entrp">   -361.50681304 </i>
    <i name="e_0_energy">   -361.50118461 </i>
   </energy>
  </scstep>
  <scstep>
   <time name="diag">    0.13    0.14</time>
   <time name="diis">    0.80    0.80</time>
   <time name="orth">    0.01    0.01</time>
   <time name="total">    1.00    1.04</time>
   <energy>
    <i name="e_fr_energy">   -361.49684616 </i>
    <i name="e_wo_entrp">   -361.50481136 </i>
    <i name="e_0_energy">   -361.49950123 </i>
   </energy>
  </scstep>
  <scstep>
   <time name="diag">    0.08    0.08</time>
   <time name="diis">    0.81    0.82</time>
   <time name="orth">    0.01    0.01</time>
   <time name="total">    0.97    0.99</time>
   <energy>
    <i name="e_fr_energy">   -361.49593064 </i>
    <i name="e_wo_entrp">   -361.50429467 </i>
    <i name="e_0_energy">   -361.49871865 </i>
   </energy>
  </scstep>
  <scstep>
   <time name="diag">    0.08    0.08</time>
   <time name="diis">    0.81    0.81</time>
   <time name="orth">    0.01    0.01</time>
   <time name="total">    0.97    0.99</time>
   <energy>
    <i name="e_fr_energy">   -361.49573210 </i>
    <i name="e_wo_entrp">   -361.50392182 </i>
    <i name="e_0_energy">   -361.49846201 </i>
   </energy>
  </scstep>
  <scstep>
   <time name="diag">    0.08    0.08</time>
   <time name="diis">    0.73    0.74</time>
   <time name="orth">    0.01    0.01</time>
   <time name="total">    0.89    0.92</time>
   <energy>
    <i name="e_fr_energy">   -361.49565232 </i>
    <i name="e_wo_entrp">   -361.50384938 </i>
    <i name="e_0_energy">   -361.49838467 </i>
   </energy>
  </scstep>
  <scstep>
   <time name="diag">    0.08    0.08</time>
   <time name="diis">    0.62    0.62</time>
   <time name="orth">    0.01    0.01</time>
   <time name="total">    0.79    0.83</time>
   <energy>
    <i name="e_fr_energy">   -361.49567045 </i>
    <i name="e_wo_entrp">   -361.50389783 </i>
    <i name="e_0_energy">   -361.49841291 </i>
   </energy>
  </scstep>
  <scstep>
   <time name="diag">    0.08    0.08</time>
   <time name="diis">    0.43    0.43</time>
   <time name="orth">    0.01    0.01</time>
   <time name="total">    0.59    0.62</time>
   <energy>
    <i name="e_fr_energy">   -361.49568705 </i>
    <i name="e_wo_entrp">   -361.50388933 </i>
    <i name="e_0_energy">   -361.49842114 </i>
   </energy>
  </scstep>
  <scstep>
   <time name="diag">    0.08    0.08</time>
   <time name="diis">    0.40    0.41</time>
   <time name="orth">    0.01    0.01</time>
   <time name="total">    0.56    0.59</time>
   <energy>
    <i name="e_fr_energy">   -361.49569746 </i>
    <i name="e_wo_entrp">   -361.50390167 </i>
    <i name="e_0_energy">   -361.49843219 </i>
   </energy>
  </scstep>
  <scstep>
   <time name="diag">    0.08    0.08</time>
   <time name="diis">    0.39    0.39</time>
   <time name="orth">    0.02    0.02</time>
   <time name="total">    0.52    0.56</time>
   <energy>
    <i name="alphaZ">   1588.03314366 </i>
    <i name="ewald"> -21361.76736601 </i>
    <i name="hartreedc">  -6607.44207758 </i>
    <i name="XCdc">   -118.35475806 </i>
    <i name="pawpsdc">  35705.35109640 </i>
    <i name="pawaedc"> -34145.49905818 </i>
    <i name="eentropy">      0.00821045 </i>
    <i name="bandstr">  -2834.31207076 </i>
    <i name="atom">  27412.48717566 </i>
    <i name="e_fr_energy">   -361.49570443 </i>
    <i name="e_wo_entrp">   -361.50391488 </i>
    <i name="e_0_energy">   -361.49844125 </i>
   </energy>
  </scstep>
  <structure>
   <crystal>
    <varray name="basis" >
     <v>       6.91051513       0.03615698       0.02013890 </v>
     <v>       0.05348133      10.18751629       0.01793463 </v>
     <v>       0.03012331       0.01757276      10.31757361 </v>
    </varray>
    <i name="volume">    726.33907848 </i>
    <varray name="rec_basis" >
     <v>       0.14471221      -0.00075895      -0.00042121 </v>
     <v>      -0.00051312       0.09816234      -0.00016569 </v>
     <v>      -0.00028157      -0.00016915       0.09692312 </v>
    </varray>
   </crystal>
   <varray name="positions" >
    <v>       0.99986885       0.33097863       0.00715579 </v>
    <v>       0.26571657       0.49363326       0.83653819 </v>
    <v>       0.97404532       0.66534499       0.98591241 </v>
    <v>       0.24556725       0.81562550       0.17280704 </v>
    <v>       0.99540933       0.66915089       0.66565375 </v>
    <v>       0.76512037       0.17280974       0.50031449 </v>
    <v>       0.48476375       0.99646825       0.66442805 </v>
    <v>       0.75506944       0.16676577       0.81960591 </v>
    <v>       0.76538747       0.83113527       0.18730811 </v>
    <v>       0.99436173       0.34338348       0.32533464 </v>
    <v>       0.24484598       0.49697554       0.49598932 </v>
    <v>       0.00699338       0.34901756       0.66479031 </v>
    <v>       0.99734525       0.66106744       0.34950322 </v>
    <v>       0.23718380       0.82835235       0.49281731 </v>
    <v>       0.24614988       0.82560415       0.83854751 </v>
    <v>       0.49030236       0.31686299       0.01039023 </v>
    <v>       0.74249660       0.49655544       0.18063757 </v>
    <v>       0.76311008       0.86049588       0.82168240 </v>
    <v>       0.25244108       0.18009140       0.17962359 </v>
    <v>       0.01914317       0.99445695       0.33572690 </v>
    <v>       0.01783275       0.98454656       0.66830853 </v>
    <v>       0.24520927       0.18239012       0.81911736 </v>
    <v>       0.49932694       0.34367918       0.33957311 </v>
    <v>       0.75044483       0.49400318       0.49639322 </v>
    <v>       0.48410177       0.32851546       0.64973225 </v>
    <v>       0.50858613       0.65899403       0.34816487 </v>
    <v>       0.76512636       0.83282434       0.48739995 </v>
    <v>       0.01846270       0.00454413       0.99737176 </v>
    <v>       0.22710126       0.17262371       0.50039356 </v>
    <v>       0.25704777       0.50359688       0.16754756 </v>
    <v>       0.48952230       0.00544141       0.99373810 </v>
    <v>       0.74742802       0.16859064       0.17898051 </v>
    <v>       0.48468907       0.99480692       0.34292798 </v>
    <v>       0.72555935       0.47684838       0.82431064 </v>
    <v>       0.53224267       0.67744507       0.99327153 </v>
    <v>       0.50199715       0.67637454       0.65800233 </v>
   </varray>
  </structure>
  <varray name="forces" >
   <v>      -0.00926902       0.00335095      -0.01301986 </v>
   <v>      -0.00546432       0.00556381       0.00119880 </v>
   <v>       0.00483791      -0.01248467       0.01334737 </v>
   <v>       0.00378494       0.00150988      -0.00825686 </v>
   <v>      -0.00007270      -0.00438663       0.01187333 </v>
   <v>      -0.00295991      -0.00784305       0.00850647 </v>
   <v>       0.00428528       0.00554506      -0.00524890 </v>
   <v>      -0.00136940       0.00670758      -0.00536191 </v>
   <v>      -0.00369439       0.01337898      -0.01758778 </v>
   <v>       0.00461053      -0.00874477       0.00836475 </v>
   <v>      -0.00009192       0.01039163       0.00995970 </v>
   <v>      -0.01778686      -0.00944776       0.00440635 </v>
   <v>       0.00714736      -0.00262618      -0.02540246 </v>
   <v>       0.02333389      -0.00720967       0.01589933 </v>
   <v>       0.01433477      -0.00421236       0.00236504 </v>
   <v>       0.01174814       0.00759111      -0.01637506 </v>
   <v>       0.00304810       0.01142992      -0.02411868 </v>
   <v>      -0.01216299      -0.02131674       0.01313754 </v>
   <v>      -0.00839413      -0.01391149      -0.00527158 </v>
   <v>      -0.00925937       0.01093517      -0.00914562 </v>
   <v>      -0.00518821       0.01651033      -0.00561247 </v>
   <v>       0.00204376      -0.00784731       0.00616865 </v>
   <v>      -0.00344815      -0.01587435       0.00596890 </v>
   <v>      -0.00460834       0.00225731       0.01228436 </v>
   <v>       0.00837270       0.00074687       0.00457232 </v>
   <v>      -0.00553892       0.01386739      -0.00581887 </v>
   <v>      -0.01459268       0.01483193       0.01353587 </v>
   <v>      -0.00496270       0.00432568       0.01034485 </v>
   <v>       0.00509253      -0.00549842      -0.00181807 </v>
   <v>      -0.00426882       0.00592427      -0.01183275 </v>
   <v>       0.00695257      -0.00388699       0.00698400 </v>
   <v>       0.00683346      -0.01528267      -0.00641865 </v>
   <v>       0.00631326       0.00797619      -0.00796908 </v>
   <v>       0.00377795       0.01407505       0.00667452 </v>
   <v>      -0.00493199      -0.01169963       0.01030938 </v>
   <v>       0.00154769      -0.00464645       0.00335705 </v>
  </varray>
  <varray name="stress" >
   <v>       0.32522327      -0.10316995      -0.03754388 </v>
   <v>      -0.10316988       0.16739914      -0.03442235 </v>
   <v>      -0.03754383      -0.03442237       0.25753702 </v>
  </varray>
  <energy>
   <i name="e_fr_energy">   -361.49570443 </i>
   <i name="e_wo_entrp">   -361.49844125 </i>
   <i name="e_0_energy">      0.00821045 </i>
  </energy>
  <time name="totalsc">    9.44    9.99</time>
 </calculation>
 <calculation>
  <scstep>
   <time name="dav">    1.40    1.41</time>
   <time name="total">    1.59    1.81</time>
   <energy>
    <i name="alphaZ">   1587.83659673 </i>
    <i name="ewald"> -21360.86809068 </i>
    <i name="hartreedc">  -6607.24360208 </i>
    <i name="XCdc">   -118.39120331 </i>
    <i name="pawpsdc">  35705.04944012 </i>
    <i name="pawaedc"> -34145.14179020 </i>
    <i name="eentropy">      0.00818986 </i>
    <i name="bandstr">  -2835.23248683 </i>
    <i name="atom">  27412.48717566 </i>
    <i name="e_fr_energy">   -361.49577073 </i>
    <i name="e_wo_entrp">   -361.50396059 </i>
    <i name="e_0_energy">   -361.49850069 </i>
   </energy>
  </scstep>
  <scstep>
   <time name="diag">    0.09    0.09</time>
   <time name="diis">    0.74    0.75</time>
   <time name="orth">    0.01    0.01</time>
   <time name="total">    0.92    0.95</time>
   <energy>
    <i name="e_fr_energy">   -361.49575562 </i>
    <i name="e_wo_entrp">   -361.50400588 </i>
    <i name="e_0_energy">   -361.49850570 </i>
   </energy>
  </scstep>
  <scstep>
   <time name="diag">    0.08    0.08</time>
   <time name="diis">    0.59    0.60</time>
   <time name="orth">    0.01    0.01</time>
   <time name="total">    0.76    0.78</time>
   <energy>
    <i name="e_fr_energy">   -361.49574005 </i>
    <i name="e_wo_entrp">   -361.50393521 </i>
    <i name="e_0_energy">   -361.49847177 </i>
   </energy>
  </scstep>
  <scstep>
   <time name="diag">    0.08    0.08</time>
   <time name="diis">    0.31    0.31</time>
   <time name="orth">    0.01    0.01</time>
   <time name="total">    0.44    0.46</time>
   <energy>
    <i name="alphaZ">   1587.83659673 </i>
    <i name="ewald"> -21360.86809068 </i>
    <i name="hartreedc">  -6607.85158124 </i>
    <i name="XCdc">   -118.36442124 </i>
    <i name="pawpsdc">  35699.25858296 </i>
    <i name="pawaedc"> -34139.25368229 </i>
    <i name="eentropy">      0.00822100 </i>
    <i name="bandstr">  -2834.74853631 </i>
    <i name="atom">  27412.48717566 </i>
    <i name="e_fr_energy">   -361.49573541 </i>
    <i name="e_wo_entrp">   -361.50395640 </i>
    <i name="e_0_energy">   -361.49847574 </i>
   </energy>
  </scstep>
  <structure>
   <crystal>
    <varray name="basis" >
     <v>       6.91079096       0.03616875       0.02014139 </v>
     <v>       0.05349856      10.18794747       0.01793716 </v>
     <v>       0.03012700       0.01757535      10.31800237 </v>
    </varray>
    <i name="volume">    726.42898680 </i>
    <varray name="rec_basis" >
     <v>       0.14470644      -0.00075914      -0.00042123 </v>
     <v>      -0.00051324       0.09815818      -0.00016570 </v>
     <v>      -0.00028158      -0.00016916       0.09691910 </v>
    </varray>
   </crystal>
   <varray name="positions" >
    <v>       0.99986923       0.33097858       0.00715667 </v>
    <v>       0.26571700       0.49363345       0.83653825 </v>
    <v>       0.97404510       0.66534564       0.98591161 </v>
    <v>       0.24556743       0.81562557       0.17280716 </v>
    <v>       0.99540932       0.66915087       0.66565324 </v>
    <v>       0.76512038       0.17280979       0.50031379 </v>
    <v>       0.48476366       0.99646788       0.66442824 </v>
    <v>       0.75506942       0.16676538       0.81960663 </v>
    <v>       0.76538728       0.83113447       0.18730845 </v>
    <v>       0.99436148       0.34338417       0.32533403 </v>
    <v>       0.24484565       0.49697500       0.49598882 </v>
    <v>       0.00699479       0.34901820       0.66479006 </v>
    <v>       0.99734487       0.66106722       0.34950439 </v>
    <v>       0.23718224       0.82835273       0.49281637 </v>
    <v>       0.24614890       0.82560443       0.83854756 </v>
    <v>       0.49030198       0.31686301       0.01039145 </v>
    <v>       0.74249654       0.49655473       0.18063862 </v>
    <v>       0.76311064       0.86049699       0.82168201 </v>
    <v>       0.25244197       0.18009167       0.17962367 </v>
    <v>       0.01914369       0.99445666       0.33572725 </v>
    <v>       0.01783318       0.98454594       0.66830877 </v>
    <v>       0.24520893       0.18239003       0.81911742 </v>
    <v>       0.49932700       0.34367982       0.33957223 </v>
    <v>       0.75044571       0.49400324       0.49639283 </v>
    <v>       0.48410138       0.32851552       0.64973229 </v>
    <v>       0.50858604       0.65899327       0.34816468 </v>
    <v>       0.76512712       0.83282351       0.48739964 </v>
    <v>       0.01846277       0.00454385       0.99737135 </v>
    <v>       0.22710112       0.17262391       0.50039347 </v>
    <v>       0.25704815       0.50359686       0.16754802 </v>
    <v>       0.48952208       0.00544151       0.99373800 </v>
    <v>       0.74742710       0.16859122       0.17898059 </v>
    <v>       0.48468888       0.99480673       0.34292840 </v>
    <v>       0.72555929       0.47684778       0.82431050 </v>
    <v>       0.53224277       0.67744564       0.99327095 </v>
    <v>       0.50199692       0.67637472       0.65800261 </v>
   </varray>
  </structure>
  <varray name="forces" >
   <v>      -0.00917404       0.00253505      -0.01292290 </v>
   <v>      -0.00519000       0.00472085       0.00059383 </v>
   <v>       0.00425980      -0.01226294       0.01264149 </v>
   <v>       0.00364820       0.00193218      -0.00774236 </v>
   <v>      -0.00007575      -0.00416684       0.01129047 </v>
   <v>      -0.00296379      -0.00737524       0.00860937 </v>
   <v>       0.00418989       0.00579526      -0.00537955 </v>
   <v>      -0.00140013       0.00681956      -0.00583267 </v>
   <v>      -0.00353242       0.01373062      -0.01667585 </v>
   <v>       0.00410118      -0.00916014       0.00831097 </v>
   <v>      -0.00004488       0.01082699       0.01007133 </v>
   <v>      -0.01806601      -0.00953675       0.00449407 </v>
   <v>       0.00643467      -0.00215146      -0.02492523 </v>
   <v>       0.02301086      -0.00739109       0.01648259 </v>
   <v>       0.01381651      -0.00537430       0.00199038 </v>
   <v>       0.01112499       0.00694153      -0.01637848 </v>
   <v>       0.00301347       0.01142240      -0.02346101 </v>
   <v>      -0.01155371      -0.02104960       0.01215069 </v>
   <v>      -0.00817200      -0.01338953      -0.00499496 </v>
   <v>      -0.00926564       0.01109606      -0.00878782 </v>
   <v>      -0.00516420       0.01647763      -0.00577969 </v>
   <v>       0.00238602      -0.00740659       0.00570378 </v>
   <v>      -0.00330363      -0.01607007       0.00610565 </v>
   <v>      -0.00435223       0.00152960       0.01203242 </v>
   <v>       0.00831006       0.00018387       0.00469803 </v>
   <v>      -0.00523055       0.01378357      -0.00495203 </v>
   <v>      -0.01436309       0.01496893       0.01323190 </v>
   <v>      -0.00508236       0.00451112       0.01051194 </v>
   <v>       0.00528078      -0.00552797      -0.00152442 </v>
   <v>      -0.00414343       0.00563310      -0.01192938 </v>
   <v>       0.00704189      -0.00350779       0.00686986 </v>
   <v>       0.00686913      -0.01462329      -0.00609479 </v>
   <v>       0.00644881       0.00785995      -0.00806748 </v>
   <v>       0.00402369       0.01369571       0.00643518 </v>
   <v>      -0.00431283      -0.01113179       0.01033671 </v>
   <v>       0.00143073      -0.00433858       0.00288795 </v>
  </varray>
  <varray name="stress" >
   <v>       0.38829598      -0.10213937      -0.03656245 </v>
   <v>      -0.10213931       0.21980712      -0.03667635 </v>
   <v>      -0.03656247      -0.03667639       0.32511507 </v>
  </varray>
  <energy>
   <i name="e_fr_energy">   -361.49573541 </i>
   <i name="e_wo_entrp">   -361.49847574 </i>
   <i name="e_0_energy">      0.00822100 </i>
  </energy>
  <time name="totalsc">    5.30    5.78</time>
 </calculation>
 <calculation>
  <scstep>
   <time name="dav">    1.19    1.38</time>
   <time name="total">    1.33    1.71</time>
   <energy>
    <i name="alphaZ">   1587.10973470 </i>
    <i name="ewald"> -21357.54177569 </i>
    <i name="hartreedc">  -6606.94976846 </i>
    <i name="XCdc">   -118.50616704 </i>
    <i name="pawpsdc">  35699.61923910 </i>
    <i name="pawaedc"> -34139.60580305 </i>
    <i name="eentropy">      0.00815088 </i>
    <i name="bandstr">  -2838.11701560 </i>
    <i name="atom">  27412.48717566 </i>
    <i name="e_fr_energy">   -361.49622951 </i>
    <i name="e_wo_entrp">   -361.50438039 </i>
    <i name="e_0_energy">   -361.49894647 </i>
   </energy>
  </scstep>
  <scstep>
   <time name="diag">    0.08    0.08</time>
   <time name="diis">    0.79    0.80</time>
   <time name="orth">    0.01    0.01</time>
   <time name="total">    0.95    0.98</time>
   <energy>
    <i name="e_fr_energy">   -361.49595228 </i>
    <i name="e_wo_entrp">   -361.50430682 </i>
    <i name="e_0_energy">   -361.49873712 </i>
   </energy>
  </scstep>
  <scstep>
   <time name="diag">    0.08    0.08</time>
   <time name="diis">    0.74    0.81</time>
   <time name="orth">    0.01    0.01</time>
   <time name="total">    0.90    0.99</time>
   <energy>
    <i name="e_fr_energy">   -361.49576746 </i>
    <i name="e_wo_entrp">   -361.50395161 </i>
    <i name="e_0_energy">   -361.49849551 </i>
   </energy>
  </scstep>
  <scstep>
   <time name="diag">    0.08    0.08</time>
   <time name="diis">    0.69    0.81</time>
   <time name="orth">    0.01    0.01</time>
   <time name="total">    0.85    0.99</time>
   <energy>
    <i name="e_fr_energy">   -361.49572215 </i>
    <i name="e_wo_entrp">   -361.50398011 </i>
    <i name="e_0_energy">   -361.49847481 </i>
   </energy>
  </scstep>
  <scstep>
   <time name="diag">    0.08    0.12</time>
   <time name="diis">    0.37    0.37</time>
   <time name="orth">    0.01    0.01</time>
   <time name="total">    0.53    0.59</time>
   <energy>
    <i name="e_fr_energy">   -361.49570080 </i>
    <i name="e_wo_entrp">   -361.50395756 </i>
    <i name="e_0_energy">   -361.49845305 </i>
   </energy>
  </scstep>
  <scstep>
   <time name="diag">    0.08    0.08</time>
   <time name="diis">    0.41    0.41</time>
   <time name="orth">    0.01    0.01</time>
   <time name="total">    0.55    0.60</time>
   <energy>
    <i name="alphaZ">   1587.10973470 </i>
    <i name="ewald"> -21357.54177569 </i>
    <i name="hartreedc">  -6609.09192917 </i>
    <i name="XCdc">   -118.41223885 </i>
    <i name="pawpsdc">  35678.03413747 </i>
    <i name="pawaedc"> -34117.94580105 </i>
    <i name="eentropy">      0.00824406 </i>
    <i name="bandstr">  -2836.14324518 </i>
    <i name="atom">  27412.48717566 </i>
    <i name="e_fr_energy">   -361.49569805 </i>
    <i name="e_wo_entrp">   -361.50394211 </i>
    <i name="e_0_energy">   -361.49844607 </i>
   </energy>
  </scstep>
  <structure>
   <crystal>
    <varray name="basis" >
     <v>       6.91181141       0.03621230       0.02015062 </v>
     <v>       0.05356230      10.18954267       0.01794655 </v>
     <v>       0.03014067       0.01758493      10.31958860 </v>
    </varray>
    <i name="volume">    726.76167560 </i>
    <varray name="rec_basis" >
     <v>       0.14468508      -0.00075981      -0.00042129 </v>
     <v>      -0.00051371       0.09814282      -0.00016574 </v>
     <v>      -0.00028163      -0.00016919       0.09690420 </v>
    </varray>
   </crystal>
   <varray name="positions" >
    <v>       0.99987062       0.33097839       0.00715994 </v>
    <v>       0.26571858       0.49363417       0.83653848 </v>
    <v>       0.97404428       0.66534806       0.98590863 </v>
    <v>       0.24556810       0.81562582       0.17280763 </v>
    <v>       0.99540925       0.66915078       0.66565135 </v>
    <v>       0.76512039       0.17280998       0.50031123 </v>
    <v>       0.48476329       0.99646651       0.66442894 </v>
    <v>       0.75506935       0.16676397       0.81960929 </v>
    <v>       0.76538660       0.83113152       0.18730970 </v>
    <v>       0.99436055       0.34338672       0.32533178 </v>
    <v>       0.24484441       0.49697301       0.49598700 </v>
    <v>       0.00700001       0.34902058       0.66478912 </v>
    <v>       0.99734349       0.66106643       0.34950870 </v>
    <v>       0.23717647       0.82835410       0.49281290 </v>
    <v>       0.24614529       0.82560548       0.83854774 </v>
    <v>       0.49030057       0.31686305       0.01039593 </v>
    <v>       0.74249629       0.49655211       0.18064248 </v>
    <v>       0.76311271       0.86050108       0.82168058 </v>
    <v>       0.25244528       0.18009268       0.17962398 </v>
    <v>       0.01914558       0.99445558       0.33572854 </v>
    <v>       0.01783478       0.98454364       0.66830966 </v>
    <v>       0.24520768       0.18238971       0.81911761 </v>
    <v>       0.49932723       0.34368220       0.33956897 </v>
    <v>       0.75044894       0.49400347       0.49639137 </v>
    <v>       0.48409995       0.32851576       0.64973244 </v>
    <v>       0.50858570       0.65899046       0.34816396 </v>
    <v>       0.76512995       0.83282047       0.48739850 </v>
    <v>       0.01846304       0.00454283       0.99736981 </v>
    <v>       0.22710059       0.17262466       0.50039314 </v>
    <v>       0.25704955       0.50359680       0.16754973 </v>
    <v>       0.48952129       0.00544187       0.99373764 </v>
    <v>       0.74742371       0.16859338       0.17898087 </v>
    <v>       0.48468818       0.99480606       0.34292994 </v>
    <v>       0.72555909       0.47684556       0.82430996 </v>
    <v>       0.53224315       0.67744775       0.99326879 </v>
    <v>       0.50199605       0.67637536       0.65800366 </v>
   </varray>
  </structure>
  <varray name="forces" >
   <v>      -0.00802434       0.00286590      -0.01244578 </v>
   <v>      -0.00517044       0.00416871       0.00103729 </v>
   <v>       0.00464268      -0.01215623       0.01284488 </v>
   <v>       0.00300146       0.00078832      -0.00698924 </v>
   <v>      -0.00009627      -0.00402171       0.01078845 </v>
   <v>      -0.00264896      -0.00652164       0.00824943 </v>
   <v>       0.00373287       0.00555751      -0.00481054 </v>
   <v>      -0.00123300       0.00619662      -0.00627181 </v>
   <v>      -0.00274542       0.01284925      -0.01502193 </v>
   <v>       0.00426459      -0.00880090       0.00871534 </v>
   <v>       0.00013147       0.00957570       0.00928886 </v>
   <v>      -0.01651587      -0.00904686       0.00410166 </v>
   <v>       0.00645763      -0.00197148      -0.02363683 </v>
   <v>       0.02164732      -0.00675697       0.01530951 </v>
   <v>       0.01334927      -0.00395342       0.00147937 </v>
   <v>       0.01046316       0.00582357      -0.01622105 </v>
   <v>       0.00251221       0.01077977      -0.02241667 </v>
   <v>      -0.01093974      -0.01974929       0.01155505 </v>
   <v>      -0.00854546      -0.01167534      -0.00435148 </v>
   <v>      -0.00866320       0.01017264      -0.00876613 </v>
   <v>      -0.00500368       0.01517803      -0.00549865 </v>
   <v>       0.00245008      -0.00614928       0.00517148 </v>
   <v>      -0.00291967      -0.01473925       0.00659376 </v>
   <v>      -0.00553050       0.00175322       0.01085466 </v>
   <v>       0.00777079       0.00054481       0.00382042 </v>
   <v>      -0.00438962       0.01300003      -0.00447850 </v>
   <v>      -0.01332256       0.01410815       0.01211599 </v>
   <v>      -0.00419147       0.00462325       0.00977806 </v>
   <v>       0.00438802      -0.00499767      -0.00133272 </v>
   <v>      -0.00396025       0.00497060      -0.01061341 </v>
   <v>       0.00618046      -0.00306238       0.00620753 </v>
   <v>       0.00686540      -0.01399852      -0.00530562 </v>
   <v>       0.00557082       0.00728132      -0.00783772 </v>
   <v>       0.00275362       0.01255686       0.00582330 </v>
   <v>      -0.00406814      -0.01095575       0.01004433 </v>
   <v>       0.00178676      -0.00423758       0.00221870 </v>
  </varray>
  <varray name="stress" >
   <v>      -0.20270084      -0.10853592      -0.03100308 </v>
   <v>      -0.10853588      -0.35071681      -0.03532701 </v>
   <v>      -0.03100309      -0.03532704      -0.26893113 </v>
  </varray>
  <energy>
   <i name="e_fr_energy">   -361.49569805 </i>
   <i name="e_wo_entrp">   -361.49844607 </i>
   <i name="e_0_energy">      0.00824406 </i>
  </energy>
  <time name="totalsc">    6.76    7.62</time>
 </calculation>
 <calculation>
  <scstep>
   <time name="dav">    1.24    1.25</time>
   <time name="total">    1.41    1.52</time>
   <energy>
    <i name="alphaZ">   1587.55273323 </i>
    <i name="ewald"> -21359.56917171 </i>
    <i name="hartreedc">  -6609.64836696 </i>
    <i name="XCdc">   -118.32583856 </i>
    <i name="pawpsdc">  35679.36703935 </i>
    <i name="pawaedc"> -34119.30331895 </i>
    <i name="eentropy">      0.00829582 </i>
    <i name="bandstr">  -2834.06448636 </i>
    <i name="atom">  27412.48717566 </i>
    <i name="e_fr_energy">   -361.49593848 </i>
    <i name="e_wo_entrp">   -361.50423430 </i>
    <i name="e_0_energy">   -361.49870375 </i>
   </energy>
  </scstep>
  <scstep>
   <time name="diag">    0.08    0.08</time>
   <time name="diis">    0.79    0.80</time>
   <time name="orth">    0.01    0.01</time>
   <time name="total">    0.95    0.99</time>
   <energy>
    <i name="e_fr_energy">   -361.49582247 </i>
    <i name="e_wo_entrp">   -361.50398212 </i>
    <i name="e_0_energy">   -361.49854235 </i>
   </energy>
  </scstep>
  <scstep>
   <time name="diag">    0.08    0.08</time>
   <time name="diis">    0.72    0.72</time>
   <time name="orth">    0.01    0.01</time>
   <time name="total">    0.88    0.93</time>
   <energy>
    <i name="e_fr_energy">   -361.49574659 </i>
    <i name="e_wo_entrp">   -361.50402252 </i>
    <i name="e_0_energy">   -361.49850523 </i>
   </energy>
  </scstep>
  <scstep>
   <time name="diag">    0.08    0.08</time>
   <time name="diis">    0.60    0.61</time>
   <time name="orth">    0.01    0.01</time>
   <time name="total">    0.76    0.81</time>
   <energy>
    <i name="e_fr_energy">   -361.49572793 </i>
    <i name="e_wo_entrp">   -361.50395225 </i>
    <i name="e_0_energy">   -361.49846937 </i>
   </energy>
  </scstep>
  <scstep>
   <time name="diag">    0.08    0.08</time>
   <time name="diis">    0.31    0.31</time>
   <time name="orth">    0.01    0.01</time>
   <time name="total">    0.44    0.46</time>
   <energy>
    <i name="alphaZ">   1587.55273323 </i>
    <i name="ewald"> -21359.56917171 </i>
    <i name="hartreedc">  -6608.24070836 </i>
    <i name="XCdc">   -118.38742534 </i>
    <i name="pawpsdc">  35694.96949645 </i>
    <i name="pawaedc"> -34135.03274394 </i>
    <i name="eentropy">      0.00822802 </i>
    <i name="bandstr">  -2835.28330408 </i>
    <i name="atom">  27412.48717566 </i>
    <i name="e_fr_energy">   -361.49572007 </i>
    <i name="e_wo_entrp">   -361.50394809 </i>
    <i name="e_0_energy">   -361.49846274 </i>
   </energy>
  </scstep>
  <structure>
   <crystal>
    <varray name="basis" >
     <v>       6.91118941       0.03618575       0.02014500 </v>
     <v>       0.05352345      10.18857033       0.01794083 </v>
     <v>       0.03013234       0.01757909      10.31862173 </v>
    </varray>
    <i name="volume">    726.55887645 </i>
    <varray name="rec_basis" >
     <v>       0.14469810      -0.00075940      -0.00042125 </v>
     <v>      -0.00051342       0.09815219      -0.00016572 </v>
     <v>      -0.00028160      -0.00016917       0.09691328 </v>
    </varray>
   </crystal>
   <varray name="positions" >
    <v>       0.99986977       0.33097850       0.00715795 </v>
    <v>       0.26571762       0.49363374       0.83653834 </v>
    <v>       0.97404478       0.66534659       0.98591045 </v>
    <v>       0.24556770       0.81562566       0.17280735 </v>
    <v>       0.99540929       0.66915083       0.66565250 </v>
    <v>       0.76512038       0.17280986       0.50031279 </v>
    <v>       0.48476351       0.99646734       0.66442851 </v>
    <v>       0.75506939       0.16676483       0.81960767 </v>
    <v>       0.76538701       0.83113332       0.18730894 </v>
    <v>       0.99436112       0.34338516       0.32533315 </v>
    <v>       0.24484516       0.49697422       0.49598811 </v>
    <v>       0.00699683       0.34901913       0.66478969 </v>
    <v>       0.99734433       0.66106691       0.34950607 </v>
    <v>       0.23717999       0.82835326       0.49281502 </v>
    <v>       0.24614749       0.82560484       0.83854763 </v>
    <v>       0.49030143       0.31686303       0.01039320 </v>
    <v>       0.74249644       0.49655371       0.18064012 </v>
    <v>       0.76311144       0.86049858       0.82168145 </v>
    <v>       0.25244326       0.18009206       0.17962379 </v>
    <v>       0.01914443       0.99445624       0.33572775 </v>
    <v>       0.01783380       0.98454504       0.66830912 </v>
    <v>       0.24520845       0.18238991       0.81911749 </v>
    <v>       0.49932709       0.34368075       0.33957096 </v>
    <v>       0.75044697       0.49400333       0.49639226 </v>
    <v>       0.48410082       0.32851562       0.64973235 </v>
    <v>       0.50858591       0.65899217       0.34816440 </v>
    <v>       0.76512823       0.83282233       0.48739919 </v>
    <v>       0.01846288       0.00454345       0.99737075 </v>
    <v>       0.22710091       0.17262420       0.50039334 </v>
    <v>       0.25704869       0.50359684       0.16754869 </v>
    <v>       0.48952177       0.00544165       0.99373786 </v>
    <v>       0.74742578       0.16859207       0.17898070 </v>
    <v>       0.48468861       0.99480647       0.34292900 </v>
    <v>       0.72555921       0.47684691       0.82431029 </v>
    <v>       0.53224292       0.67744646       0.99327011 </v>
    <v>       0.50199658       0.67637497       0.65800302 </v>
   </varray>
  </structure>
  <varray name="forces" >
   <v>      -0.00853773       0.00285588      -0.01271315 </v>
   <v>      -0.00549604       0.00496079       0.00134065 </v>
   <v>       0.00489670      -0.01215877       0.01264589 </v>
   <v>       0.00330489       0.00135892      -0.00789404 </v>
   <v>       0.00004841      -0.00396833       0.01157491 </v>
   <v>      -0.00296953      -0.00740342       0.00842317 </v>
   <v>       0.00409900       0.00548532      -0.00494392 </v>
   <v>      -0.00141369       0.00620913      -0.00579410 </v>
   <v>      -0.00326639       0.01327242      -0.01636111 </v>
   <v>       0.00423834      -0.00869703       0.00834433 </v>
   <v>       0.00106409       0.01063195       0.00956576 </v>
   <v>      -0.01756795      -0.00925759       0.00508335 </v>
   <v>       0.00619448      -0.00215486      -0.02493335 </v>
   <v>       0.02256782      -0.00718027       0.01561655 </v>
   <v>       0.01365300      -0.00443798       0.00231706 </v>
   <v>       0.01063192       0.00726742      -0.01659510 </v>
   <v>       0.00259929       0.01211703      -0.02319588 </v>
   <v>      -0.01145895      -0.02106211       0.01234937 </v>
   <v>      -0.00862813      -0.01288391      -0.00532613 </v>
   <v>      -0.00924028       0.01056218      -0.00899466 </v>
   <v>      -0.00537542       0.01573326      -0.00549623 </v>
   <v>       0.00250819      -0.00725546       0.00613649 </v>
   <v>      -0.00318215      -0.01527283       0.00645578 </v>
   <v>      -0.00519348       0.00211066       0.01149905 </v>
   <v>       0.00825713       0.00041957       0.00409778 </v>
   <v>      -0.00494251       0.01322192      -0.00499074 </v>
   <v>      -0.01395045       0.01454504       0.01285522 </v>
   <v>      -0.00459247       0.00425283       0.01022296 </v>
   <v>       0.00514102      -0.00563097      -0.00162682 </v>
   <v>      -0.00406887       0.00578853      -0.01187428 </v>
   <v>       0.00651699      -0.00361959       0.00665604 </v>
   <v>       0.00718009      -0.01474707      -0.00598828 </v>
   <v>       0.00621942       0.00758151      -0.00785417 </v>
   <v>       0.00381190       0.01386908       0.00640254 </v>
   <v>      -0.00474381      -0.01156555       0.01047863 </v>
   <v>       0.00169517      -0.00494770       0.00251644 </v>
  </varray>
  <varray name="stress" >
   <v>      -0.05245771      -0.11087857      -0.03269606 </v>
   <v>      -0.11087865      -0.22177900      -0.03507939 </v>
   <v>      -0.03269593      -0.03507937      -0.12766481 </v>
  </varray>
  <energy>
   <i name="e_fr_energy">   -361.49572007 </i>
   <i name="e_wo_entrp">   -361.49846274 </i>
   <i name="e_0_energy">      0.00822802 </i>
  </energy>
  <time name="totalsc">    6.11    6.44</time>
 </calculation>
 <calculation>
  <scstep>
   <time name="dav">    1.16    1.18</time>
   <time name="total">    1.30    1.55</time>
   <energy>
    <i name="alphaZ">   1587.69159382 </i>
    <i name="ewald"> -21360.20459384 </i>
    <i name="hartreedc">  -6608.39563728 </i>
    <i name="XCdc">   -118.36103054 </i>
    <i name="pawpsdc">  35693.63777012 </i>
    <i name="pawaedc"> -34133.70492370 </i>
    <i name="eentropy">      0.00824866 </i>
    <i name="bandstr">  -2834.65434255 </i>
    <i name="atom">  27412.48717566 </i>
    <i name="e_fr_energy">   -361.49573965 </i>
    <i name="e_wo_entrp">   -361.50398831 </i>
    <i name="e_0_energy">   -361.49848920 </i>
[...]
       <r>    7.0471    1.0000 </r>
       <r>    7.0919    1.0000 </r>
       <r>    7.1258    1.0000 </r>
       <r>    7.1777    1.0000 </r>
       <r>    7.1960    1.0000 </r>
       <r>    7.2594    1.0001 </r>
       <r>    7.2732    1.0002 </r>
       <r>    7.3200    1.0009 </r>
       <r>    7.3498    1.0022 </r>
       <r>    7.3849    1.0053 </r>
       <r>    7.4216    1.0117 </r>
       <r>    7.4425    1.0170 </r>
       <r>    7.4680    1.0246 </r>
       <r>    7.5257    1.0352 </r>
       <r>    7.5400    1.0320 </r>
       <r>    7.5802    0.9947 </r>
       <r>    7.6122    0.9224 </r>
       <r>    7.6584    0.7397 </r>
       <r>    7.7025    0.5029 </r>
       <r>    7.7232    0.3876 </r>
       <r>    7.7435    0.2804 </r>
       <r>    7.7708    0.1574 </r>
       <r>    7.8205    0.0144 </r>
       <r>    7.8353   -0.0081 </r>
       <r>    7.8701   -0.0333 </r>
       <r>    7.9010   -0.0342 </r>
       <r>    7.9163   -0.0310 </r>
       <r>    7.9589   -0.0183 </r>
       <r>    7.9945   -0.0096 </r>
       <r>    8.0376   -0.0035 </r>
       <r>    8.1084   -0.0004 </r>
       <r>    8.1784   -0.0000 </r>
       <r>    8.1929   -0.0000 </r>
       <r>    8.2607   -0.0000 </r>
       <r>    8.2744   -0.0000 </r>
       <r>    8.3734   -0.0000 </r>
       <r>    8.4177   -0.0000 </r>
       <r>    8.4665   -0.0000 </r>
       <r>    8.5599   -0.0000 </r>
       <r>    8.6016   -0.0000 </r>
       <r>    8.6779   -0.0000 </r>
       <r>    8.8922   -0.0000 </r>
       <r>    8.9652   -0.0000 </r>
       <r>    9.0066   -0.0000 </r>
       <r>    9.5688   -0.0000 </r>
       <r>    9.5887   -0.0000 </r>
       <r>    9.6780   -0.0000 </r>
       <r>    9.7559   -0.0000 </r>
       <r>    9.7863   -0.0000 </r>
      </set>
     </set>
    </set>
   </array>
  </eigenvalues>
  <separator name="orbital magnetization" >
   <v name="MAGDIPOLOUT">      0.00000000      0.00000000      0.00000000</v>
  </separator>
  <dos>
   <i name="efermi">      7.70303114 </i>
   <total>
    <array>
     <dimension dim="1">gridpoints</dimension>
     <dimension dim="2">spin</dimension>
     <field>energy</field>
     <field>total</field>
     <field>integrated</field>
     <set>
      <set comment="spin 1">
       <r>   -49.3946     0.0000     0.0000 </r>
       <r>   -49.1879     0.0000     0.0000 </r>
       <r>   -48.9811     0.0000     0.0000 </r>
       <r>   -48.7744     0.0000     0.0000 </r>
       <r>   -48.5676     0.0000     0.0000 </r>
       <r>   -48.3609     0.0000     0.0000 </r>
       <r>   -48.1541     0.0000     0.0000 </r>
       <r>   -47.9474    -0.0000    -0.0000 </r>
       <r>   -47.7406    -0.0000    -0.0000 </r>
       <r>   -47.5339    -0.0000    -0.0000 </r>
       <r>   -47.3271    -0.0000    -0.0000 </r>
       <r>   -47.1204    -0.0000    -0.0000 </r>
       <r>   -46.9136    -0.0462    -0.0095 </r>
       <r>   -46.7069    -1.1887    -0.2553 </r>
       <r>   -46.5001    26.4427     5.2117 </r>
       <r>   -46.2934    60.3672    17.6926 </r>
       <r>   -46.0866     1.8345    18.0718 </r>
       <r>   -45.8799    -0.3469    18.0001 </r>
       <r>   -45.6731    -0.0005    18.0000 </r>
       <r>   -45.4664    -0.0000    18.0000 </r>
       <r>   -45.2596    -0.0000    18.0000 </r>
       <r>   -45.0529     0.0000    18.0000 </r>
       <r>   -44.8461     0.0000    18.0000 </r>
       <r>   -44.6394     0.0000    18.0000 </r>
       <r>   -44.4326     0.0000    18.0000 </r>
       <r>   -44.2259     0.0000    18.0000 </r>
       <r>   -44.0191     0.0000    18.0000 </r>
       <r>   -43.8124     0.0000    18.0000 </r>
       <r>   -43.6056     0.0000    18.0000 </r>
       <r>   -43.3989     0.0000    18.0000 </r>
       <r>   -43.1921     0.0000    18.0000 </r>
       <r>   -42.9854     0.0000    18.0000 </r>
       <r>   -42.7786     0.0000    18.0000 </r>
       <r>   -42.5719     0.0000    18.0000 </r>
       <r>   -42.3651     0.0000    18.0000 </r>
       <r>   -42.1584     0.0000    18.0000 </r>
       <r>   -41.9516    -0.0000    18.0000 </r>
       <r>   -41.7449    -0.0000    18.0000 </r>
       <r>   -41.5381    -0.0000    18.0000 </r>
       <r>   -41.3314    -0.0000    18.0000 </r>
       <r>   -41.1247    -0.0000    18.0000 </r>
       <r>   -40.9179    -0.0151    17.9969 </r>
       <r>   -40.7112    -1.1730    17.7544 </r>
       <r>   -40.5044    18.2159    21.5205 </r>
       <r>   -40.2977    59.7339    33.8704 </r>
       <r>   -40.0909    11.1046    36.1663 </r>
       <r>   -39.8842    -0.7928    36.0024 </r>
       <r>   -39.6774    -0.0114    36.0000 </r>
       <r>   -39.4707    -0.0000    36.0000 </r>
       <r>   -39.2639    -0.0000    36.0000 </r>
       <r>   -39.0572     0.0000    36.0000 </r>
       <r>   -38.8504     0.0000    36.0000 </r>
       <r>   -38.6437     0.0000    36.0000 </r>
       <r>   -38.4369     0.0000    36.0000 </r>
       <r>   -38.2302     0.0000    36.0000 </r>
       <r>   -38.0234     0.0000    36.0000 </r>
       <r>   -37.8167     0.0000    36.0000 </r>
       <r>   -37.6099     0.0000    36.0000 </r>
       <r>   -37.4032     0.0000    36.0000 </r>
       <r>   -37.1964     0.0000    36.0000 </r>
       <r>   -36.9897     0.0000    36.0000 </r>
       <r>   -36.7829     0.0000    36.0000 </r>
       <r>   -36.5762     0.0000    36.0000 </r>
       <r>   -36.3694     0.0000    36.0000 </r>
       <r>   -36.1627     0.0000    36.0000 </r>
       <r>   -35.9559     0.0000    36.0000 </r>
       <r>   -35.7492     0.0000    36.0000 </r>
       <r>   -35.5424     0.0000    36.0000 </r>
       <r>   -35.3357     0.0000    36.0000 </r>
       <r>   -35.1289     0.0000    36.0000 </r>
       <r>   -34.9222     0.0000    36.0000 </r>
       <r>   -34.7154     0.0000    36.0000 </r>
       <r>   -34.5087     0.0000    36.0000 </r>
       <r>   -34.3019     0.0000    36.0000 </r>
       <r>   -34.0952     0.0000    36.0000 </r>
       <r>   -33.8884     0.0000    36.0000 </r>
       <r>   -33.6817     0.0000    36.0000 </r>
       <r>   -33.4749     0.0000    36.0000 </r>
       <r>   -33.2682     0.0000    36.0000 </r>
       <r>   -33.0614     0.0000    36.0000 </r>
       <r>   -32.8547     0.0000    36.0000 </r>
       <r>   -32.6479     0.0000    36.0000 </r>
       <r>   -32.4412     0.0000    36.0000 </r>
       <r>   -32.2345     0.0000    36.0000 </r>
       <r>   -32.0277     0.0000    36.0000 </r>
       <r>   -31.8210     0.0000    36.0000 </r>
       <r>   -31.6142     0.0000    36.0000 </r>
       <r>   -31.4075     0.0000    36.0000 </r>
       <r>   -31.2007     0.0000    36.0000 </r>
       <r>   -30.9940     0.0000    36.0000 </r>
       <r>   -30.7872     0.0000    36.0000 </r>
       <r>   -30.5805     0.0000    36.0000 </r>
       <r>   -30.3737     0.0000    36.0000 </r>
       <r>   -30.1670     0.0000    36.0000 </r>
       <r>   -29.9602     0.0000    36.0000 </r>
       <r>   -29.7535     0.0000    36.0000 </r>
       <r>   -29.5467     0.0000    36.0000 </r>
       <r>   -29.3400     0.0000    36.0000 </r>
       <r>   -29.1332     0.0000    36.0000 </r>
       <r>   -28.9265     0.0000    36.0000 </r>
       <r>   -28.7197     0.0000    36.0000 </r>
       <r>   -28.5130     0.0000    36.0000 </r>
       <r>   -28.3062     0.0000    36.0000 </r>
       <r>   -28.0995     0.0000    36.0000 </r>
       <r>   -27.8927     0.0000    36.0000 </r>
       <r>   -27.6860     0.0000    36.0000 </r>
       <r>   -27.4792     0.0000    36.0000 </r>
       <r>   -27.2725     0.0000    36.0000 </r>
       <r>   -27.0657     0.0000    36.0000 </r>
       <r>   -26.8590     0.0000    36.0000 </r>
       <r>   -26.6522     0.0000    36.0000 </r>
       <r>   -26.4455     0.0000    36.0000 </r>
       <r>   -26.2387     0.0000    36.0000 </r>
       <r>   -26.0320     0.0000    36.0000 </r>
       <r>   -25.8252     0.0000    36.0000 </r>
       <r>   -25.6185     0.0000    36.0000 </r>
       <r>   -25.4117     0.0000    36.0000 </r>
       <r>   -25.2050     0.0000    36.0000 </r>
       <r>   -24.9982     0.0000    36.0000 </r>
       <r>   -24.7915     0.0000    36.0000 </r>
       <r>   -24.5847     0.0000    36.0000 </r>
       <r>   -24.3780     0.0000    36.0000 </r>
       <r>   -24.1712    -0.0000    36.0000 </r>
       <r>   -23.9645    -0.0000    36.0000 </r>
       <r>   -23.7577    -0.0000    36.0000 </r>
       <r>   -23.5510    -0.0000    36.0000 </r>
       <r>   -23.3442    -0.0110    35.9977 </r>
       <r>   -23.1375    -0.7169    35.8495 </r>
       <r>   -22.9308    10.6140    38.0439 </r>
       <r>   -22.7240    40.5530    46.4282 </r>
       <r>   -22.5173   124.9720    72.2660 </r>
       <r>   -22.3105    66.9989    86.1180 </r>
       <r>   -22.1038    19.7916    90.2099 </r>
       <r>   -21.8970    -0.9763    90.0080 </r>
       <r>   -21.6903    -0.0387    90.0000 </r>
       <r>   -21.4835    -0.0000    90.0000 </r>
       <r>   -21.2768    -0.0000    90.0000 </r>
       <r>   -21.0700     0.0000    90.0000 </r>
       <r>   -20.8633     0.0000    90.0000 </r>
       <r>   -20.6565     0.0000    90.0000 </r>
       <r>   -20.4498     0.0000    90.0000 </r>
       <r>   -20.2430     0.0000    90.0000 </r>
       <r>   -20.0363    -0.0000    90.0000 </r>
       <r>   -19.8295    -0.0000    90.0000 </r>
       <r>   -19.6228    -0.0000    90.0000 </r>
       <r>   -19.4160    -0.0000    90.0000 </r>
       <r>   -19.2093    -0.0153    89.9968 </r>
       <r>   -19.0025    -1.1816    89.7526 </r>
       <r>   -18.7958    16.4137    93.1461 </r>
       <r>   -18.5890    80.1079   109.7083 </r>
       <r>   -18.3823   109.4409   132.3351 </r>
       <r>   -18.1755    55.4942   143.8084 </r>
       <r>   -17.9688     1.2429   144.0654 </r>
       <r>   -17.7620    -0.3157   144.0001 </r>
       <r>   -17.5553    -0.0006   144.0000 </r>
       <r>   -17.3485    -0.0000   144.0000 </r>
       <r>   -17.1418    -0.0000   144.0000 </r>
       <r>   -16.9350     0.0000   144.0000 </r>
       <r>   -16.7283     0.0000   144.0000 </r>
       <r>   -16.5215     0.0000   144.0000 </r>
       <r>   -16.3148     0.0000   144.0000 </r>
       <r>   -16.1080     0.0000   144.0000 </r>
       <r>   -15.9013     0.0000   144.0000 </r>
       <r>   -15.6945     0.0000   144.0000 </r>
       <r>   -15.4878     0.0000   144.0000 </r>
       <r>   -15.2810     0.0000   144.0000 </r>
       <r>   -15.0743     0.0000   144.0000 </r>
       <r>   -14.8675     0.0000   144.0000 </r>
       <r>   -14.6608     0.0000   144.0000 </r>
       <r>   -14.4540     0.0000   144.0000 </r>
       <r>   -14.2473     0.0000   144.0000 </r>
       <r>   -14.0406     0.0000   144.0000 </r>
       <r>   -13.8338     0.0000   144.0000 </r>
       <r>   -13.6271     0.0000   144.0000 </r>
       <r>   -13.4203     0.0000   144.0000 </r>
       <r>   -13.2136     0.0000   144.0000 </r>
       <r>   -13.0068     0.0000   144.0000 </r>
       <r>   -12.8001     0.0000   144.0000 </r>
       <r>   -12.5933     0.0000   144.0000 </r>
       <r>   -12.3866     0.0000   144.0000 </r>
       <r>   -12.1798     0.0000   144.0000 </r>
       <r>   -11.9731     0.0000   144.0000 </r>
       <r>   -11.7663     0.0000   144.0000 </r>
       <r>   -11.5596     0.0000   144.0000 </r>
       <r>   -11.3528     0.0000   144.0000 </r>
       <r>   -11.1461     0.0000   144.0000 </r>
       <r>   -10.9393     0.0000   144.0000 </r>
       <r>   -10.7326     0.0000   144.0000 </r>
       <r>   -10.5258     0.0000   144.0000 </r>
       <r>   -10.3191     0.0000   144.0000 </r>
       <r>   -10.1123     0.0000   144.0000 </r>
       <r>    -9.9056     0.0000   144.0000 </r>
       <r>    -9.6988     0.0000   144.0000 </r>
       <r>    -9.4921     0.0000   144.0000 </r>
       <r>    -9.2853     0.0000   144.0000 </r>
       <r>    -9.0786     0.0000   144.0000 </r>
       <r>    -8.8718     0.0000   144.0000 </r>
       <r>    -8.6651     0.0000   144.0000 </r>
       <r>    -8.4583     0.0000   144.0000 </r>
       <r>    -8.2516     0.0000   144.0000 </r>
       <r>    -8.0448     0.0000   144.0000 </r>
       <r>    -7.8381     0.0000   144.0000 </r>
       <r>    -7.6313     0.0000   144.0000 </r>
       <r>    -7.4246     0.0000   144.0000 </r>
       <r>    -7.2178     0.0000   144.0000 </r>
       <r>    -7.0111     0.0000   144.0000 </r>
       <r>    -6.8043     0.0000   144.0000 </r>
       <r>    -6.5976     0.0000   144.0000 </r>
       <r>    -6.3908     0.0000   144.0000 </r>
       <r>    -6.1841     0.0000   144.0000 </r>
       <r>    -5.9773     0.0000   144.0000 </r>
       <r>    -5.7706     0.0000   144.0000 </r>
       <r>    -5.5638     0.0000   144.0000 </r>
       <r>    -5.3571     0.0000   144.0000 </r>
       <r>    -5.1503     0.0000   144.0000 </r>
       <r>    -4.9436     0.0000   144.0000 </r>
       <r>    -4.7369     0.0000   144.0000 </r>
       <r>    -4.5301     0.0000   144.0000 </r>
       <r>    -4.3234     0.0000   144.0000 </r>
       <r>    -4.1166     0.0000   144.0000 </r>
       <r>    -3.9099     0.0000   144.0000 </r>
       <r>    -3.7031     0.0000   144.0000 </r>
       <r>    -3.4964     0.0000   144.0000 </r>
       <r>    -3.2896     0.0000   144.0000 </r>
       <r>    -3.0829     0.0000   144.0000 </r>
       <r>    -2.8761     0.0000   144.0000 </r>
       <r>    -2.6694     0.0000   144.0000 </r>
       <r>    -2.4626     0.0000   144.0000 </r>
       <r>    -2.2559     0.0000   144.0000 </r>
       <r>    -2.0491     0.0000   144.0000 </r>
       <r>    -1.8424     0.0000   144.0000 </r>
       <r>    -1.6356     0.0000   144.0000 </r>
       <r>    -1.4289     0.0000   144.0000 </r>
       <r>    -1.2221     0.0000   144.0000 </r>
       <r>    -1.0154     0.0000   144.0000 </r>
       <r>    -0.8086     0.0000   144.0000 </r>
       <r>    -0.6019     0.0000   144.0000 </r>
       <r>    -0.3951     0.0000   144.0000 </r>
       <r>    -0.1884    -0.0000   144.0000 </r>
       <r>     0.0184    -0.0000   144.0000 </r>
       <r>     0.2251    -0.0000   144.0000 </r>
       <r>     0.4319    -0.0000   144.0000 </r>
       <r>     0.6386    -0.0004   143.9999 </r>
       <r>     0.8454    -0.0128   143.9973 </r>
       <r>     1.0521     0.2115   144.0410 </r>
       <r>     1.2589     0.9456   144.2365 </r>
       <r>     1.4656     1.5497   144.5569 </r>
       <r>     1.6724     1.8713   144.9438 </r>
       <r>     1.8791     3.2642   145.6187 </r>
       <r>     2.0859     4.3101   146.5098 </r>
       <r>     2.2926     2.0861   146.9411 </r>
       <r>     2.4994     4.9567   147.9659 </r>
       <r>     2.7061     3.9074   148.7737 </r>
       <r>     2.9129     3.2467   149.4450 </r>
       <r>     3.1196     7.7250   151.0421 </r>
       <r>     3.3264     7.8118   152.6572 </r>
       <r>     3.5331     7.7816   154.2660 </r>
       <r>     3.7399     9.1300   156.1536 </r>
       <r>     3.9466    10.5525   158.3354 </r>
       <r>     4.1534    17.3906   161.9308 </r>
       <r>     4.3601    19.1515   165.8904 </r>
       <r>     4.5668    24.9627   171.0514 </r>
       <r>     4.7736    30.2194   177.2992 </r>
       <r>     4.9803    34.8263   184.4995 </r>
       <r>     5.1871    38.3223   192.4226 </r>
       <r>     5.3938    39.5469   200.5989 </r>
       <r>     5.6006    37.4248   208.3364 </r>
       <r>     5.8073    33.8152   215.3277 </r>
       <r>     6.0141    33.5133   222.2565 </r>
       <r>     6.2208    15.8578   225.5351 </r>
       <r>     6.4276    44.2809   234.6901 </r>
       <r>     6.6343    62.5829   247.6291 </r>
       <r>     6.8411    57.0286   259.4197 </r>
       <r>     7.0478    55.3036   270.8536 </r>
       <r>     7.2546    52.8215   281.7744 </r>
       <r>     7.4613    55.8679   293.3251 </r>
       <r>     7.6681    52.9547   304.2734 </r>
       <r>     7.8748    48.4225   314.2847 </r>
       <r>     8.0816    48.1854   324.2470 </r>
       <r>     8.2883    45.7221   333.6999 </r>
       <r>     8.4951    32.1841   340.3540 </r>
       <r>     8.7018    28.8785   346.3246 </r>
       <r>     8.9086    22.5409   350.9849 </r>
       <r>     9.1153    18.0961   354.7262 </r>
       <r>     9.3221    11.8096   357.1678 </r>
       <r>     9.5288    23.0280   361.9288 </r>
       <r>     9.7356    22.4763   366.5758 </r>
       <r>     9.9423     7.3030   368.0857 </r>
       <r>    10.1491    -0.4038   368.0022 </r>
       <r>    10.3558    -0.0107   368.0000 </r>
       <r>    10.5626    -0.0000   368.0000 </r>
       <r>    10.7693    -0.0000   368.0000 </r>
       <r>    10.9761     0.0000   368.0000 </r>
       <r>    11.1828     0.0000   368.0000 </r>
       <r>    11.3896     0.0000   368.0000 </r>
       <r>    11.5963     0.0000   368.0000 </r>
       <r>    11.8031     0.0000   368.0000 </r>
       <r>    12.0098     0.0000   368.0000 </r>
       <r>    12.2166     0.0000   368.0000 </r>
       <r>    12.4233     0.0000   368.0000 </r>
       <r>    12.6301     0.0000   368.0000 </r>
      </set>
     </set>
    </array>
   </total>
  </dos>
 </calculation>
 <structure name="finalpos" >
  <crystal>
   <varray name="basis" >
    <v>       6.91236275       0.03592804       0.01994216 </v>
    <v>       0.05316108      10.18659374       0.01824503 </v>
    <v>       0.02983381       0.01788527      10.31811696 </v>
   </varray>
   <i name="volume">    726.50603383 </i>
   <varray name="rec_basis" >
    <v>       0.14467346      -0.00075426      -0.00041700 </v>
    <v>      -0.00050977       0.09817120      -0.00016869 </v>
    <v>      -0.00027871      -0.00017213       0.09691801 </v>
   </varray>
  </crystal>
  <varray name="positions" >
   <v>       0.99960844       0.33103062       0.00691683 </v>
   <v>       0.26555023       0.49366719       0.83649789 </v>
   <v>       0.97415892       0.66513592       0.98618428 </v>
   <v>       0.24564346       0.81573031       0.17268342 </v>
   <v>       0.99536055       0.66920563       0.66581831 </v>
   <v>       0.76511899       0.17267190       0.50043666 </v>
   <v>       0.48486207       0.99646392       0.66442064 </v>
   <v>       0.75503561       0.16685442       0.81950267 </v>
   <v>       0.76532583       0.83140497       0.18705074 </v>
   <v>       0.99445462       0.34330368       0.32543936 </v>
   <v>       0.24477875       0.49707916       0.49608477 </v>
   <v>       0.00654452       0.34885568       0.66486549 </v>
   <v>       0.99737091       0.66111581       0.34918480 </v>
   <v>       0.23762192       0.82827710       0.49298016 </v>
   <v>       0.24649544       0.82555369       0.83857639 </v>
   <v>       0.49058386       0.31697400       0.01011901 </v>
   <v>       0.74251493       0.49664131       0.18038592 </v>
   <v>       0.76292328       0.86016652       0.82185358 </v>
   <v>       0.25210672       0.17993527       0.17950277 </v>
   <v>       0.01906228       0.99458828       0.33562522 </v>
   <v>       0.01767167       0.98462579       0.66835568 </v>
   <v>       0.24524859       0.18227361       0.81921982 </v>
   <v>       0.49921746       0.34349920       0.33963986 </v>
   <v>       0.75037639       0.49400747       0.49645229 </v>
   <v>       0.48428083       0.32860387       0.64984648 </v>
   <v>       0.50850555       0.65923213       0.34808998 </v>
   <v>       0.76499125       0.83306498       0.48756174 </v>
   <v>       0.01838391       0.00458272       0.99748531 </v>
   <v>       0.22719157       0.17258583       0.50034982 </v>
   <v>       0.25705152       0.50356969       0.16741308 </v>
   <v>       0.48969968       0.00536117       0.99380214 </v>
   <v>       0.74769570       0.16835982       0.17889447 </v>
   <v>       0.48472695       0.99495983       0.34275157 </v>
   <v>       0.72560983       0.47712849       0.82441599 </v>
   <v>       0.53212207       0.67720829       0.99350707 </v>
   <v>       0.50210569       0.67628172       0.65808576 </v>
  </varray>
 </structure>
</modeling>
