<?xml version="1.0" encoding="ISO-8859-1"?>
<modeling>
 <generator>
  <i name="program" type="string">vasp </i>
  <i name="version" type="string">5.4.1  </i>
  <i name="subversion" type="string">05Feb16 (build Jan 29 2020 16:04:39) complex                          parallel </i>
  <i name="platform" type="string">IFC91_ompi </i>
  <i name="date" type="string">2020 06 15 </i>
  <i name="time" type="string">12:24:33 </i>
 </generator>
 <incar>
  <i type="string" name="SYSTEM"> automatically generated by mexm</i>
  <i type="int" name="ISTART">     0</i>
  <i type="string" name="PREC">accurate               ! avoid wrap aro</i>
  <i type="string" name="ALGO"> Fast                   ! blocked Davids</i>
  <i type="int" name="ISPIN">     1</i>
  <i type="int" name="ICHARG">     2</i>
  <i type="int" name="NELM">    70</i>
  <i type="int" name="IBRION">     2</i>
  <i name="EDIFF">      0.00001000</i>
  <i name="EDIFFG">     -0.01000000</i>
  <i type="int" name="NSW">   300</i>
  <i type="int" name="ISIF">     3</i>
  <i type="int" name="ISYM">     1</i>
  <i name="ENCUT">    300.00000000</i>
  <i name="POTIM">      0.15000000</i>
  <i type="string" name="LREAL"> Auto                  ! unpublished met</i>
  <i type="int" name="ISMEAR">     1</i>
  <i name="SIGMA">      0.15000000</i>
  <i type="logical" name="LWAVE"> F  </i>
  <i type="logical" name="LCHARG"> F  </i>
  <i type="logical" name="LVTOT"> F  </i>
  <v type="int" name="KPOINT_BSE">    -1     0     0     0</v>
  <i type="int" name="NELM">    70</i>
 </incar>
 <kpoints>
  <generation param="Gamma">
   <v type="int" name="divisions">       3        3        3 </v>
   <v name="usershift">      0.00000000       0.00000000       0.00000000 </v>
   <v name="genvec1">      0.33333333       0.00000000      -0.00000000 </v>
   <v name="genvec2">     -0.00000000       0.33333333       0.00000000 </v>
   <v name="genvec3">     -0.00000000      -0.00000000       0.33333333 </v>
   <v name="shift">      0.00000000       0.00000000       0.00000000 </v>
  </generation>
  <varray name="kpointlist" >
   <v>       0.00000000       0.00000000       0.00000000 </v>
   <v>       0.33333333      -0.00000000       0.00000000 </v>
   <v>       0.00000000       0.33333333       0.00000000 </v>
   <v>       0.33333333       0.33333333       0.00000000 </v>
   <v>      -0.33333333       0.33333333       0.00000000 </v>
   <v>       0.00000000      -0.00000000       0.33333333 </v>
   <v>       0.33333333      -0.00000000       0.33333333 </v>
   <v>      -0.33333333       0.00000000       0.33333333 </v>
   <v>       0.00000000       0.33333333       0.33333333 </v>
   <v>       0.33333333       0.33333333       0.33333333 </v>
   <v>      -0.33333333       0.33333333       0.33333333 </v>
   <v>       0.00000000      -0.33333333       0.33333333 </v>
   <v>       0.33333333      -0.33333333       0.33333333 </v>
   <v>      -0.33333333      -0.33333333       0.33333333 </v>
  </varray>
  <varray name="weights" >
   <v>       0.03703704 </v>
   <v>       0.07407407 </v>
   <v>       0.07407407 </v>
   <v>       0.07407407 </v>
   <v>       0.07407407 </v>
   <v>       0.07407407 </v>
   <v>       0.07407407 </v>
   <v>       0.07407407 </v>
   <v>       0.07407407 </v>
   <v>       0.07407407 </v>
   <v>       0.07407407 </v>
   <v>       0.07407407 </v>
   <v>       0.07407407 </v>
   <v>       0.07407407 </v>
  </varray>
 </kpoints>
 <parameters>
  <separator name="general" >
   <i type="string" name="SYSTEM">automatically generated by mexm</i>
   <i type="logical" name="LCOMPAT"> F  </i>
  </separator>
  <separator name="electronic" >
   <i type="string" name="PREC">accura</i>
   <i name="ENMAX">    300.00000000</i>
   <i name="ENAUG">    461.25700000</i>
   <i name="EDIFF">      0.00001000</i>
   <i type="int" name="IALGO">    68</i>
   <i type="int" name="IWAVPR">    11</i>
   <i type="int" name="NBANDS">   156</i>
   <i name="NELECT">    256.00000000</i>
   <i type="int" name="TURBO">     0</i>
   <i type="int" name="IRESTART">     0</i>
   <i type="int" name="NREBOOT">     0</i>
   <i type="int" name="NMIN">     0</i>
   <i name="EREF">      0.00000000</i>
   <separator name="electronic smearing" >
    <i type="int" name="ISMEAR">     1</i>
    <i name="SIGMA">      0.15000000</i>
    <i name="KSPACING">      0.50000000</i>
    <i type="logical" name="KGAMMA"> T  </i>
   </separator>
   <separator name="electronic projectors" >
    <i type="logical" name="LREAL"> T  </i>
    <v name="ROPT">     -0.00025000     -0.00025000     -0.00025000     -0.00025000</v>
    <i type="int" name="LMAXPAW">  -100</i>
    <i type="int" name="LMAXMIX">     2</i>
    <i type="logical" name="NLSPLINE"> F  </i>
   </separator>
   <separator name="electronic startup" >
    <i type="int" name="ISTART">     0</i>
    <i type="int" name="ICHARG">     2</i>
    <i type="int" name="INIWAV">     1</i>
   </separator>
   <separator name="electronic spin" >
    <i type="int" name="ISPIN">     1</i>
    <i type="logical" name="LNONCOLLINEAR"> F  </i>
    <v name="MAGMOM">      1.00000000      1.00000000      1.00000000      1.00000000      1.00000000      1.00000000      1.00000000      1.00000000      1.00000000      1.00000000      1.00000000      1.00000000      1.00000000      1.00000000      1.00000000      1.00000000      1.00000000      1.00000000      1.00000000      1.00000000
      1.00000000      1.00000000      1.00000000      1.00000000      1.00000000      1.00000000      1.00000000      1.00000000      1.00000000      1.00000000      1.00000000      1.00000000      1.00000000      1.00000000      1.00000000      1.00000000</v>
    <i name="NUPDOWN">     -1.00000000</i>
    <i type="logical" name="LSORBIT"> F  </i>
    <v name="SAXIS">      0.00000000      0.00000000      1.00000000</v>
    <i type="logical" name="LSPIRAL"> F  </i>
    <v name="QSPIRAL">      0.00000000      0.00000000      0.00000000</v>
    <i type="logical" name="LZEROZ"> F  </i>
   </separator>
   <separator name="electronic exchange-correlation" >
    <i type="logical" name="LASPH"> F  </i>
    <i type="logical" name="LMETAGGA"> F  </i>
   </separator>
   <separator name="electronic convergence" >
    <i type="int" name="NELM">    70</i>
    <i type="int" name="NELMDL">    -5</i>
    <i type="int" name="NELMIN">     2</i>
    <i name="ENINI">    300.00000000</i>
    <separator name="electronic convergence detail" >
     <i type="logical" name="LDIAG"> T  </i>
     <i type="logical" name="LSUBROT"> F  </i>
     <i name="WEIMIN">      0.00100000</i>
     <i name="EBREAK">      0.00000002</i>
     <i name="DEPER">      0.30000000</i>
     <i type="int" name="NRMM">     4</i>
     <i name="TIME">      0.40000000</i>
    </separator>
   </separator>
   <separator name="electronic mixer" >
    <i name="AMIX">      0.40000000</i>
    <i name="BMIX">      1.00000000</i>
    <i name="AMIN">      0.10000000</i>
    <i name="AMIX_MAG">      1.60000000</i>
    <i name="BMIX_MAG">      1.00000000</i>
    <separator name="electronic mixer details" >
     <i type="int" name="IMIX">     4</i>
     <i type="logical" name="MIXFIRST"> F  </i>
     <i type="int" name="MAXMIX">   -45</i>
     <i name="WC">    100.00000000</i>
     <i type="int" name="INIMIX">     1</i>
     <i type="int" name="MIXPRE">     1</i>
     <i type="int" name="MREMOVE">     5</i>
    </separator>
   </separator>
   <separator name="electronic dipolcorrection" >
    <i type="logical" name="LDIPOL"> F  </i>
    <i type="logical" name="LMONO"> F  </i>
    <i type="int" name="IDIPOL">     0</i>
    <i name="EPSILON">      1.00000000</i>
    <v name="DIPOL">   -100.00000000   -100.00000000   -100.00000000</v>
    <i name="EFIELD">      0.00000000</i>
   </separator>
  </separator>
  <separator name="grids" >
   <i type="int" name="NGX">    40</i>
   <i type="int" name="NGY">    60</i>
   <i type="int" name="NGZ">    60</i>
   <i type="int" name="NGXF">    80</i>
   <i type="int" name="NGYF">   120</i>
   <i type="int" name="NGZF">   120</i>
   <i type="logical" name="ADDGRID"> F  </i>
  </separator>
  <separator name="ionic" >
   <i type="int" name="NSW">   300</i>
   <i type="int" name="IBRION">     2</i>
   <i type="int" name="ISIF">     3</i>
   <i name="PSTRESS">      0.00000000</i>
   <i name="EDIFFG">     -0.01000000</i>
   <i type="int" name="NFREE">     1</i>
   <i name="POTIM">      0.15000000</i>
   <i name="SMASS">     -3.00000000</i>
   <i name="SCALEE">      1.00000000</i>
  </separator>
  <separator name="ionic md" >
   <i name="TEBEG">      0.00010000</i>
   <i name="TEEND">      0.00010000</i>
   <i type="int" name="NBLOCK">     1</i>
   <i type="int" name="KBLOCK">   300</i>
   <i type="int" name="NPACO">   256</i>
   <i name="APACO">     16.00000000</i>
  </separator>
  <separator name="symmetry" >
   <i type="int" name="ISYM">     1</i>
   <i name="SYMPREC">      0.00001000</i>
  </separator>
  <separator name="dos" >
   <i type="logical" name="LORBIT"> F  </i>
   <v name="RWIGS">     -1.00000000     -1.00000000     -1.00000000     -1.00000000</v>
   <i type="int" name="NEDOS">   301</i>
   <i name="EMIN">     10.00000000</i>
   <i name="EMAX">    -10.00000000</i>
   <i name="EFERMI">      0.00000000</i>
  </separator>
  <separator name="writing" >
   <i type="int" name="NWRITE">     2</i>
   <i type="logical" name="LWAVE"> F  </i>
   <i type="logical" name="LCHARG"> F  </i>
   <i type="logical" name="LPARD"> F  </i>
   <i type="logical" name="LVTOT"> F  </i>
   <i type="logical" name="LVHAR"> F  </i>
   <i type="logical" name="LELF"> F  </i>
   <i type="logical" name="LOPTICS"> F  </i>
   <v name="STM">      0.00000000      0.00000000      0.00000000      0.00000000      0.00000000      0.00000000      0.00000000</v>
  </separator>
  <separator name="performance" >
   <i type="int" name="NPAR">     4</i>
   <i type="int" name="NSIM">     4</i>
   <i type="int" name="NBLK">    -1</i>
   <i type="logical" name="LPLANE"> T  </i>
   <i type="logical" name="LSCALAPACK"> T  </i>
   <i type="logical" name="LSCAAWARE"> F  </i>
   <i type="logical" name="LSCALU"> F  </i>
   <i type="logical" name="LASYNC"> F  </i>
   <i type="logical" name="LORBITALREAL"> F  </i>
  </separator>
  <separator name="miscellaneous" >
   <i type="int" name="IDIOT">     3</i>
   <i type="logical" name="LMUSIC"> F  </i>
   <v name="POMASS">     92.91000000    180.94800000    178.49000000     91.22400000</v>
   <v name="DARWINR">      0.00000000      0.00000000      0.00000000      0.00000000</v>
   <v name="DARWINV">      1.00000000      1.00000000      1.00000000      1.00000000</v>
   <i type="logical" name="LCORR"> T  </i>
  </separator>
  <i type="logical" name="GGA_COMPAT"> T  </i>
  <i type="logical" name="LBERRY"> F  </i>
  <i type="int" name="ICORELEVEL">     0</i>
  <i type="logical" name="LDAU"> F  </i>
  <i type="int" name="I_CONSTRAINED_M">     0</i>
  <separator name="electronic exchange-correlation" >
   <i type="string" name="GGA">--</i>
   <i type="int" name="VOSKOWN">     0</i>
   <i type="logical" name="LHFCALC"> F  </i>
   <i type="string" name="PRECFOCK"></i>
   <i type="logical" name="LSYMGRAD"> F  </i>
   <i type="logical" name="LHFONE"> F  </i>
   <i type="logical" name="LRHFCALC"> F  </i>
   <i type="logical" name="LTHOMAS"> F  </i>
   <i type="logical" name="LMODELHF"> F  </i>
   <i name="ENCUT4O">     -1.00000000</i>
   <i type="int" name="EXXOEP">     0</i>
   <i type="int" name="FOURORBIT">     0</i>
   <i name="AEXX">      0.00000000</i>
   <i name="HFALPHA">      0.00000000</i>
   <i name="MCALPHA">      0.00000000</i>
   <i name="ALDAX">      1.00000000</i>
   <i name="AGGAX">      1.00000000</i>
   <i name="ALDAC">      1.00000000</i>
   <i name="AGGAC">      1.00000000</i>
   <i type="int" name="NKREDX">     1</i>
   <i type="int" name="NKREDY">     1</i>
   <i type="int" name="NKREDZ">     1</i>
   <i type="logical" name="SHIFTRED"> F  </i>
   <i type="logical" name="ODDONLY"> F  </i>
   <i type="logical" name="EVENONLY"> F  </i>
   <i type="int" name="LMAXFOCK">     0</i>
   <i type="int" name="NMAXFOCKAE">     0</i>
   <i type="logical" name="LFOCKAEDFT"> F  </i>
   <i name="HFSCREEN">      0.00000000</i>
   <i name="HFSCREENC">      0.00000000</i>
   <i type="int" name="NBANDSGWLOW">     0</i>
  </separator>
  <separator name="vdW DFT" >
   <i type="logical" name="LUSE_VDW"> F  </i>
   <i name="Zab_VDW">     -0.84910000</i>
   <i name="PARAM1">      0.12340000</i>
   <i name="PARAM2">      1.00000000</i>
   <i name="PARAM3">      0.00000000</i>
  </separator>
  <separator name="model GW" >
   <i type="int" name="MODEL_GW">     0</i>
   <i name="MODEL_EPS0">     12.24915507</i>
   <i name="MODEL_ALPHA">      1.00000000</i>
  </separator>
  <separator name="linear response parameters" >
   <i type="logical" name="LEPSILON"> F  </i>
   <i type="logical" name="LRPA"> F  </i>
   <i type="logical" name="LNABLA"> F  </i>
   <i type="logical" name="LVEL"> F  </i>
   <i type="int" name="KINTER">     0</i>
   <i name="CSHIFT">      0.10000000</i>
   <i name="OMEGAMAX">     -1.00000000</i>
   <i name="DEG_THRESHOLD">      0.00200000</i>
  </separator>
  <separator name="orbital magnetization" >
   <i type="logical" name="NUCIND"> F  </i>
   <v name="MAGPOS">      0.00000000      0.00000000      0.00000000</v>
   <i type="logical" name="LNICSALL"> T  </i>
   <i type="logical" name="ORBITALMAG"> F  </i>
   <i type="logical" name="LMAGBLOCH"> F  </i>
   <i type="logical" name="LCHIMAG"> F  </i>
   <i type="logical" name="LGAUGE"> T  </i>
   <i type="int" name="MAGATOM">     0</i>
   <v name="MAGDIPOL">      0.00000000      0.00000000      0.00000000</v>
   <v name="AVECCONST">      0.00000000      0.00000000      0.00000000</v>
  </separator>
  <separator name="response functions" >
   <i type="logical" name="LADDER"> F  </i>
   <i type="logical" name="LFXC"> F  </i>
   <i type="logical" name="LHARTREE"> T  </i>
   <i type="int" name="IBSE">     0</i>
   <v type="int" name="KPOINT">    -1     0     0     0</v>
   <i type="logical" name="LTCTE"> F  </i>
   <i type="logical" name="LTETE"> F  </i>
   <i type="logical" name="LTRIPLET"> F  </i>
   <i type="logical" name="LFXCEPS"> F  </i>
   <i type="logical" name="LFXHEG"> F  </i>
   <i type="int" name="NATURALO">     0</i>
   <i type="logical" name="L2ORDER"> F  </i>
   <i type="logical" name="LUSEW"> F  </i>
   <i name="ENCUTGW">     -2.00000000</i>
   <i name="ENCUTGWSOFT">     -2.00000000</i>
   <i name="ENCUTLF">     -1.00000000</i>
   <i type="int" name="LMAXMP2">    -1</i>
   <i name="SCISSOR">      0.00000000</i>
   <i type="int" name="NOMEGA">     0</i>
   <i type="int" name="NOMEGAR">     0</i>
   <i type="int" name="NBANDSGW">    -1</i>
   <i type="int" name="NBANDSO">    -1</i>
   <i type="int" name="NBANDSV">    -1</i>
   <i type="int" name="NELM">    70</i>
   <i type="int" name="NELMHF">     1</i>
   <i type="int" name="DIM">     3</i>
   <i type="int" name="ANTIRES">     0</i>
   <i name="OMEGAMAX">    -30.00000000</i>
   <i name="OMEGAMIN">    -30.00000000</i>
   <i name="OMEGATL">   -200.00000000</i>
   <i type="int" name="OMEGAGRID">     0</i>
   <i name="CSHIFT">     -0.10000000</i>
   <i type="logical" name="SELFENERGY"> F  </i>
   <i type="logical" name="LSPECTRAL"> F  </i>
   <i type="logical" name="LSPECTRALGW"> F  </i>
   <i type="logical" name="LSINGLES"> F  </i>
   <i type="logical" name="LFERMIGW"> F  </i>
   <i type="logical" name="ODDONLYGW"> F  </i>
   <i type="logical" name="EVENONLYGW"> F  </i>
   <i type="int" name="NKREDLFX">     1</i>
   <i type="int" name="NKREDLFY">     1</i>
   <i type="int" name="NKREDLFZ">     1</i>
   <i type="int" name="MAXMEM">  1800</i>
   <i type="int" name="TELESCOPE">     0</i>
   <i type="int" name="TAUPAR">     1</i>
   <i type="int" name="OMEGAPAR">    -1</i>
   <i name="LAMBDA">      1.00000000</i>
  </separator>
  <separator name="External order field" >
   <i name="OFIELD_KAPPA">      0.00000000</i>
   <v name="OFIELD_K">      0.00000000      0.00000000      0.00000000</v>
   <i name="OFIELD_Q6_NEAR">      0.00000000</i>
   <i name="OFIELD_Q6_FAR">      0.00000000</i>
   <i name="OFIELD_A">      0.00000000</i>
  </separator>
 </parameters>
 <atominfo>
  <atoms>      36 </atoms>
  <types>       4 </types>
  <array name="atoms" >
   <dimension dim="1">ion</dimension>
   <field type="string">element</field>
   <field type="int">atomtype</field>
   <set>
    <rc><c>Nb</c><c>   1</c></rc>
    <rc><c>Nb</c><c>   1</c></rc>
    <rc><c>Nb</c><c>   1</c></rc>
    <rc><c>Nb</c><c>   1</c></rc>
    <rc><c>Nb</c><c>   1</c></rc>
    <rc><c>Ta</c><c>   2</c></rc>
    <rc><c>Ta</c><c>   2</c></rc>
    <rc><c>Ta</c><c>   2</c></rc>
    <rc><c>Ta</c><c>   2</c></rc>
    <rc><c>Ta</c><c>   2</c></rc>
    <rc><c>Ta</c><c>   2</c></rc>
    <rc><c>Ta</c><c>   2</c></rc>
    <rc><c>Ta</c><c>   2</c></rc>
    <rc><c>Ta</c><c>   2</c></rc>
    <rc><c>Ta</c><c>   2</c></rc>
    <rc><c>Ta</c><c>   2</c></rc>
    <rc><c>Hf</c><c>   3</c></rc>
    <rc><c>Hf</c><c>   3</c></rc>
    <rc><c>Hf</c><c>   3</c></rc>
    <rc><c>Hf</c><c>   3</c></rc>
    <rc><c>Hf</c><c>   3</c></rc>
    <rc><c>Hf</c><c>   3</c></rc>
    <rc><c>Hf</c><c>   3</c></rc>
    <rc><c>Hf</c><c>   3</c></rc>
    <rc><c>Hf</c><c>   3</c></rc>
    <rc><c>Hf</c><c>   3</c></rc>
    <rc><c>Hf</c><c>   3</c></rc>
    <rc><c>Hf</c><c>   3</c></rc>
    <rc><c>Hf</c><c>   3</c></rc>
    <rc><c>Zr</c><c>   4</c></rc>
    <rc><c>Zr</c><c>   4</c></rc>
    <rc><c>Zr</c><c>   4</c></rc>
    <rc><c>Zr</c><c>   4</c></rc>
    <rc><c>Zr</c><c>   4</c></rc>
    <rc><c>Zr</c><c>   4</c></rc>
    <rc><c>Zr</c><c>   4</c></rc>
   </set>
  </array>
  <array name="atomtypes" >
   <dimension dim="1">type</dimension>
   <field type="int">atomspertype</field>
   <field type="string">element</field>
   <field>mass</field>
   <field>valence</field>
   <field type="string">pseudopotential</field>
   <set>
    <rc><c>   5</c><c>Nb</c><c>     92.91000000</c><c>     13.00000000</c><c>  PAW_PBE Nb_sv 25May2007               </c></rc>
    <rc><c>  11</c><c>Ta</c><c>    180.94800000</c><c>      5.00000000</c><c>  PAW_PBE Ta 17Jan2003                  </c></rc>
    <rc><c>  13</c><c>Hf</c><c>    178.49000000</c><c>      4.00000000</c><c>  PAW_PBE Hf 20Jan2003                  </c></rc>
    <rc><c>   7</c><c>Zr</c><c>     91.22400000</c><c>     12.00000000</c><c>  PAW_PBE Zr_sv 04Jan2005               </c></rc>
   </set>
  </array>
 </atominfo>
 <structure name="initialpos" >
  <crystal>
   <varray name="basis" >
    <v>       6.97847609       0.00959751       0.00442463 </v>
    <v>       0.01476540      10.24201306       0.02290133 </v>
    <v>       0.00678909       0.02275667      10.28287729 </v>
   </varray>
   <i name="volume">    734.94930395 </i>
   <varray name="rec_basis" >
    <v>       0.14329810      -0.00020638      -0.00009415 </v>
    <v>      -0.00013414       0.09763773      -0.00021599 </v>
    <v>      -0.00006136      -0.00021736       0.09724957 </v>
   </varray>
  </crystal>
  <varray name="positions" >
   <v>       0.76421400       0.17580000       0.48793500 </v>
   <v>       0.22707500       0.16501400       0.16849300 </v>
   <v>       0.75788000       0.18721800       0.84408100 </v>
   <v>       0.24614100       0.16821200       0.83460900 </v>
   <v>       0.02216400       0.32634100       0.98621100 </v>
   <v>       0.74287600       0.83251200       0.19355600 </v>
   <v>       0.24306200       0.16477800       0.49720600 </v>
   <v>       0.02095700       0.32696400       0.34708400 </v>
   <v>       0.24258300       0.49839200       0.83227200 </v>
   <v>       0.25458800       0.83724400       0.17770500 </v>
   <v>       0.49248100       0.33051400       0.66862700 </v>
   <v>       0.25363000       0.49506800       0.49968000 </v>
   <v>       0.48524800       0.66477000       0.32059100 </v>
   <v>       0.47087300       0.63319300       0.66453500 </v>
   <v>       0.02300800       0.65519100       0.66244800 </v>
   <v>       0.00632300       0.99834800       0.33669200 </v>
   <v>       0.48151200       0.32557000       0.99982300 </v>
   <v>       0.76564700       0.49633500       0.16861600 </v>
   <v>       0.26891100       0.82804500       0.81817000 </v>
   <v>       0.74041700       0.82613500       0.50027400 </v>
   <v>       0.75284100       0.49796900       0.83361400 </v>
   <v>       0.22205200       0.49580000       0.16316800 </v>
   <v>       0.01518000       0.67691100       0.33808000 </v>
   <v>       0.48385500       0.32698800       0.32966400 </v>
   <v>       0.50097100       0.67287800       0.01647000 </v>
   <v>       0.52036400       0.03325900       0.66868400 </v>
   <v>       0.98707300       0.01097300       0.66896000 </v>
   <v>       0.72677900       0.81221800       0.80364200 </v>
   <v>       0.50406800       0.00016400       0.00203400 </v>
   <v>       0.74375900       0.50270000       0.49933400 </v>
   <v>       0.99687400       0.99241600       0.00036400 </v>
   <v>       0.49820900       0.01089600       0.32826400 </v>
   <v>       0.26514700       0.83694100       0.50701800 </v>
   <v>       0.77926100       0.17782800       0.16744700 </v>
   <v>       0.99040300       0.68751200       0.00058300 </v>
   <v>       0.00357300       0.32891900       0.66406500 </v>
  </varray>
 </structure>
 <calculation>
  <scstep>
   <time name="dav">    0.98    0.98</time>
   <time name="total">    1.06    1.48</time>
   <energy>
    <i name="alphaZ">   1268.36263172 </i>
    <i name="ewald"> -14322.72110521 </i>
    <i name="hartreedc">  -5926.60546780 </i>
    <i name="XCdc">   -790.59651362 </i>
    <i name="pawpsdc">  16885.68149266 </i>
    <i name="pawaedc"> -15080.93782161 </i>
    <i name="eentropy">     -0.01072583 </i>
    <i name="bandstr">    114.00568784 </i>
    <i name="atom">  19188.49011979 </i>
    <i name="e_fr_energy">   1335.66829795 </i>
    <i name="e_wo_entrp">   1335.67902378 </i>
    <i name="e_0_energy">   1335.67187323 </i>
   </energy>
  </scstep>
  <scstep>
   <time name="dav">    0.88    0.88</time>
   <time name="total">    0.88    1.06</time>
   <energy>
    <i name="e_fr_energy">   -149.49145965 </i>
    <i name="e_wo_entrp">   -149.49268384 </i>
    <i name="e_0_energy">   -149.49186771 </i>
   </energy>
  </scstep>
  <scstep>
   <time name="dav">    1.32    1.33</time>
   <time name="total">    1.32    1.37</time>
   <energy>
    <i name="e_fr_energy">   -354.95061183 </i>
    <i name="e_wo_entrp">   -354.96066251 </i>
    <i name="e_0_energy">   -354.95396205 </i>
   </energy>
  </scstep>
  <scstep>
   <time name="dav">    1.24    1.25</time>
   <time name="total">    1.24    1.29</time>
   <energy>
    <i name="e_fr_energy">   -379.44827921 </i>
    <i name="e_wo_entrp">   -379.46658898 </i>
    <i name="e_0_energy">   -379.45438246 </i>
   </energy>
  </scstep>
  <scstep>
   <time name="dav">    1.16    1.17</time>
   <time name="total">    1.19    1.25</time>
   <energy>
    <i name="e_fr_energy">   -381.90231592 </i>
    <i name="e_wo_entrp">   -381.92033486 </i>
    <i name="e_0_energy">   -381.90832224 </i>
   </energy>
  </scstep>
  <scstep>
   <time name="diag">    0.07    0.07</time>
   <time name="diis">    0.64    0.64</time>
   <time name="orth">    0.02    0.02</time>
   <time name="total">    0.81    0.85</time>
   <energy>
    <i name="e_fr_energy">   -371.51283988 </i>
    <i name="e_wo_entrp">   -371.52893286 </i>
    <i name="e_0_energy">   -371.51820421 </i>
   </energy>
  </scstep>
  <scstep>
   <time name="diag">    0.06    0.07</time>
   <time name="diis">    0.65    0.65</time>
   <time name="orth">    0.01    0.01</time>
   <time name="total">    0.78    0.85</time>
   <energy>
    <i name="e_fr_energy">   -370.06234934 </i>
    <i name="e_wo_entrp">   -370.07185867 </i>
    <i name="e_0_energy">   -370.06551912 </i>
   </energy>
  </scstep>
  <scstep>
   <time name="diag">    0.15    0.15</time>
   <time name="diis">    0.76    0.77</time>
   <time name="orth">    0.01    0.01</time>
   <time name="total">    0.99    1.03</time>
   <energy>
    <i name="e_fr_energy">   -367.07803877 </i>
    <i name="e_wo_entrp">   -367.10264942 </i>
    <i name="e_0_energy">   -367.08624232 </i>
   </energy>
  </scstep>
  <scstep>
   <time name="diag">    0.08    0.09</time>
   <time name="diis">    0.72    0.74</time>
   <time name="orth">    0.01    0.01</time>
   <time name="total">    0.87    0.95</time>
   <energy>
    <i name="e_fr_energy">   -366.94097677 </i>
    <i name="e_wo_entrp">   -366.97049433 </i>
    <i name="e_0_energy">   -366.95081596 </i>
   </energy>
  </scstep>
  <scstep>
   <time name="diag">    0.11    0.16</time>
   <time name="diis">    0.78    0.79</time>
   <time name="orth">    0.02    0.02</time>
   <time name="total">    0.97    1.09</time>
   <energy>
    <i name="e_fr_energy">   -366.91214750 </i>
    <i name="e_wo_entrp">   -366.94195909 </i>
    <i name="e_0_energy">   -366.92208470 </i>
   </energy>
  </scstep>
  <scstep>
   <time name="diag">    0.15    0.16</time>
   <time name="diis">    0.69    0.75</time>
   <time name="orth">    0.01    0.01</time>
   <time name="total">    0.93    1.05</time>
   <energy>
    <i name="e_fr_energy">   -366.88864227 </i>
    <i name="e_wo_entrp">   -366.91924995 </i>
    <i name="e_0_energy">   -366.89884483 </i>
   </energy>
  </scstep>
  <scstep>
   <time name="diag">    0.07    0.07</time>
   <time name="diis">    0.79    0.80</time>
   <time name="orth">    0.01    0.01</time>
   <time name="total">    0.93    0.98</time>
   <energy>
    <i name="e_fr_energy">   -366.88846458 </i>
    <i name="e_wo_entrp">   -366.91878678 </i>
    <i name="e_0_energy">   -366.89857198 </i>
   </energy>
  </scstep>
  <scstep>
   <time name="diag">    0.07    0.07</time>
   <time name="diis">    0.73    0.74</time>
   <time name="orth">    0.01    0.01</time>
   <time name="total">    0.87    0.91</time>
   <energy>
    <i name="e_fr_energy">   -366.88727043 </i>
    <i name="e_wo_entrp">   -366.91773504 </i>
    <i name="e_0_energy">   -366.89742530 </i>
   </energy>
  </scstep>
  <scstep>
   <time name="diag">    0.06    0.06</time>
   <time name="diis">    0.79    0.80</time>
   <time name="orth">    0.01    0.01</time>
   <time name="total">    0.93    0.98</time>
   <energy>
    <i name="e_fr_energy">   -366.88770509 </i>
    <i name="e_wo_entrp">   -366.91793381 </i>
    <i name="e_0_energy">   -366.89778133 </i>
   </energy>
  </scstep>
  <scstep>
   <time name="diag">    0.07    0.07</time>
   <time name="diis">    0.72    0.72</time>
   <time name="orth">    0.01    0.01</time>
   <time name="total">    0.86    0.94</time>
   <energy>
    <i name="e_fr_energy">   -366.88786152 </i>
    <i name="e_wo_entrp">   -366.91825705 </i>
    <i name="e_0_energy">   -366.89799336 </i>
   </energy>
  </scstep>
  <scstep>
   <time name="diag">    0.06    0.06</time>
   <time name="diis">    0.64    0.64</time>
   <time name="orth">    0.01    0.01</time>
   <time name="total">    0.80    0.84</time>
   <energy>
    <i name="e_fr_energy">   -366.88796993 </i>
    <i name="e_wo_entrp">   -366.91836987 </i>
    <i name="e_0_energy">   -366.89810324 </i>
   </energy>
  </scstep>
  <scstep>
   <time name="diag">    0.07    0.07</time>
   <time name="diis">    0.64    0.64</time>
   <time name="orth">    0.01    0.01</time>
   <time name="total">    0.78    0.84</time>
   <energy>
    <i name="e_fr_energy">   -366.88800768 </i>
    <i name="e_wo_entrp">   -366.91841804 </i>
    <i name="e_0_energy">   -366.89814447 </i>
   </energy>
  </scstep>
  <scstep>
   <time name="diag">    0.07    0.07</time>
   <time name="diis">    0.51    0.53</time>
   <time name="orth">    0.01    0.03</time>
   <time name="total">    0.65    0.73</time>
   <energy>
    <i name="e_fr_energy">   -366.88803152 </i>
    <i name="e_wo_entrp">   -366.91843995 </i>
    <i name="e_0_energy">   -366.89816766 </i>
   </energy>
  </scstep>
  <scstep>
   <time name="diag">    0.07    0.07</time>
   <time name="diis">    0.43    0.43</time>
   <time name="orth">    0.01    0.01</time>
   <time name="total">    0.57    0.62</time>
   <energy>
    <i name="e_fr_energy">   -366.88804464 </i>
    <i name="e_wo_entrp">   -366.91845458 </i>
    <i name="e_0_energy">   -366.89818129 </i>
   </energy>
  </scstep>
  <scstep>
   <time name="diag">    0.07    0.07</time>
   <time name="diis">    0.40    0.41</time>
   <time name="orth">    0.01    0.01</time>
   <time name="total">    0.51    0.58</time>
   <energy>
    <i name="alphaZ">   1268.36263172 </i>
    <i name="ewald"> -14322.72110521 </i>
    <i name="hartreedc">  -5750.53291056 </i>
    <i name="XCdc">   -783.96598256 </i>
    <i name="pawpsdc">  28989.02257001 </i>
    <i name="pawaedc"> -27177.50457118 </i>
    <i name="eentropy">      0.03041268 </i>
    <i name="bandstr">  -1778.06921263 </i>
    <i name="atom">  19188.49011979 </i>
    <i name="e_fr_energy">   -366.88804793 </i>
    <i name="e_wo_entrp">   -366.91846061 </i>
    <i name="e_0_energy">   -366.89818549 </i>
   </energy>
  </scstep>
  <structure>
   <crystal>
    <varray name="basis" >
     <v>       6.97847609       0.00959751       0.00442463 </v>
     <v>       0.01476540      10.24201306       0.02290133 </v>
     <v>       0.00678909       0.02275667      10.28287729 </v>
    </varray>
    <i name="volume">    734.94930395 </i>
    <varray name="rec_basis" >
     <v>       0.14329810      -0.00020638      -0.00009415 </v>
     <v>      -0.00013414       0.09763773      -0.00021599 </v>
     <v>      -0.00006136      -0.00021736       0.09724957 </v>
    </varray>
   </crystal>
   <varray name="positions" >
    <v>       0.76421400       0.17580000       0.48793500 </v>
    <v>       0.22707500       0.16501400       0.16849300 </v>
    <v>       0.75788000       0.18721800       0.84408100 </v>
    <v>       0.24614100       0.16821200       0.83460900 </v>
    <v>       0.02216400       0.32634100       0.98621100 </v>
    <v>       0.74287600       0.83251200       0.19355600 </v>
    <v>       0.24306200       0.16477800       0.49720600 </v>
    <v>       0.02095700       0.32696400       0.34708400 </v>
    <v>       0.24258300       0.49839200       0.83227200 </v>
    <v>       0.25458800       0.83724400       0.17770500 </v>
    <v>       0.49248100       0.33051400       0.66862700 </v>
    <v>       0.25363000       0.49506800       0.49968000 </v>
    <v>       0.48524800       0.66477000       0.32059100 </v>
    <v>       0.47087300       0.63319300       0.66453500 </v>
    <v>       0.02300800       0.65519100       0.66244800 </v>
    <v>       0.00632300       0.99834800       0.33669200 </v>
    <v>       0.48151200       0.32557000       0.99982300 </v>
    <v>       0.76564700       0.49633500       0.16861600 </v>
    <v>       0.26891100       0.82804500       0.81817000 </v>
    <v>       0.74041700       0.82613500       0.50027400 </v>
    <v>       0.75284100       0.49796900       0.83361400 </v>
    <v>       0.22205200       0.49580000       0.16316800 </v>
    <v>       0.01518000       0.67691100       0.33808000 </v>
    <v>       0.48385500       0.32698800       0.32966400 </v>
    <v>       0.50097100       0.67287800       0.01647000 </v>
    <v>       0.52036400       0.03325900       0.66868400 </v>
    <v>       0.98707300       0.01097300       0.66896000 </v>
    <v>       0.72677900       0.81221800       0.80364200 </v>
    <v>       0.50406800       0.00016400       0.00203400 </v>
    <v>       0.74375900       0.50270000       0.49933400 </v>
    <v>       0.99687400       0.99241600       0.00036400 </v>
    <v>       0.49820900       0.01089600       0.32826400 </v>
    <v>       0.26514700       0.83694100       0.50701800 </v>
    <v>       0.77926100       0.17782800       0.16744700 </v>
    <v>       0.99040300       0.68751200       0.00058300 </v>
    <v>       0.00357300       0.32891900       0.66406500 </v>
   </varray>
  </structure>
  <varray name="forces" >
   <v>       0.01353695      -0.00642957       0.00322912 </v>
   <v>       0.02513919      -0.02854117      -0.03948284 </v>
   <v>      -0.00707454      -0.04113546       0.03530171 </v>
   <v>       0.01647404      -0.03156505       0.01665524 </v>
   <v>      -0.00491091       0.01058168       0.00187246 </v>
   <v>      -0.02670687       0.02325861      -0.03415747 </v>
   <v>       0.00223697       0.00141631      -0.00069245 </v>
   <v>      -0.00158568       0.00105015       0.01557951 </v>
   <v>      -0.00137799      -0.00835524       0.00939923 </v>
   <v>       0.03268413       0.01713224      -0.03574144 </v>
   <v>      -0.00508630       0.00969341      -0.00732202 </v>
   <v>       0.01057939      -0.00744768       0.00138830 </v>
   <v>       0.00667040      -0.01469645       0.00419334 </v>
   <v>      -0.00141858       0.00081129      -0.01256451 </v>
   <v>      -0.00551263       0.00210057      -0.00418261 </v>
   <v>      -0.00134644       0.01028038       0.01486013 </v>
   <v>       0.00007998      -0.09455482       0.00201683 </v>
   <v>       0.00485780       0.00320890       0.00637595 </v>
   <v>       0.02659612       0.03592896       0.02917536 </v>
   <v>       0.00279130       0.00176692      -0.00045534 </v>
   <v>      -0.00558317      -0.00001036      -0.00088271 </v>
   <v>      -0.00839398       0.00184304       0.00037064 </v>
   <v>      -0.00118301       0.00162420       0.00934125 </v>
   <v>      -0.00848642       0.01401274       0.00214100 </v>
   <v>      -0.00095366       0.10164352      -0.00052204 </v>
   <v>       0.01904375      -0.00606407       0.09712867 </v>
   <v>      -0.00371372       0.00442251      -0.01430148 </v>
   <v>      -0.02491089       0.02973283       0.03212725 </v>
   <v>      -0.00085276       0.00570811       0.01440261 </v>
   <v>      -0.01695575       0.00151972       0.00430842 </v>
   <v>      -0.00975156      -0.00257757      -0.00837927 </v>
   <v>       0.00215728      -0.00341922      -0.08460544 </v>
   <v>       0.00226387       0.01856254      -0.00569118 </v>
   <v>      -0.01696178      -0.03323974      -0.04288206 </v>
   <v>      -0.01379629      -0.01805280      -0.00221265 </v>
   <v>       0.00145179      -0.00020944      -0.00579150 </v>
  </varray>
  <varray name="stress" >
   <v>      -1.34786943       0.00939857       0.02620727 </v>
   <v>       0.00939851      -1.72331222      -0.01787641 </v>
   <v>       0.02620727      -0.01787642      -1.93938370 </v>
  </varray>
  <energy>
   <i name="e_fr_energy">   -366.88804793 </i>
   <i name="e_wo_entrp">   -366.89818549 </i>
   <i name="e_0_energy">      0.03041268 </i>
  </energy>
  <time name="totalsc">   19.42   21.50</time>
 </calculation>
 <calculation>
  <scstep>
   <time name="dav">    1.02    1.17</time>
   <time name="total">    1.10    1.44</time>
   <energy>
    <i name="alphaZ">   1269.53535610 </i>
    <i name="ewald"> -14326.97210234 </i>
    <i name="hartreedc">  -5752.46348527 </i>
    <i name="XCdc">   -783.76864945 </i>
    <i name="pawpsdc">  28989.00889141 </i>
    <i name="pawaedc"> -27177.49096411 </i>
    <i name="eentropy">      0.03051013 </i>
    <i name="bandstr">  -1773.26026536 </i>
    <i name="atom">  19188.49011979 </i>
    <i name="e_fr_energy">   -366.89058911 </i>
    <i name="e_wo_entrp">   -366.92109924 </i>
    <i name="e_0_energy">   -366.90075915 </i>
   </energy>
  </scstep>
  <scstep>
   <time name="diag">    0.07    0.07</time>
   <time name="diis">    0.74    0.75</time>
   <time name="orth">    0.01    0.01</time>
   <time name="total">    1.03    1.08</time>
   <energy>
    <i name="e_fr_energy">   -366.88994334 </i>
    <i name="e_wo_entrp">   -366.92029783 </i>
    <i name="e_0_energy">   -366.90006150 </i>
   </energy>
  </scstep>
  <scstep>
   <time name="diag">    0.10    0.10</time>
   <time name="diis">    0.71    0.78</time>
   <time name="orth">    0.01    0.01</time>
   <time name="total">    0.89    1.02</time>
   <energy>
    <i name="e_fr_energy">   -366.88958334 </i>
    <i name="e_wo_entrp">   -366.91998454 </i>
    <i name="e_0_energy">   -366.89971707 </i>
   </energy>
  </scstep>
  <scstep>
   <time name="diag">    0.10    0.11</time>
   <time name="diis">    0.76    0.79</time>
   <time name="orth">    0.01    0.01</time>
   <time name="total">    0.93    1.05</time>
   <energy>
    <i name="e_fr_energy">   -366.88936910 </i>
    <i name="e_wo_entrp">   -366.91978489 </i>
    <i name="e_0_energy">   -366.89950770 </i>
   </energy>
  </scstep>
  <scstep>
   <time name="diag">    0.07    0.07</time>
   <time name="diis">    0.66    0.71</time>
   <time name="orth">    0.01    0.01</time>
   <time name="total">    0.80    0.91</time>
   <energy>
    <i name="e_fr_energy">   -366.88934897 </i>
    <i name="e_wo_entrp">   -366.91973603 </i>
    <i name="e_0_energy">   -366.89947799 </i>
   </energy>
  </scstep>
  <scstep>
   <time name="diag">    0.07    0.08</time>
   <time name="diis">    0.41    0.46</time>
   <time name="orth">    0.01    0.01</time>
   <time name="total">    0.56    0.68</time>
   <energy>
    <i name="e_fr_energy">   -366.88936102 </i>
    <i name="e_wo_entrp">   -366.91977784 </i>
    <i name="e_0_energy">   -366.89949996 </i>
   </energy>
  </scstep>
  <scstep>
   <time name="diag">    0.07    0.09</time>
   <time name="diis">    0.28    0.36</time>
   <time name="orth">    0.01    0.01</time>
   <time name="total">    0.39    0.55</time>
   <energy>
    <i name="alphaZ">   1269.53535610 </i>
    <i name="ewald"> -14326.97210234 </i>
    <i name="hartreedc">  -5749.62861198 </i>
    <i name="XCdc">   -783.88040447 </i>
    <i name="pawpsdc">  29027.91208982 </i>
    <i name="pawaedc"> -27216.45949885 </i>
    <i name="eentropy">      0.03040187 </i>
    <i name="bandstr">  -1775.91671851 </i>
    <i name="atom">  19188.49011979 </i>
    <i name="e_fr_energy">   -366.88936855 </i>
    <i name="e_wo_entrp">   -366.91977042 </i>
    <i name="e_0_energy">   -366.89950251 </i>
   </energy>
  </scstep>
  <structure>
   <crystal>
    <varray name="basis" >
     <v>       6.97674150       0.00960654       0.00445674 </v>
     <v>       0.01477959      10.23875804       0.02285945 </v>
     <v>       0.00683714       0.02271555      10.27919956 </v>
    </varray>
    <i name="volume">    734.27039969 </i>
    <varray name="rec_basis" >
     <v>       0.14333373      -0.00020669      -0.00009488 </v>
     <v>      -0.00013435       0.09766877      -0.00021574 </v>
     <v>      -0.00006185      -0.00021711       0.09728436 </v>
    </varray>
   </crystal>
   <varray name="positions" >
    <v>       0.76424209       0.17579088       0.48793955 </v>
    <v>       0.22712728       0.16497374       0.16843750 </v>
    <v>       0.75786540       0.18715978       0.84413082 </v>
    <v>       0.24617524       0.16816731       0.83463253 </v>
    <v>       0.02215378       0.32635596       0.98621361 </v>
    <v>       0.74282059       0.83254503       0.19350787 </v>
    <v>       0.24306664       0.16478000       0.49720502 </v>
    <v>       0.02095369       0.32696544       0.34710593 </v>
    <v>       0.24258015       0.49838017       0.83228526 </v>
    <v>       0.25465578       0.83726826       0.17765461 </v>
    <v>       0.49247043       0.33052773       0.66861667 </v>
    <v>       0.25365196       0.49505745       0.49968197 </v>
    <v>       0.48526187       0.66474921       0.32059694 </v>
    <v>       0.47087007       0.63319419       0.66451731 </v>
    <v>       0.02299657       0.65519399       0.66244211 </v>
    <v>       0.00632016       0.99836248       0.33671288 </v>
    <v>       0.48151245       0.32543638       0.99982614 </v>
    <v>       0.76565706       0.49633951       0.16862496 </v>
    <v>       0.26896601       0.82809563       0.81821093 </v>
    <v>       0.74042278       0.82613749       0.50027335 </v>
    <v>       0.75282942       0.49796900       0.83361276 </v>
    <v>       0.22203459       0.49580262       0.16316852 </v>
    <v>       0.01517753       0.67691327       0.33809314 </v>
    <v>       0.48383736       0.32700781       0.32966698 </v>
    <v>       0.50096872       0.67302164       0.01646895 </v>
    <v>       0.52040338       0.03325009       0.66882071 </v>
    <v>       0.98706530       0.01097930       0.66893986 </v>
    <v>       0.72672720       0.81225996       0.80368715 </v>
    <v>       0.50406619       0.00017202       0.00205425 </v>
    <v>       0.74372382       0.50270217       0.49934007 </v>
    <v>       0.99685380       0.99241240       0.00035222 </v>
    <v>       0.49821360       0.01089143       0.32814493 </v>
    <v>       0.26515165       0.83696724       0.50700993 </v>
    <v>       0.77922598       0.17778120       0.16738676 </v>
    <v>       0.99037444       0.68748652       0.00057995 </v>
    <v>       0.00357602       0.32891872       0.66405685 </v>
   </varray>
  </structure>
  <varray name="forces" >
   <v>       0.00809042      -0.00769329       0.00443341 </v>
   <v>       0.02447203      -0.02804821      -0.03707422 </v>
   <v>      -0.00388165      -0.04077229       0.03281219 </v>
   <v>       0.01363241      -0.03239939       0.01372887 </v>
   <v>      -0.00760319       0.01194717       0.00412199 </v>
   <v>      -0.02176220       0.02145253      -0.03309527 </v>
   <v>       0.00667589      -0.00092853       0.00154755 </v>
   <v>      -0.00437074       0.00174059       0.01029042 </v>
   <v>      -0.00075720      -0.00718343       0.01036363 </v>
   <v>       0.02637873       0.01552517      -0.03364588 </v>
   <v>      -0.00352585       0.00723170      -0.00757412 </v>
   <v>       0.00804497      -0.00708706      -0.00130834 </v>
   <v>       0.00616383      -0.01537108       0.00649379 </v>
   <v>       0.00077670       0.00554660      -0.01029633 </v>
   <v>      -0.00738955       0.00680934      -0.00239113 </v>
   <v>      -0.00096749       0.00963884       0.01378846 </v>
   <v>       0.00171262      -0.08567206       0.00374265 </v>
   <v>       0.00185482       0.00319933       0.00493753 </v>
   <v>       0.02120139       0.03501395       0.02761238 </v>
   <v>       0.00168628       0.00317828       0.00070119 </v>
   <v>      -0.00628944       0.00108782       0.00096542 </v>
   <v>      -0.00478937       0.00345806      -0.00118301 </v>
   <v>      -0.00167265       0.00159664       0.00847396 </v>
   <v>      -0.00458244       0.01413239       0.00200394 </v>
   <v>       0.00050411       0.08965079      -0.00098972 </v>
   <v>       0.01703950      -0.00605165       0.08737125 </v>
   <v>      -0.00205056       0.00052865      -0.01287057 </v>
   <v>      -0.02011187       0.02842307       0.03091876 </v>
   <v>       0.00011009       0.00498228       0.01303516 </v>
   <v>      -0.01432678       0.00088067       0.00278479 </v>
   <v>      -0.00928514      -0.00611826      -0.01037703 </v>
   <v>       0.00231525      -0.00086135      -0.07665360 </v>
   <v>       0.00322093       0.01873550      -0.00427109 </v>
   <v>      -0.01744543      -0.03021171      -0.03981627 </v>
   <v>      -0.01236488      -0.01691524      -0.00427389 </v>
   <v>      -0.00070351       0.00055418      -0.00430687 </v>
  </varray>
  <varray name="stress" >
   <v>      -0.27956894       0.02048411       0.03359486 </v>
   <v>       0.02048409      -0.60453334       0.00547801 </v>
   <v>       0.03359485       0.00547802      -0.78702721 </v>
  </varray>
  <energy>
   <i name="e_fr_energy">   -366.88936855 </i>
   <i name="e_wo_entrp">   -366.89950251 </i>
   <i name="e_0_energy">      0.03040187 </i>
  </energy>
  <time name="totalsc">    7.14    8.43</time>
 </calculation>
 <calculation>
  <scstep>
   <time name="dav">    0.91    0.98</time>
   <time name="total">    0.97    1.31</time>
   <energy>
    <i name="alphaZ">   1271.78347220 </i>
    <i name="ewald"> -14335.10464123 </i>
    <i name="hartreedc">  -5753.36598234 </i>
    <i name="XCdc">   -783.50005978 </i>
    <i name="pawpsdc">  29027.15436700 </i>
    <i name="pawaedc"> -27215.67615178 </i>
    <i name="eentropy">      0.03057069 </i>
    <i name="bandstr">  -1766.70635006 </i>
    <i name="atom">  19188.49011979 </i>
    <i name="e_fr_energy">   -366.89465551 </i>
    <i name="e_wo_entrp">   -366.92522620 </i>
    <i name="e_0_energy">   -366.90484574 </i>
   </energy>
  </scstep>
  <scstep>
   <time name="diag">    0.07    0.07</time>
   <time name="diis">    0.70    0.71</time>
   <time name="orth">    0.01    0.01</time>
   <time name="total">    0.85    0.91</time>
   <energy>
    <i name="e_fr_energy">   -366.89227659 </i>
    <i name="e_wo_entrp">   -366.92252717 </i>
    <i name="e_0_energy">   -366.90236011 </i>
   </energy>
  </scstep>
  <scstep>
   <time name="diag">    0.07    0.07</time>
   <time name="diis">    0.78    0.80</time>
   <time name="orth">    0.01    0.01</time>
   <time name="total">    0.92    0.97</time>
   <energy>
    <i name="e_fr_energy">   -366.89096606 </i>
    <i name="e_wo_entrp">   -366.92132263 </i>
    <i name="e_0_energy">   -366.90108492 </i>
   </energy>
  </scstep>
  <scstep>
   <time name="diag">    0.06    0.06</time>
   <time name="diis">    0.72    0.72</time>
   <time name="orth">    0.01    0.01</time>
   <time name="total">    0.86    0.90</time>
   <energy>
    <i name="e_fr_energy">   -366.89019257 </i>
    <i name="e_wo_entrp">   -366.92057622 </i>
    <i name="e_0_energy">   -366.90032045 </i>
   </energy>
  </scstep>
  <scstep>
   <time name="diag">    0.07    0.07</time>
   <time name="diis">    0.76    0.76</time>
   <time name="orth">    0.01    0.01</time>
   <time name="total">    0.90    0.97</time>
   <energy>
    <i name="e_fr_energy">   -366.89011901 </i>
    <i name="e_wo_entrp">   -366.92044950 </i>
    <i name="e_0_energy">   -366.90022918 </i>
   </energy>
  </scstep>
  <scstep>
   <time name="diag">    0.06    0.06</time>
   <time name="diis">    0.65    0.66</time>
   <time name="orth">    0.01    0.01</time>
   <time name="total">    0.79    0.83</time>
   <energy>
    <i name="e_fr_energy">   -366.89015585 </i>
    <i name="e_wo_entrp">   -366.92054182 </i>
    <i name="e_0_energy">   -366.90028451 </i>
   </energy>
  </scstep>
  <scstep>
   <time name="diag">    0.06    0.06</time>
   <time name="diis">    0.54    0.54</time>
   <time name="orth">    0.01    0.01</time>
   <time name="total">    0.68    0.73</time>
   <energy>
    <i name="e_fr_energy">   -366.89017487 </i>
    <i name="e_wo_entrp">   -366.92053210 </i>
    <i name="e_0_energy">   -366.90029395 </i>
   </energy>
  </scstep>
  <scstep>
   <time name="diag">    0.06    0.06</time>
   <time name="diis">    0.39    0.39</time>
   <time name="orth">    0.01    0.01</time>
   <time name="total">    0.53    0.58</time>
   <energy>
    <i name="e_fr_energy">   -366.89019038 </i>
    <i name="e_wo_entrp">   -366.92056484 </i>
    <i name="e_0_energy">   -366.90031520 </i>
   </energy>
  </scstep>
  <scstep>
   <time name="diag">    0.09    0.11</time>
   <time name="diis">    0.38    0.38</time>
   <time name="orth">    0.01    0.01</time>
   <time name="total">    0.54    0.63</time>
   <energy>
    <i name="e_fr_energy">   -366.89020448 </i>
    <i name="e_wo_entrp">   -366.92057375 </i>
    <i name="e_0_energy">   -366.90032757 </i>
   </energy>
  </scstep>
  <scstep>
   <time name="diag">    0.07    0.07</time>
   <time name="diis">    0.35    0.35</time>
   <time name="orth">    0.01    0.01</time>
   <time name="total">    0.46    0.51</time>
   <energy>
    <i name="alphaZ">   1271.78347220 </i>
    <i name="ewald"> -14335.10464123 </i>
    <i name="hartreedc">  -5748.19319886 </i>
    <i name="XCdc">   -783.70249741 </i>
    <i name="pawpsdc">  29101.55929031 </i>
    <i name="pawaedc"> -27289.96853094 </i>
    <i name="eentropy">      0.03037029 </i>
    <i name="bandstr">  -1771.78459429 </i>
    <i name="atom">  19188.49011979 </i>
    <i name="e_fr_energy">   -366.89021013 </i>
    <i name="e_wo_entrp">   -366.92058042 </i>
    <i name="e_0_energy">   -366.90033356 </i>
   </energy>
  </scstep>
  <structure>
   <crystal>
    <varray name="basis" >
     <v>       6.97342230       0.00962382       0.00451819 </v>
     <v>       0.01480675      10.23252943       0.02277930 </v>
     <v>       0.00692908       0.02263687      10.27216205 </v>
    </varray>
    <i name="volume">    732.97243888 </i>
    <varray name="rec_basis" >
     <v>       0.14340196      -0.00020729      -0.00009627 </v>
     <v>      -0.00013473       0.09772822      -0.00021527 </v>
     <v>      -0.00006278      -0.00021663       0.09735101 </v>
    </varray>
   </crystal>
   <varray name="positions" >
    <v>       0.76429585       0.17577342       0.48794827 </v>
    <v>       0.22722733       0.16489669       0.16833125 </v>
    <v>       0.75783746       0.18704832       0.84422619 </v>
    <v>       0.24624077       0.16808177       0.83467756 </v>
    <v>       0.02213422       0.32638459       0.98621860 </v>
    <v>       0.74271453       0.83260824       0.19341575 </v>
    <v>       0.24307551       0.16478383       0.49720314 </v>
    <v>       0.02094735       0.32696819       0.34714790 </v>
    <v>       0.24257471       0.49835752       0.83231063 </v>
    <v>       0.25478552       0.83731469       0.17755816 </v>
    <v>       0.49245021       0.33055401       0.66859689 </v>
    <v>       0.25369400       0.49503726       0.49968574 </v>
    <v>       0.48528842       0.66470940       0.32060832 </v>
    <v>       0.47086447       0.63319646       0.66448346 </v>
    <v>       0.02297468       0.65519972       0.66243084 </v>
    <v>       0.00631471       0.99839021       0.33675286 </v>
    <v>       0.48151330       0.32518061       0.99983214 </v>
    <v>       0.76567630       0.49634813       0.16864211 </v>
    <v>       0.26907130       0.82819254       0.81828927 </v>
    <v>       0.74043386       0.82614226       0.50027211 </v>
    <v>       0.75280726       0.49796900       0.83361039 </v>
    <v>       0.22200125       0.49580763       0.16316953 </v>
    <v>       0.01517280       0.67691761       0.33811830 </v>
    <v>       0.48380358       0.32704573       0.32967268 </v>
    <v>       0.50096435       0.67329657       0.01646693 </v>
    <v>       0.52047876       0.03323304       0.66908240 </v>
    <v>       0.98705057       0.01099136       0.66890131 </v>
    <v>       0.72662806       0.81234029       0.80377357 </v>
    <v>       0.50406274       0.00018738       0.00209303 </v>
    <v>       0.74365650       0.50270631       0.49935170 </v>
    <v>       0.99681512       0.99240552       0.00032968 </v>
    <v>       0.49822240       0.01088268       0.32791700 </v>
    <v>       0.26516054       0.83701748       0.50699448 </v>
    <v>       0.77915895       0.17769161       0.16727146 </v>
    <v>       0.99031979       0.68743776       0.00057413 </v>
    <v>       0.00358180       0.32891818       0.66404124 </v>
   </varray>
  </structure>
  <varray name="forces" >
   <v>      -0.00194680      -0.00878505       0.00480108 </v>
   <v>       0.01937284      -0.02532333      -0.03098515 </v>
   <v>       0.00369071      -0.03736720       0.02753286 </v>
   <v>       0.00638684      -0.03072079       0.00948375 </v>
   <v>      -0.01124891       0.01131451       0.00793412 </v>
   <v>      -0.01235432       0.01813541      -0.02927717 </v>
   <v>       0.01401734      -0.00495932       0.00594168 </v>
   <v>      -0.00881519       0.00339513       0.00117636 </v>
   <v>       0.00080523      -0.00607507       0.01087389 </v>
   <v>       0.01528859       0.01270123      -0.02928684 </v>
   <v>      -0.00045650       0.00326874      -0.00797048 </v>
   <v>       0.00272819      -0.00675550      -0.00545276 </v>
   <v>       0.00460890      -0.01683993       0.01133816 </v>
   <v>       0.00561172       0.01414364      -0.00578615 </v>
   <v>      -0.01193884       0.01458381       0.00115055 </v>
   <v>      -0.00078516       0.00812504       0.01247663 </v>
   <v>       0.00460181      -0.06867880       0.00557356 </v>
   <v>      -0.00384681       0.00243323       0.00179856 </v>
   <v>       0.01180283       0.03335470       0.02390363 </v>
   <v>      -0.00001869       0.00564527       0.00374984 </v>
   <v>      -0.00801321       0.00231256       0.00344587 </v>
   <v>       0.00178276       0.00522780      -0.00406296 </v>
   <v>      -0.00250938       0.00116287       0.00793404 </v>
   <v>       0.00236796       0.01515970       0.00232138 </v>
   <v>       0.00265785       0.06737293      -0.00344543 </v>
   <v>       0.01410114      -0.00697500       0.07027403 </v>
   <v>      -0.00001490      -0.00805274      -0.01064130 </v>
   <v>      -0.01138417       0.02584534       0.02738854 </v>
   <v>       0.00157122       0.00364721       0.00912631 </v>
   <v>      -0.00864950      -0.00128473      -0.00100625 </v>
   <v>      -0.00819417      -0.01053112      -0.01263957 </v>
   <v>       0.00273852       0.00316600      -0.06206273 </v>
   <v>       0.00528984       0.01852824      -0.00245118 </v>
   <v>      -0.01553504      -0.02376254      -0.03367440 </v>
   <v>      -0.00911065      -0.01559419      -0.00773211 </v>
   <v>      -0.00460203       0.00218196      -0.00175036 </v>
  </varray>
  <varray name="stress" >
   <v>       2.07087790       0.03818089       0.03552785 </v>
   <v>       0.03818085       1.86396263       0.06493004 </v>
   <v>       0.03552788       0.06493001       1.76545456 </v>
  </varray>
  <energy>
   <i name="e_fr_energy">   -366.89021013 </i>
   <i name="e_wo_entrp">   -366.90033356 </i>
   <i name="e_0_energy">      0.03037029 </i>
  </energy>
  <time name="totalsc">    8.98    9.96</time>
 </calculation>
 <calculation>
  <scstep>
   <time name="dav">    0.88    0.94</time>
   <time name="total">    1.01    1.33</time>
   <energy>
    <i name="alphaZ">   1271.62694570 </i>
    <i name="ewald"> -14334.37259139 </i>
    <i name="hartreedc">  -5748.11345441 </i>
    <i name="XCdc">   -783.72898018 </i>
    <i name="pawpsdc">  29101.84335597 </i>
    <i name="pawaedc"> -27290.23224984 </i>
    <i name="eentropy">      0.03036281 </i>
    <i name="bandstr">  -1772.43460618 </i>
    <i name="atom">  19188.49011979 </i>
    <i name="e_fr_energy">   -366.89109773 </i>
    <i name="e_wo_entrp">   -366.92146054 </i>
    <i name="e_0_energy">   -366.90121867 </i>
   </energy>
  </scstep>
  <scstep>
   <time name="diag">    0.07    0.07</time>
   <time name="diis">    0.69    0.70</time>
   <time name="orth">    0.01    0.01</time>
   <time name="total">    0.85    0.93</time>
   <energy>
    <i name="e_fr_energy">   -366.89130502 </i>
    <i name="e_wo_entrp">   -366.92170981 </i>
    <i name="e_0_energy">   -366.90143995 </i>
   </energy>
  </scstep>
  <scstep>
   <time name="diag">    0.07    0.07</time>
   <time name="diis">    0.75    0.76</time>
   <time name="orth">    0.01    0.01</time>
   <time name="total">    0.89    0.94</time>
   <energy>
    <i name="e_fr_energy">   -366.89122375 </i>
    <i name="e_wo_entrp">   -366.92158608 </i>
    <i name="e_0_energy">   -366.90134452 </i>
   </energy>
  </scstep>
  <scstep>
   <time name="diag">    0.06    0.06</time>
   <time name="diis">    0.57    0.58</time>
   <time name="orth">    0.01    0.01</time>
   <time name="total">    0.74    0.80</time>
   <energy>
    <i name="e_fr_energy">   -366.89121271 </i>
    <i name="e_wo_entrp">   -366.92161233 </i>
    <i name="e_0_energy">   -366.90134592 </i>
   </energy>
  </scstep>
  <scstep>
   <time name="diag">    0.07    0.07</time>
   <time name="diis">    0.32    0.32</time>
   <time name="orth">    0.01    0.01</time>
   <time name="total">    0.43    0.50</time>
   <energy>
    <i name="alphaZ">   1271.62694570 </i>
    <i name="ewald"> -14334.37259139 </i>
    <i name="hartreedc">  -5748.55328129 </i>
    <i name="XCdc">   -783.71152945 </i>
    <i name="pawpsdc">  29096.77774094 </i>
    <i name="pawaedc"> -27285.11371510 </i>
    <i name="eentropy">      0.03039002 </i>
    <i name="bandstr">  -1772.06528862 </i>
    <i name="atom">  19188.49011979 </i>
    <i name="e_fr_energy">   -366.89120941 </i>
    <i name="e_wo_entrp">   -366.92159943 </i>
    <i name="e_0_energy">   -366.90133941 </i>
   </energy>
  </scstep>
  <structure>
   <crystal>
    <varray name="basis" >
     <v>       6.97422582       0.00967457       0.00458329 </v>
     <v>       0.01488269      10.23281196       0.02285318 </v>
     <v>       0.00702596       0.02271202      10.27195989 </v>
    </varray>
    <i name="volume">    733.06266157 </i>
    <varray name="rec_basis" >
     <v>       0.14338544      -0.00020832      -0.00009761 </v>
     <v>      -0.00013542       0.09772553      -0.00021599 </v>
     <v>      -0.00006368      -0.00021733       0.09735293 </v>
    </varray>
   </crystal>
   <varray name="positions" >
    <v>       0.76431526       0.17575570       0.48795760 </v>
    <v>       0.22730315       0.16483438       0.16825009 </v>
    <v>       0.75783207       0.18695720       0.84429886 </v>
    <v>       0.24627956       0.16800946       0.83470779 </v>
    <v>       0.02210652       0.32640999       0.98622997 </v>
    <v>       0.74264836       0.83265638       0.19334248 </v>
    <v>       0.24310343       0.16477958       0.49720930 </v>
    <v>       0.02092946       0.32697336       0.34716703 </v>
    <v>       0.24257379       0.49834077       0.83233411 </v>
    <v>       0.25486676       0.83734931       0.17748303 </v>
    <v>       0.49244086       0.33056899       0.66857919 </v>
    <v>       0.25371650       0.49502079       0.49968096 </v>
    <v>       0.48530763       0.66467275       0.32062644 </v>
    <v>       0.47087174       0.63321405       0.66446232 </v>
    <v>       0.02294481       0.65521929       0.66242739 </v>
    <v>       0.00631102       0.99841145       0.33678436 </v>
    <v>       0.48152176       0.32499170       0.99984137 </v>
    <v>       0.76567781       0.49635464       0.16865147 </v>
    <v>       0.26913608       0.82827264       0.81835029 </v>
    <v>       0.74043849       0.82615091       0.50027596 </v>
    <v>       0.75278407       0.49797172       0.83361342 </v>
    <v>       0.22199022       0.49581590       0.16316518 </v>
    <v>       0.01516646       0.67692080       0.33813823 </v>
    <v>       0.48379334       0.32707957       0.32967776 </v>
    <v>       0.50096692       0.67349205       0.01646187 </v>
    <v>       0.52053488       0.03321742       0.66927536 </v>
    <v>       0.98704435       0.01098703       0.66887257 </v>
    <v>       0.72656641       0.81240458       0.80384213 </v>
    <v>       0.50406397       0.00019814       0.00212010 </v>
    <v>       0.74361311       0.50270658       0.49935545 </v>
    <v>       0.99678468       0.99239028       0.00030538 </v>
    <v>       0.49823092       0.01088285       0.32774792 </v>
    <v>       0.26517338       0.83706050       0.50698502 </v>
    <v>       0.77910392       0.17762590       0.16718334 </v>
    <v>       0.99028101       0.68739884       0.00056266 </v>
    <v>       0.00357631       0.32892053       0.66403259 </v>
   </varray>
  </structure>
  <varray name="forces" >
   <v>      -0.00425783      -0.00858767       0.00341070 </v>
   <v>       0.01316432      -0.02083010      -0.02365527 </v>
   <v>       0.00743095      -0.03208778       0.02442927 </v>
   <v>       0.00295136      -0.02735963       0.00596621 </v>
   <v>      -0.00946825       0.01013494       0.00688492 </v>
   <v>      -0.00763550       0.01347976      -0.02230690 </v>
   <v>       0.01570475      -0.00546402       0.00600753 </v>
   <v>      -0.00681023      -0.00083444      -0.00150046 </v>
   <v>       0.00172209      -0.00460020       0.00755482 </v>
   <v>       0.00864315       0.00943714      -0.02219420 </v>
   <v>      -0.00128843       0.00078732      -0.00655266 </v>
   <v>       0.00096448      -0.00474556      -0.00512782 </v>
   <v>       0.00158173      -0.01321735       0.00868923 </v>
   <v>       0.00062955       0.01345977      -0.00169004 </v>
   <v>      -0.00810045       0.01642431       0.00388111 </v>
   <v>       0.00159305       0.00783358       0.00904833 </v>
   <v>       0.00278756      -0.05888359       0.00481689 </v>
   <v>      -0.00584775       0.00241624      -0.00016187 </v>
   <v>       0.00656889       0.02880232       0.01876487 </v>
   <v>      -0.00121506       0.00619164       0.00401774 </v>
   <v>      -0.00909407       0.00295293       0.00300354 </v>
   <v>       0.00509079       0.00501333      -0.00547491 </v>
   <v>      -0.00087210       0.00402398       0.00580232 </v>
   <v>       0.00214745       0.01225256       0.00242364 </v>
   <v>       0.00428225       0.05322660      -0.00089420 </v>
   <v>       0.01250544      -0.00282675       0.05761239 </v>
   <v>       0.00075834      -0.00868465      -0.00952282 </v>
   <v>      -0.00721683       0.02053253       0.02274029 </v>
   <v>       0.00149812       0.00299134       0.00764325 </v>
   <v>      -0.00735431      -0.00111686      -0.00178660 </v>
   <v>      -0.00575177      -0.01304898      -0.01286681 </v>
   <v>       0.00126423       0.00611958      -0.05202272 </v>
   <v>       0.00544845       0.01619980      -0.00143161 </v>
   <v>      -0.01059435      -0.01793585      -0.02655443 </v>
   <v>      -0.00760897      -0.01399855      -0.00815039 </v>
   <v>      -0.00362107       0.00194233      -0.00080335 </v>
  </varray>
  <varray name="stress" >
   <v>       1.88571756       0.04964730       0.03755390 </v>
   <v>       0.04964731       1.72947680       0.08695463 </v>
   <v>       0.03755395       0.08695460       1.66081140 </v>
  </varray>
  <energy>
   <i name="e_fr_energy">   -366.89120941 </i>
   <i name="e_wo_entrp">   -366.90133941 </i>
   <i name="e_0_energy">      0.03039002 </i>
  </energy>
  <time name="totalsc">    5.44    6.18</time>
 </calculation>
 <calculation>
  <scstep>
   <time name="dav">    0.84    0.84</time>
   <time name="total">    0.97    1.18</time>
   <energy>
    <i name="alphaZ">   1271.15759466 </i>
    <i name="ewald"> -14332.13652507 </i>
    <i name="hartreedc">  -5748.34291602 </i>
    <i name="XCdc">   -783.79112432 </i>
    <i name="pawpsdc">  29096.70307805 </i>
    <i name="pawaedc"> -27285.02513274 </i>
    <i name="eentropy">      0.03035414 </i>
    <i name="bandstr">  -1773.97748519 </i>
    <i name="atom">  19188.49011979 </i>
    <i name="e_fr_energy">   -366.89203669 </i>
    <i name="e_wo_entrp">   -366.92239082 </i>
    <i name="e_0_energy">   -366.90215473 </i>
   </energy>
  </scstep>
  <scstep>
   <time name="diag">    0.07    0.08</time>
   <time name="diis">    0.70    0.70</time>
   <time name="orth">    0.01    0.01</time>
   <time name="total">    0.84    0.91</time>
   <energy>
    <i name="e_fr_energy">   -366.89384631 </i>
    <i name="e_wo_entrp">   -366.92432079 </i>
    <i name="e_0_energy">   -366.90400447 </i>
   </energy>
  </scstep>
  <scstep>
   <time name="diag">    0.18    0.19</time>
   <time name="diis">    0.70    0.70</time>
   <time name="orth">    0.01    0.01</time>
   <time name="total">    0.95    1.03</time>
   <energy>
    <i name="e_fr_energy">   -366.89315145 </i>
    <i name="e_wo_entrp">   -366.92349798 </i>
    <i name="e_0_energy">   -366.90326696 </i>
   </energy>
  </scstep>
  <scstep>
   <time name="diag">    0.06    0.06</time>
   <time name="diis">    0.72    0.73</time>
   <time name="orth">    0.01    0.01</time>
   <time name="total">    0.86    0.91</time>
   <energy>
    <i name="e_fr_energy">   -366.89305984 </i>
    <i name="e_wo_entrp">   -366.92352066 </i>
    <i name="e_0_energy">   -366.90321344 </i>
   </energy>
  </scstep>
  <scstep>
   <time name="diag">    0.08    0.08</time>
   <time name="diis">    0.75    0.76</time>
   <time name="orth">    0.01    0.01</time>
   <time name="total">    0.92    1.00</time>
   <energy>
    <i name="e_fr_energy">   -366.89304332 </i>
    <i name="e_wo_entrp">   -366.92347225 </i>
    <i name="e_0_energy">   -366.90318630 </i>
   </energy>
  </scstep>
  <scstep>
   <time name="diag">    0.07    0.07</time>
   <time name="diis">    0.62    0.62</time>
   <time name="orth">    0.01    0.01</time>
   <time name="total">    0.75    0.83</time>
   <energy>
    <i name="e_fr_energy">   -366.89303417 </i>
    <i name="e_wo_entrp">   -366.92347938 </i>
    <i name="e_0_energy">   -366.90318257 </i>
   </energy>
  </scstep>
  <scstep>
   <time name="diag">    0.08    0.08</time>
   <time name="diis">    0.33    0.33</time>
   <time name="orth">    0.01    0.01</time>
   <time name="total">    0.45    0.51</time>
   <energy>
    <i name="alphaZ">   1271.15759466 </i>
    <i name="ewald"> -14332.13652507 </i>
    <i name="hartreedc">  -5749.51294926 </i>
    <i name="XCdc">   -783.74494462 </i>
    <i name="pawpsdc">  29079.45139460 </i>
    <i name="pawaedc"> -27267.74892358 </i>
    <i name="eentropy">      0.03044365 </i>
    <i name="bandstr">  -1772.87924285 </i>
    <i name="atom">  19188.49011979 </i>
    <i name="e_fr_energy">   -366.89303267 </i>
    <i name="e_wo_entrp">   -366.92347633 </i>
    <i name="e_0_energy">   -366.90318056 </i>
   </energy>
  </scstep>
  <structure>
   <crystal>
    <varray name="basis" >
     <v>       6.97663639       0.00982681       0.00477857 </v>
     <v>       0.01511053      10.23365954       0.02307483 </v>
     <v>       0.00731659       0.02293749      10.27135339 </v>
    </varray>
    <i name="volume">    733.33333118 </i>
    <varray name="rec_basis" >
     <v>       0.14333592      -0.00021141      -0.00010163 </v>
     <v>      -0.00013749       0.09771745      -0.00021812 </v>
     <v>      -0.00006638      -0.00021943       0.09735869 </v>
    </varray>
   </crystal>
   <varray name="positions" >
    <v>       0.76437346       0.17570255       0.48798559 </v>
    <v>       0.22753059       0.16464749       0.16800660 </v>
    <v>       0.75781588       0.18668383       0.84451686 </v>
    <v>       0.24639594       0.16779252       0.83479847 </v>
    <v>       0.02202342       0.32648619       0.98626410 </v>
    <v>       0.74244987       0.83280082       0.19312265 </v>
    <v>       0.24318718       0.16476685       0.49722778 </v>
    <v>       0.02087580       0.32698885       0.34722443 </v>
    <v>       0.24257105       0.49829052       0.83240454 </v>
    <v>       0.25511045       0.83745315       0.17725764 </v>
    <v>       0.49241284       0.33061393       0.66852608 </v>
    <v>       0.25378402       0.49497138       0.49966665 </v>
    <v>       0.48536524       0.66456277       0.32068080 </v>
    <v>       0.47089357       0.63326679       0.66439891 </v>
    <v>       0.02285520       0.65527800       0.66241703 </v>
    <v>       0.00629995       0.99847518       0.33687884 </v>
    <v>       0.48154714       0.32442497       0.99986909 </v>
    <v>       0.76568232       0.49637416       0.16867954 </v>
    <v>       0.26933037       0.82851294       0.81853337 </v>
    <v>       0.74045238       0.82617683       0.50028750 </v>
    <v>       0.75271448       0.49797988       0.83362252 </v>
    <v>       0.22195711       0.49584071       0.16315214 </v>
    <v>       0.01514745       0.67693036       0.33819802 </v>
    <v>       0.48376260       0.32718110       0.32969302 </v>
    <v>       0.50097463       0.67407844       0.01644668 </v>
    <v>       0.52070323       0.03317058       0.66985427 </v>
    <v>       0.98702568       0.01097405       0.66878634 </v>
    <v>       0.72638145       0.81259745       0.80404780 </v>
    <v>       0.50406764       0.00023040       0.00220132 </v>
    <v>       0.74348297       0.50270737       0.49936671 </v>
    <v>       0.99669336       0.99234457       0.00023250 </v>
    <v>       0.49825645       0.01088337       0.32724069 </v>
    <v>       0.26521189       0.83718954       0.50695665 </v>
    <v>       0.77893884       0.17742879       0.16691898 </v>
    <v>       0.99016470       0.68728210       0.00052826 </v>
    <v>       0.00355984       0.32892757       0.66400663 </v>
   </varray>
  </structure>
  <varray name="forces" >
   <v>      -0.01227315      -0.00784985      -0.00061891 </v>
   <v>      -0.00821211      -0.00768784      -0.00239840 </v>
   <v>       0.02264454      -0.01465411       0.01433874 </v>
   <v>      -0.01026814      -0.01496228      -0.00448679 </v>
   <v>      -0.00495244       0.00390596       0.00407951 </v>
   <v>       0.00606559      -0.00048663      -0.00132015 </v>
   <v>       0.02022354      -0.00632807       0.00695561 </v>
   <v>      -0.00392958      -0.01055048      -0.00938664 </v>
   <v>       0.00419544      -0.00042589      -0.00401024 </v>
   <v>      -0.01092154      -0.00079374      -0.00098762 </v>
   <v>      -0.00253995      -0.00473523      -0.00388717 </v>
   <v>      -0.00457837       0.00163977      -0.00361172 </v>
   <v>      -0.00538974      -0.00444299       0.00398396 </v>
   <v>      -0.01168774       0.01175887       0.00880867 </v>
   <v>       0.00185596       0.02084370       0.01019717 </v>
   <v>       0.00681614       0.00733260      -0.00072417 </v>
   <v>      -0.00206262      -0.03035582       0.00315139 </v>
   <v>      -0.01142963       0.00205008      -0.00378163 </v>
   <v>      -0.00939142       0.01523101       0.00322339 </v>
   <v>      -0.00511606       0.00555222       0.00471741 </v>
   <v>      -0.01243321       0.00473483      -0.00050995 </v>
   <v>       0.01483093       0.00454885      -0.00801111 </v>
   <v>       0.00224181       0.01090689       0.00142150 </v>
   <v>       0.00289508       0.00592972       0.00446577 </v>
   <v>       0.00942999       0.01228508       0.00627681 </v>
   <v>       0.00893950       0.00944107       0.02155803 </v>
   <v>       0.00148791      -0.01138269      -0.00615880 </v>
   <v>       0.00567961       0.00436834       0.00824880 </v>
   <v>       0.00138498       0.00100834       0.00343264 </v>
   <v>      -0.00157969      -0.00118183      -0.00252927 </v>
   <v>       0.00049554      -0.01912441      -0.01317750 </v>
   <v>      -0.00078422       0.01574286      -0.02603220 </v>
   <v>       0.00757423       0.00946745       0.00103166 </v>
   <v>       0.00515834      -0.00392973      -0.00876682 </v>
   <v>      -0.00217121      -0.00774012      -0.00923987 </v>
   <v>      -0.00219832      -0.00011594       0.00374792 </v>
  </varray>
  <varray name="stress" >
   <v>       1.05365661       0.05704593       0.03325320 </v>
   <v>       0.05704593       1.12845188       0.15704517 </v>
   <v>       0.03325327       0.15704516       1.21703248 </v>
  </varray>
  <energy>
   <i name="e_fr_energy">   -366.89303267 </i>
   <i name="e_wo_entrp">   -366.90318056 </i>
   <i name="e_0_energy">      0.03044365 </i>
  </energy>
  <time name="totalsc">    7.28    8.11</time>
 </calculation>
 <calculation>
  <scstep>
   <time name="dav">    0.79    0.79</time>
   <time name="total">    0.90    1.25</time>
   <energy>
    <i name="alphaZ">   1270.21991949 </i>
    <i name="ewald"> -14327.48428626 </i>
    <i name="hartreedc">  -5749.18209828 </i>
    <i name="XCdc">   -783.90611990 </i>
    <i name="pawpsdc">  29079.68207470 </i>
    <i name="pawaedc"> -27267.98941908 </i>
    <i name="eentropy">      0.03025871 </i>
    <i name="bandstr">  -1776.74797544 </i>
    <i name="atom">  19188.49011979 </i>
    <i name="e_fr_energy">   -366.88752625 </i>
    <i name="e_wo_entrp">   -366.91778497 </i>
    <i name="e_0_energy">   -366.89761249 </i>
   </energy>
  </scstep>
  <scstep>
   <time name="diag">    0.07    0.07</time>
   <time name="diis">    0.69    0.70</time>
   <time name="orth">    0.01    0.01</time>
   <time name="total">    0.84    0.90</time>
   <energy>
    <i name="e_fr_energy">   -366.89473653 </i>
    <i name="e_wo_entrp">   -366.92525588 </i>
    <i name="e_0_energy">   -366.90490965 </i>
   </energy>
  </scstep>
  <scstep>
   <time name="diag">    0.06    0.06</time>
   <time name="diis">    0.65    0.71</time>
   <time name="orth">    0.01    0.02</time>
   <time name="total">    0.79    0.95</time>
   <energy>
    <i name="e_fr_energy">   -366.89200887 </i>
    <i name="e_wo_entrp">   -366.92225665 </i>
    <i name="e_0_energy">   -366.90209146 </i>
   </energy>
  </scstep>
  <scstep>
   <time name="diag">    0.06    0.06</time>
   <time name="diis">    0.75    0.75</time>
   <time name="orth">    0.01    0.01</time>
   <time name="total">    0.89    0.95</time>
   <energy>
    <i name="e_fr_energy">   -366.89163049 </i>
    <i name="e_wo_entrp">   -366.92211487 </i>
    <i name="e_0_energy">   -366.90179195 </i>
   </energy>
  </scstep>
  <scstep>
   <time name="diag">    0.07    0.07</time>
   <time name="diis">    0.71    0.71</time>
   <time name="orth">    0.01    0.01</time>
   <time name="total">    0.85    0.92</time>
   <energy>
    <i name="e_fr_energy">   -366.89156941 </i>
    <i name="e_wo_entrp">   -366.92198636 </i>
    <i name="e_0_energy">   -366.90170839 </i>
   </energy>
  </scstep>
  <scstep>
   <time name="diag">    0.07    0.07</time>
   <time name="diis">    0.70    0.78</time>
   <time name="orth">    0.01    0.01</time>
   <time name="total">    0.84    0.98</time>
   <energy>
    <i name="e_fr_energy">   -366.89153980 </i>
    <i name="e_wo_entrp">   -366.92199372 </i>
    <i name="e_0_energy">   -366.90169111 </i>
   </energy>
  </scstep>
  <scstep>
   <time name="diag">    0.07    0.07</time>
   <time name="diis">    0.55    0.56</time>
   <time name="orth">    0.01    0.01</time>
   <time name="total">    0.69    0.77</time>
   <energy>
    <i name="e_fr_energy">   -366.89154102 </i>
    <i name="e_wo_entrp">   -366.92198649 </i>
    <i name="e_0_energy">   -366.90168951 </i>
   </energy>
  </scstep>
  <scstep>
   <time name="diag">    0.08    0.08</time>
   <time name="diis">    0.47    0.47</time>
   <time name="orth">    0.01    0.01</time>
   <time name="total">    0.61    0.69</time>
   <energy>
    <i name="alphaZ">   1270.21991949 </i>
    <i name="ewald"> -14327.48428626 </i>
    <i name="hartreedc">  -5751.48662375 </i>
    <i name="XCdc">   -783.81583192 </i>
    <i name="pawpsdc">  29046.04203214 </i>
    <i name="pawaedc"> -27234.35176089 </i>
    <i name="eentropy">      0.03044380 </i>
    <i name="bandstr">  -1774.53555516 </i>
    <i name="atom">  19188.49011979 </i>
    <i name="e_fr_energy">   -366.89154274 </i>
    <i name="e_wo_entrp">   -366.92198654 </i>
    <i name="e_0_energy">   -366.90169067 </i>
   </energy>
  </scstep>
  <structure>
   <crystal>
    <varray name="basis" >
     <v>       6.98145753       0.01013129       0.00516913 </v>
     <v>       0.01556621      10.23535470       0.02351813 </v>
     <v>       0.00789785       0.02338842      10.27014039 </v>
    </varray>
    <i name="volume">    733.87467716 </i>
    <varray name="rec_basis" >
     <v>       0.14323696      -0.00021759      -0.00010966 </v>
     <v>      -0.00014162       0.09770130      -0.00022239 </v>
     <v>      -0.00007177      -0.00022362       0.09737022 </v>
    </varray>
   </crystal>
   <varray name="positions" >
    <v>       0.76448984       0.17559626       0.48804157 </v>
    <v>       0.22798535       0.16427373       0.16751958 </v>
    <v>       0.75778351       0.18613712       0.84495290 </v>
    <v>       0.24662862       0.16735868       0.83497986 </v>
    <v>       0.02185728       0.32663858       0.98633235 </v>
    <v>       0.74205304       0.83308968       0.19268296 </v>
    <v>       0.24335463       0.16474138       0.49726475 </v>
    <v>       0.02076852       0.32701983       0.34733924 </v>
    <v>       0.24256557       0.49819003       0.83254541 </v>
    <v>       0.25559767       0.83766083       0.17680683 </v>
    <v>       0.49235682       0.33070381       0.66841985 </v>
    <v>       0.25391901       0.49487258       0.49963802 </v>
    <v>       0.48548042       0.66434284       0.32078954 </v>
    <v>       0.47093719       0.63337228       0.66427208 </v>
    <v>       0.02267603       0.65539542       0.66239632 </v>
    <v>       0.00627780       0.99860261       0.33706782 </v>
    <v>       0.48159791       0.32329162       0.99992454 </v>
    <v>       0.76569133       0.49641321       0.16873569 </v>
    <v>       0.26971880       0.82899348       0.81889952 </v>
    <v>       0.74048017       0.82622866       0.50031058 </v>
    <v>       0.75257537       0.49799620       0.83364070 </v>
    <v>       0.22189093       0.49589033       0.16312607 </v>
    <v>       0.01510943       0.67694947       0.33831760 </v>
    <v>       0.48370114       0.32738413       0.32972354 </v>
    <v>       0.50098999       0.67525114       0.01641628 </v>
    <v>       0.52103978       0.03307687       0.67101215 </v>
    <v>       0.98698836       0.01094808       0.66861387 </v>
    <v>       0.72601163       0.81298316       0.80445918 </v>
    <v>       0.50407499       0.00029492       0.00236377 </v>
    <v>       0.74322277       0.50270894       0.49938924 </v>
    <v>       0.99651080       0.99225316       0.00008672 </v>
    <v>       0.49830755       0.01088443       0.32622615 </v>
    <v>       0.26528887       0.83744761       0.50689989 </v>
    <v>       0.77860884       0.17703462       0.16639025 </v>
    <v>       0.98993215       0.68704863       0.00045947 </v>
    <v>       0.00352691       0.32894166       0.66395471 </v>
   </varray>
  </structure>
  <varray name="forces" >
   <v>      -0.02856879      -0.00427669      -0.00974631 </v>
   <v>      -0.05165185       0.01849814       0.04107106 </v>
   <v>       0.05417912       0.02196833      -0.00790182 </v>
   <v>      -0.03834521       0.01235893      -0.02765986 </v>
   <v>       0.00484593      -0.00977378      -0.00205692 </v>
   <v>       0.03444427      -0.02760243       0.04061573 </v>
   <v>       0.02864815      -0.00871560       0.00865805 </v>
   <v>       0.00454163      -0.03107196      -0.02259940 </v>
   <v>       0.00855686       0.00784718      -0.02655451 </v>
   <v>      -0.04995656      -0.02075054       0.04219892 </v>
   <v>      -0.00677349      -0.01618269       0.00091341 </v>
   <v>      -0.01565940       0.01413052      -0.00119480 </v>
   <v>      -0.02057589       0.01506301      -0.00575114 </v>
   <v>      -0.03787443       0.00888764       0.02952889 </v>
   <v>       0.02228721       0.03087165       0.02363882 </v>
   <v>       0.01869530       0.00544996      -0.01888552 </v>
   <v>      -0.01247271       0.02748121      -0.00031067 </v>
   <v>      -0.02211321       0.00147289      -0.01169186 </v>
   <v>      -0.04091978      -0.01164316      -0.02774368 </v>
   <v>      -0.01243828       0.00567406       0.00563549 </v>
   <v>      -0.01844118       0.00833456      -0.00676275 </v>
   <v>       0.03368135       0.00403575      -0.01350508 </v>
   <v>       0.00986061       0.02593656      -0.00776151 </v>
   <v>       0.00320363      -0.00703539       0.00915745 </v>
   <v>       0.01974190      -0.07009832       0.02087527 </v>
   <v>       0.00051975       0.03177584      -0.04961203 </v>
   <v>       0.00492279      -0.01792461      -0.00039458 </v>
   <v>       0.03109596      -0.02709966      -0.02080551 </v>
   <v>       0.00087730      -0.00448623      -0.00581146 </v>
   <v>       0.00991375      -0.00345978      -0.00458182 </v>
   <v>       0.01433491      -0.03131864      -0.01360712 </v>
   <v>      -0.00646881       0.03149539       0.02800174 </v>
   <v>       0.01134938      -0.00444334       0.00591340 </v>
   <v>       0.03684311       0.02494630       0.02861162 </v>
   <v>       0.00864354       0.00333399      -0.01186210 </v>
   <v>       0.00107312      -0.00367911       0.01198059 </v>
  </varray>
[...]
       <r>    6.0507    1.0000 </r>
       <r>    6.1008    1.0000 </r>
       <r>    6.1506    1.0000 </r>
       <r>    6.1686    1.0000 </r>
       <r>    6.2050    1.0000 </r>
       <r>    6.2678    1.0000 </r>
       <r>    6.3012    1.0000 </r>
       <r>    6.3540    1.0000 </r>
       <r>    6.4083    1.0001 </r>
       <r>    6.4409    1.0003 </r>
       <r>    6.4703    1.0008 </r>
       <r>    6.5184    1.0030 </r>
       <r>    6.5329    1.0044 </r>
       <r>    6.5715    1.0104 </r>
       <r>    6.5954    1.0161 </r>
       <r>    6.6453    1.0308 </r>
       <r>    6.6602    1.0341 </r>
       <r>    6.6971    1.0315 </r>
       <r>    6.7356    0.9957 </r>
       <r>    6.7631    0.9371 </r>
       <r>    6.7843    0.8692 </r>
       <r>    6.8130    0.7465 </r>
       <r>    6.8873    0.3436 </r>
       <r>    6.9304    0.1434 </r>
       <r>    6.9601    0.0496 </r>
       <r>    6.9740    0.0190 </r>
       <r>    7.0084   -0.0246 </r>
       <r>    7.0475   -0.0353 </r>
       <r>    7.0884   -0.0263 </r>
       <r>    7.1313   -0.0139 </r>
       <r>    7.1701   -0.0063 </r>
       <r>    7.2026   -0.0028 </r>
       <r>    7.2648   -0.0004 </r>
       <r>    7.2910   -0.0002 </r>
       <r>    7.3368   -0.0000 </r>
       <r>    7.3839   -0.0000 </r>
       <r>    7.4368   -0.0000 </r>
       <r>    7.4676   -0.0000 </r>
       <r>    7.5287   -0.0000 </r>
       <r>    7.5657   -0.0000 </r>
       <r>    7.6196   -0.0000 </r>
       <r>    7.6628   -0.0000 </r>
       <r>    7.6830   -0.0000 </r>
       <r>    7.7869   -0.0000 </r>
       <r>    7.8411   -0.0000 </r>
       <r>    8.0160   -0.0000 </r>
       <r>    8.1046   -0.0000 </r>
       <r>    8.2741   -0.0000 </r>
       <r>    8.6608   -0.0000 </r>
      </set>
     </set>
    </set>
   </array>
  </eigenvalues>
  <separator name="orbital magnetization" >
   <v name="MAGDIPOLOUT">      0.00000000      0.00000000      0.00000000</v>
  </separator>
  <dos>
   <i name="efermi">      6.85905222 </i>
   <total>
    <array>
     <dimension dim="1">gridpoints</dimension>
     <dimension dim="2">spin</dimension>
     <field>energy</field>
     <field>total</field>
     <field>integrated</field>
     <set>
      <set comment="spin 1">
       <r>   -50.2097     0.0000     0.0000 </r>
       <r>   -50.0041     0.0000     0.0000 </r>
       <r>   -49.7984     0.0000     0.0000 </r>
       <r>   -49.5928     0.0000     0.0000 </r>
       <r>   -49.3872     0.0000     0.0000 </r>
       <r>   -49.1815     0.0000     0.0000 </r>
       <r>   -48.9759     0.0000     0.0000 </r>
       <r>   -48.7703    -0.0000    -0.0000 </r>
       <r>   -48.5647    -0.0000    -0.0000 </r>
       <r>   -48.3590    -0.0000    -0.0000 </r>
       <r>   -48.1534    -0.0000    -0.0000 </r>
       <r>   -47.9478    -0.0000    -0.0000 </r>
       <r>   -47.7422    -0.0358    -0.0074 </r>
       <r>   -47.5365    -0.6376    -0.1385 </r>
       <r>   -47.3309    16.8171     3.3196 </r>
       <r>   -47.1253    29.4444     9.3742 </r>
       <r>   -46.9196     3.3681    10.0667 </r>
       <r>   -46.7140    -0.3225    10.0004 </r>
       <r>   -46.5084    -0.0020    10.0000 </r>
       <r>   -46.3028    -0.0000    10.0000 </r>
       <r>   -46.0971    -0.0000    10.0000 </r>
       <r>   -45.8915     0.0000    10.0000 </r>
       <r>   -45.6859     0.0000    10.0000 </r>
       <r>   -45.4803     0.0000    10.0000 </r>
       <r>   -45.2746     0.0000    10.0000 </r>
       <r>   -45.0690     0.0000    10.0000 </r>
       <r>   -44.8634     0.0000    10.0000 </r>
       <r>   -44.6578     0.0000    10.0000 </r>
       <r>   -44.4521     0.0000    10.0000 </r>
       <r>   -44.2465     0.0000    10.0000 </r>
       <r>   -44.0409     0.0000    10.0000 </r>
       <r>   -43.8352     0.0000    10.0000 </r>
       <r>   -43.6296     0.0000    10.0000 </r>
       <r>   -43.4240     0.0000    10.0000 </r>
       <r>   -43.2184     0.0000    10.0000 </r>
       <r>   -43.0127     0.0000    10.0000 </r>
       <r>   -42.8071    -0.0000    10.0000 </r>
       <r>   -42.6015    -0.0000    10.0000 </r>
       <r>   -42.3959    -0.0000    10.0000 </r>
       <r>   -42.1902    -0.0000    10.0000 </r>
       <r>   -41.9846    -0.0000    10.0000 </r>
       <r>   -41.7790    -0.0268     9.9945 </r>
       <r>   -41.5733    -1.0998     9.7683 </r>
       <r>   -41.3677    20.7470    14.0345 </r>
       <r>   -41.1621    36.0397    21.4452 </r>
       <r>   -40.9565    13.0200    24.1225 </r>
       <r>   -40.7508    -0.5667    24.0060 </r>
       <r>   -40.5452    -0.0290    24.0000 </r>
       <r>   -40.3396    -0.0000    24.0000 </r>
       <r>   -40.1340    -0.0000    24.0000 </r>
       <r>   -39.9283     0.0000    24.0000 </r>
       <r>   -39.7227     0.0000    24.0000 </r>
       <r>   -39.5171     0.0000    24.0000 </r>
       <r>   -39.3115     0.0000    24.0000 </r>
       <r>   -39.1058     0.0000    24.0000 </r>
       <r>   -38.9002     0.0000    24.0000 </r>
       <r>   -38.6946     0.0000    24.0000 </r>
       <r>   -38.4889     0.0000    24.0000 </r>
       <r>   -38.2833     0.0000    24.0000 </r>
       <r>   -38.0777     0.0000    24.0000 </r>
       <r>   -37.8721     0.0000    24.0000 </r>
       <r>   -37.6664     0.0000    24.0000 </r>
       <r>   -37.4608     0.0000    24.0000 </r>
       <r>   -37.2552     0.0000    24.0000 </r>
       <r>   -37.0496     0.0000    24.0000 </r>
       <r>   -36.8439     0.0000    24.0000 </r>
       <r>   -36.6383     0.0000    24.0000 </r>
       <r>   -36.4327     0.0000    24.0000 </r>
       <r>   -36.2270     0.0000    24.0000 </r>
       <r>   -36.0214     0.0000    24.0000 </r>
       <r>   -35.8158     0.0000    24.0000 </r>
       <r>   -35.6102     0.0000    24.0000 </r>
       <r>   -35.4045     0.0000    24.0000 </r>
       <r>   -35.1989     0.0000    24.0000 </r>
       <r>   -34.9933     0.0000    24.0000 </r>
       <r>   -34.7877     0.0000    24.0000 </r>
       <r>   -34.5820     0.0000    24.0000 </r>
       <r>   -34.3764     0.0000    24.0000 </r>
       <r>   -34.1708     0.0000    24.0000 </r>
       <r>   -33.9652     0.0000    24.0000 </r>
       <r>   -33.7595     0.0000    24.0000 </r>
       <r>   -33.5539     0.0000    24.0000 </r>
       <r>   -33.3483     0.0000    24.0000 </r>
       <r>   -33.1426     0.0000    24.0000 </r>
       <r>   -32.9370     0.0000    24.0000 </r>
       <r>   -32.7314     0.0000    24.0000 </r>
       <r>   -32.5258     0.0000    24.0000 </r>
       <r>   -32.3201     0.0000    24.0000 </r>
       <r>   -32.1145     0.0000    24.0000 </r>
       <r>   -31.9089     0.0000    24.0000 </r>
       <r>   -31.7033     0.0000    24.0000 </r>
       <r>   -31.4976     0.0000    24.0000 </r>
       <r>   -31.2920     0.0000    24.0000 </r>
       <r>   -31.0864     0.0000    24.0000 </r>
       <r>   -30.8807     0.0000    24.0000 </r>
       <r>   -30.6751     0.0000    24.0000 </r>
       <r>   -30.4695     0.0000    24.0000 </r>
       <r>   -30.2639     0.0000    24.0000 </r>
       <r>   -30.0582     0.0000    24.0000 </r>
       <r>   -29.8526     0.0000    24.0000 </r>
       <r>   -29.6470     0.0000    24.0000 </r>
       <r>   -29.4414     0.0000    24.0000 </r>
       <r>   -29.2357     0.0000    24.0000 </r>
       <r>   -29.0301     0.0000    24.0000 </r>
       <r>   -28.8245     0.0000    24.0000 </r>
       <r>   -28.6188     0.0000    24.0000 </r>
       <r>   -28.4132     0.0000    24.0000 </r>
       <r>   -28.2076     0.0000    24.0000 </r>
       <r>   -28.0020     0.0000    24.0000 </r>
       <r>   -27.7963     0.0000    24.0000 </r>
       <r>   -27.5907     0.0000    24.0000 </r>
       <r>   -27.3851     0.0000    24.0000 </r>
       <r>   -27.1795     0.0000    24.0000 </r>
       <r>   -26.9738     0.0000    24.0000 </r>
       <r>   -26.7682     0.0000    24.0000 </r>
       <r>   -26.5626     0.0000    24.0000 </r>
       <r>   -26.3570     0.0000    24.0000 </r>
       <r>   -26.1513     0.0000    24.0000 </r>
       <r>   -25.9457     0.0000    24.0000 </r>
       <r>   -25.7401     0.0000    24.0000 </r>
       <r>   -25.5344     0.0000    24.0000 </r>
       <r>   -25.3288     0.0000    24.0000 </r>
       <r>   -25.1232    -0.0000    24.0000 </r>
       <r>   -24.9176    -0.0000    24.0000 </r>
       <r>   -24.7119    -0.0000    24.0000 </r>
       <r>   -24.5063    -0.0000    24.0000 </r>
       <r>   -24.3007    -0.0000    24.0000 </r>
       <r>   -24.0951    -0.0356    23.9927 </r>
       <r>   -23.8894    -0.6422    23.8606 </r>
       <r>   -23.6838    15.2520    26.9968 </r>
       <r>   -23.4782    42.2860    35.6920 </r>
       <r>   -23.2725    60.3576    48.1031 </r>
       <r>   -23.0669    16.6482    51.5265 </r>
       <r>   -22.8613    12.6369    54.1249 </r>
       <r>   -22.6557    -0.5856    54.0045 </r>
       <r>   -22.4500    -0.0220    54.0000 </r>
       <r>   -22.2444    -0.0000    54.0000 </r>
       <r>   -22.0388    -0.0000    54.0000 </r>
       <r>   -21.8332     0.0000    54.0000 </r>
       <r>   -21.6275     0.0000    54.0000 </r>
       <r>   -21.4219     0.0000    54.0000 </r>
       <r>   -21.2163     0.0000    54.0000 </r>
       <r>   -21.0107    -0.0000    54.0000 </r>
       <r>   -20.8050    -0.0000    54.0000 </r>
       <r>   -20.5994    -0.0000    54.0000 </r>
       <r>   -20.3938    -0.0000    54.0000 </r>
       <r>   -20.1881    -0.0048    53.9990 </r>
       <r>   -19.9825    -0.3872    53.9194 </r>
       <r>   -19.7769     4.6930    54.8844 </r>
       <r>   -19.5713    28.3230    60.7084 </r>
       <r>   -19.3656    85.3264    78.2538 </r>
       <r>   -19.1600    66.8857    92.0073 </r>
       <r>   -18.9544    19.9954    96.1189 </r>
       <r>   -18.7488    -0.5126    96.0135 </r>
       <r>   -18.5431    -0.0655    96.0000 </r>
       <r>   -18.3375    -0.0001    96.0000 </r>
       <r>   -18.1319    -0.0000    96.0000 </r>
       <r>   -17.9262     0.0000    96.0000 </r>
       <r>   -17.7206     0.0000    96.0000 </r>
       <r>   -17.5150     0.0000    96.0000 </r>
       <r>   -17.3094     0.0000    96.0000 </r>
       <r>   -17.1037     0.0000    96.0000 </r>
       <r>   -16.8981     0.0000    96.0000 </r>
       <r>   -16.6925     0.0000    96.0000 </r>
       <r>   -16.4869     0.0000    96.0000 </r>
       <r>   -16.2812     0.0000    96.0000 </r>
       <r>   -16.0756     0.0000    96.0000 </r>
       <r>   -15.8700     0.0000    96.0000 </r>
       <r>   -15.6644     0.0000    96.0000 </r>
       <r>   -15.4587     0.0000    96.0000 </r>
       <r>   -15.2531     0.0000    96.0000 </r>
       <r>   -15.0475     0.0000    96.0000 </r>
       <r>   -14.8418     0.0000    96.0000 </r>
       <r>   -14.6362     0.0000    96.0000 </r>
       <r>   -14.4306     0.0000    96.0000 </r>
       <r>   -14.2250     0.0000    96.0000 </r>
       <r>   -14.0193     0.0000    96.0000 </r>
       <r>   -13.8137     0.0000    96.0000 </r>
       <r>   -13.6081     0.0000    96.0000 </r>
       <r>   -13.4025     0.0000    96.0000 </r>
       <r>   -13.1968     0.0000    96.0000 </r>
       <r>   -12.9912     0.0000    96.0000 </r>
       <r>   -12.7856     0.0000    96.0000 </r>
       <r>   -12.5799     0.0000    96.0000 </r>
       <r>   -12.3743     0.0000    96.0000 </r>
       <r>   -12.1687     0.0000    96.0000 </r>
       <r>   -11.9631     0.0000    96.0000 </r>
       <r>   -11.7574     0.0000    96.0000 </r>
       <r>   -11.5518     0.0000    96.0000 </r>
       <r>   -11.3462     0.0000    96.0000 </r>
       <r>   -11.1406     0.0000    96.0000 </r>
       <r>   -10.9349     0.0000    96.0000 </r>
       <r>   -10.7293     0.0000    96.0000 </r>
       <r>   -10.5237     0.0000    96.0000 </r>
       <r>   -10.3181     0.0000    96.0000 </r>
       <r>   -10.1124     0.0000    96.0000 </r>
       <r>    -9.9068     0.0000    96.0000 </r>
       <r>    -9.7012     0.0000    96.0000 </r>
       <r>    -9.4955     0.0000    96.0000 </r>
       <r>    -9.2899     0.0000    96.0000 </r>
       <r>    -9.0843     0.0000    96.0000 </r>
       <r>    -8.8787     0.0000    96.0000 </r>
       <r>    -8.6730     0.0000    96.0000 </r>
       <r>    -8.4674     0.0000    96.0000 </r>
       <r>    -8.2618     0.0000    96.0000 </r>
       <r>    -8.0562     0.0000    96.0000 </r>
       <r>    -7.8505     0.0000    96.0000 </r>
       <r>    -7.6449     0.0000    96.0000 </r>
       <r>    -7.4393     0.0000    96.0000 </r>
       <r>    -7.2336     0.0000    96.0000 </r>
       <r>    -7.0280     0.0000    96.0000 </r>
       <r>    -6.8224     0.0000    96.0000 </r>
       <r>    -6.6168     0.0000    96.0000 </r>
       <r>    -6.4111     0.0000    96.0000 </r>
       <r>    -6.2055     0.0000    96.0000 </r>
       <r>    -5.9999     0.0000    96.0000 </r>
       <r>    -5.7943     0.0000    96.0000 </r>
       <r>    -5.5886     0.0000    96.0000 </r>
       <r>    -5.3830     0.0000    96.0000 </r>
       <r>    -5.1774     0.0000    96.0000 </r>
       <r>    -4.9718     0.0000    96.0000 </r>
       <r>    -4.7661     0.0000    96.0000 </r>
       <r>    -4.5605     0.0000    96.0000 </r>
       <r>    -4.3549     0.0000    96.0000 </r>
       <r>    -4.1492     0.0000    96.0000 </r>
       <r>    -3.9436     0.0000    96.0000 </r>
       <r>    -3.7380     0.0000    96.0000 </r>
       <r>    -3.5324     0.0000    96.0000 </r>
       <r>    -3.3267     0.0000    96.0000 </r>
       <r>    -3.1211     0.0000    96.0000 </r>
       <r>    -2.9155     0.0000    96.0000 </r>
       <r>    -2.7099     0.0000    96.0000 </r>
       <r>    -2.5042     0.0000    96.0000 </r>
       <r>    -2.2986     0.0000    96.0000 </r>
       <r>    -2.0930     0.0000    96.0000 </r>
       <r>    -1.8873     0.0000    96.0000 </r>
       <r>    -1.6817     0.0000    96.0000 </r>
       <r>    -1.4761    -0.0000    96.0000 </r>
       <r>    -1.2705    -0.0000    96.0000 </r>
       <r>    -1.0648    -0.0000    96.0000 </r>
       <r>    -0.8592    -0.0000    96.0000 </r>
       <r>    -0.6536    -0.0000    96.0000 </r>
       <r>    -0.4480    -0.0006    95.9999 </r>
       <r>    -0.2423    -0.0116    95.9975 </r>
       <r>    -0.0367     0.2304    96.0449 </r>
       <r>     0.1689     1.0092    96.2524 </r>
       <r>     0.3745     1.5733    96.5759 </r>
       <r>     0.5802     1.9484    96.9765 </r>
       <r>     0.7858     3.1456    97.6234 </r>
       <r>     0.9914     3.8844    98.4221 </r>
       <r>     1.1971     2.4348    98.9228 </r>
       <r>     1.4027     4.1130    99.7685 </r>
       <r>     1.6083     4.3301   100.6589 </r>
       <r>     1.8139     3.1232   101.3011 </r>
       <r>     2.0196     5.8193   102.4977 </r>
       <r>     2.2252     8.8198   104.3113 </r>
       <r>     2.4308     7.3241   105.8173 </r>
       <r>     2.6364     7.9236   107.4466 </r>
       <r>     2.8421     7.1143   108.9095 </r>
       <r>     3.0477    11.2814   111.2293 </r>
       <r>     3.2533    17.8664   114.9031 </r>
       <r>     3.4590    21.7028   119.3658 </r>
       <r>     3.6646    24.6039   124.4250 </r>
       <r>     3.8702    27.7587   130.1329 </r>
       <r>     4.0758    31.3119   136.5715 </r>
       <r>     4.2815    35.9519   143.9642 </r>
       <r>     4.4871    39.0725   151.9985 </r>
       <r>     4.6927    34.5558   159.1041 </r>
       <r>     4.8983    32.3498   165.7561 </r>
       <r>     5.1040    32.7850   172.4976 </r>
       <r>     5.3096    20.0123   176.6127 </r>
       <r>     5.5152    23.7609   181.4985 </r>
       <r>     5.7208    55.0202   192.8122 </r>
       <r>     5.9265    63.2760   205.8234 </r>
       <r>     6.1321    55.4644   217.2284 </r>
       <r>     6.3377    53.3594   228.2005 </r>
       <r>     6.5434    56.8784   239.8963 </r>
       <r>     6.7490    53.7699   250.9528 </r>
       <r>     6.9546    44.0797   260.0168 </r>
       <r>     7.1602    47.6482   269.8145 </r>
       <r>     7.3659    49.0403   279.8985 </r>
       <r>     7.5715    39.8776   288.0984 </r>
       <r>     7.7771    33.2866   294.9431 </r>
       <r>     7.9827    26.0198   300.2934 </r>
       <r>     8.1884    23.6099   305.1483 </r>
       <r>     8.3940    14.1936   308.0668 </r>
       <r>     8.5996    13.0546   310.7512 </r>
       <r>     8.8053     6.3223   312.0512 </r>
       <r>     9.0109    -0.2341   312.0031 </r>
       <r>     9.2165    -0.0151   312.0000 </r>
       <r>     9.4221    -0.0000   312.0000 </r>
       <r>     9.6278    -0.0000   312.0000 </r>
       <r>     9.8334     0.0000   312.0000 </r>
       <r>    10.0390     0.0000   312.0000 </r>
       <r>    10.2446     0.0000   312.0000 </r>
       <r>    10.4503     0.0000   312.0000 </r>
       <r>    10.6559     0.0000   312.0000 </r>
       <r>    10.8615     0.0000   312.0000 </r>
       <r>    11.0671     0.0000   312.0000 </r>
       <r>    11.2728     0.0000   312.0000 </r>
       <r>    11.4784     0.0000   312.0000 </r>
      </set>
     </set>
    </array>
   </total>
  </dos>
 </calculation>
 <structure name="finalpos" >
  <crystal>
   <varray name="basis" >
    <v>       6.97754590       0.01078405       0.00560667 </v>
    <v>       0.01651699      10.23489203       0.02436886 </v>
    <v>       0.00853562       0.02422843      10.27531126 </v>
   </varray>
   <i name="volume">    733.79904984 </i>
   <varray name="rec_basis" >
    <v>       0.14331732      -0.00023100      -0.00011851 </v>
    <v>      -0.00015082       0.09770578      -0.00023026 </v>
    <v>      -0.00007784      -0.00023159       0.09732126 </v>
   </varray>
  </crystal>
  <varray name="positions" >
   <v>       0.76387698       0.17558783       0.48792629 </v>
   <v>       0.22704971       0.16456218       0.16802537 </v>
   <v>       0.75883250       0.18639252       0.84495386 </v>
   <v>       0.24583822       0.16742653       0.83460283 </v>
   <v>       0.02200788       0.32666791       0.98627330 </v>
   <v>       0.74276455       0.83272651       0.19326027 </v>
   <v>       0.24395550       0.16468585       0.49738285 </v>
   <v>       0.02084527       0.32680427       0.34716523 </v>
   <v>       0.24274865       0.49811811       0.83236110 </v>
   <v>       0.25466318       0.83739336       0.17722668 </v>
   <v>       0.49235146       0.33060343       0.66838053 </v>
   <v>       0.25353028       0.49505330       0.49967564 </v>
   <v>       0.48511372       0.66448117       0.32078787 </v>
   <v>       0.47037335       0.63351773       0.66446216 </v>
   <v>       0.02294655       0.65574156       0.66260211 </v>
   <v>       0.00653377       0.99854207       0.33695703 </v>
   <v>       0.48143961       0.32347850       0.99981749 </v>
   <v>       0.76535198       0.49643737       0.16866353 </v>
   <v>       0.26922695       0.82894026       0.81865532 </v>
   <v>       0.74013960       0.82638595       0.50037666 </v>
   <v>       0.75203283       0.49807508       0.83352971 </v>
   <v>       0.22246778       0.49590866       0.16298842 </v>
   <v>       0.01517647       0.67717934       0.33829269 </v>
   <v>       0.48381864       0.32727385       0.32981904 </v>
   <v>       0.50134097       0.67453482       0.01664697 </v>
   <v>       0.52130297       0.03344909       0.67046976 </v>
   <v>       0.98702710       0.01072295       0.66848815 </v>
   <v>       0.72644510       0.81262021       0.80411525 </v>
   <v>       0.50408837       0.00017120       0.00234826 </v>
   <v>       0.74343176       0.50273840       0.49942326 </v>
   <v>       0.99662860       0.99185664      -0.00001099 </v>
   <v>       0.49822002       0.01125518       0.32648061 </v>
   <v>       0.26570385       0.83753217       0.50689147 </v>
   <v>       0.77930491       0.17735761       0.16667199 </v>
   <v>       0.98998985       0.68691091       0.00035097 </v>
   <v>       0.00343008       0.32888346       0.66393734 </v>
  </varray>
 </structure>
</modeling>
