 vasp.5.4.1 05Feb16 (build Jan 29 2020 16:04:39) complex                        
  
 executed on           IFC91_ompi date 2020.06.15  03:25:33
 running on  160 total cores
 distrk:  each k-point on   20 cores,    8 groups
 distr:  one band on NCORES_PER_BAND=   5 cores,    4 groups


--------------------------------------------------------------------------------------------------------


 INCAR:
 POTCAR:    PAW_PBE Ta 17Jan2003                  
 POTCAR:    PAW_PBE Nb_sv 25May2007               
 POTCAR:    PAW_PBE Hf 20Jan2003                  
 POTCAR:    PAW_PBE Zr_sv 04Jan2005               

 ----------------------------------------------------------------------------- 
|                                                                             |
|           W    W    AA    RRRRR   N    N  II  N    N   GGGG   !!!           |
|           W    W   A  A   R    R  NN   N  II  NN   N  G    G  !!!           |
|           W    W  A    A  R    R  N N  N  II  N N  N  G       !!!           |
|           W WW W  AAAAAA  RRRRR   N  N N  II  N  N N  G  GGG   !            |
|           WW  WW  A    A  R   R   N   NN  II  N   NN  G    G                |
|           W    W  A    A  R    R  N    N  II  N    N   GGGG   !!!           |
|                                                                             |
|      For optimal performance we recommend to set                            |
|        NCORE= 4 - approx SQRT( number of cores)                             |
|      NCORE specifies how many cores store one orbital (NPAR=cpu/NCORE).     |
|      This setting can  greatly improve the performance of VASP for DFT.     |
|      The default, NPAR=number of cores might be grossly inefficient         |
|      on modern multi-core architectures or massively parallel machines.     |
|      Do your own testing !!!!                                               |
|      Unfortunately you need to use the default for GW and RPA calculations. |
|      (for HF NCORE is supported but not extensively tested yet)             |
|                                                                             |
 ----------------------------------------------------------------------------- 


 ----------------------------------------------------------------------------- 
|                                                                             |
|           W    W    AA    RRRRR   N    N  II  N    N   GGGG   !!!           |
|           W    W   A  A   R    R  NN   N  II  NN   N  G    G  !!!           |
|           W    W  A    A  R    R  N N  N  II  N N  N  G       !!!           |
|           W WW W  AAAAAA  RRRRR   N  N N  II  N  N N  G  GGG   !            |
|           WW  WW  A    A  R   R   N   NN  II  N   NN  G    G                |
|           W    W  A    A  R    R  N    N  II  N    N   GGGG   !!!           |
|                                                                             |
|      You have enabled k-point parallelism (KPAR>1).                         |
|      This developmental code was originally  written by Paul Kent at ORNL,  |
|      and carefully double checked in Vienna.                                |
|      GW as well as linear response parallelism added by Martijn Marsman     |
|      and Georg Kresse.                                                      |
|      Carefully verify results versus KPAR=1.                                |
|      Report problems to Paul Kent and Vienna.                               |
|                                                                             |
 ----------------------------------------------------------------------------- 

 POTCAR:    PAW_PBE Ta 17Jan2003                  
   VRHFIN =Ta:  6s5d                                                            
   LEXCH  = PE                                                                  
   EATOM  =   130.6506 eV,    9.6025 Ry                                         
                                                                                
   TITEL  = PAW_PBE Ta 17Jan2003                                                
   LULTRA =        F    use ultrasoft PP ?                                      
   IUNSCR =        1    unscreen: 0-lin 1-nonlin 2-no                           
   RPACOR =    2.330    partial core radius                                     
   POMASS =  180.948; ZVAL   =    5.000    mass and valenz                      
   RCORE  =    2.900    outmost cutoff radius                                   
   RWIGS  =    2.840; RWIGS  =    1.503    wigner-seitz radius (au A)           
   ENMAX  =  223.667; ENMIN  =  167.750 eV                                      
   RCLOC  =    2.205    cutoff for local pot                                    
   LCOR   =        T    correct aug charges                                     
   LPAW   =        T    paw PP                                                  
   EAUG   =  332.075                                                            
   DEXC   =    0.000                                                            
   RMAX   =    2.970    core radius for proj-oper                               
   RAUG   =    1.300    factor for augmentation sphere                          
   RDEP   =    3.060    radius for radial grids                                 
   RDEPT  =    2.354    core radius for aug-charge                              
                                                                                
   Atomic configuration                                                         
   16 entries                                                                   
     n  l   j            E        occ.                                          
     1  0  0.50    -67341.2807   2.0000                                         
     2  0  0.50    -11566.9376   2.0000                                         
     2  1  1.50    -10134.1182   6.0000                                         
     3  0  0.50     -2648.5620   2.0000                                         
     3  1  1.50     -2222.6012   6.0000                                         
     3  2  2.50     -1726.3120  10.0000                                         
     4  0  0.50      -538.6961   2.0000                                         
     4  1  1.50      -399.0129   6.0000                                         
     4  2  2.50      -220.3959  10.0000                                         
     4  3  3.50       -23.0374  14.0000                                         
     5  0  0.50       -71.2901   2.0000                                         
     5  1  1.50       -37.8225   6.0000                                         
     5  2  2.50        -2.6455   4.0000                                         
     6  0  0.50        -4.9623   1.0000                                         
     6  1  1.50        -1.3606   0.0000                                         
     5  3  2.50        -1.3606   0.0000                                         
   Description                                                                  
     l       E           TYP  RCUT    TYP  RCUT                                 
     2     -2.6455043     23  2.500                                             
     2     -0.6258895     23  2.500                                             
     0     -4.9622780     23  2.500                                             
     0      4.7531321     23  2.500                                             
     1     -1.3605826     23  2.900                                             
     1     27.2116520     23  2.900                                             
  local pseudopotential read in
  partial core-charges read in
  partial kinetic energy density read in
  atomic valenz-charges read in
  non local Contribution for L=           2  read in
    real space projection operators read in
  non local Contribution for L=           2  read in
    real space projection operators read in
  non local Contribution for L=           0  read in
    real space projection operators read in
  non local Contribution for L=           0  read in
    real space projection operators read in
  non local Contribution for L=           1  read in
    real space projection operators read in
  non local Contribution for L=           1  read in
    real space projection operators read in
    PAW grid and wavefunctions read in
 
   number of l-projection  operators is LMAX  =           6
   number of lm-projection operators is LMMAX =          18
 
 POTCAR:    PAW_PBE Nb_sv 25May2007               
   VRHFIN =Nb: 4p5s4d                                                           
   LEXCH  = PE                                                                  
   EATOM  =  1555.1913 eV,  114.3033 Ry                                         
                                                                                
   TITEL  = PAW_PBE Nb_sv 25May2007                                             
   LULTRA =        F    use ultrasoft PP ?                                      
   IUNSCR =        1    unscreen: 0-lin 1-nonlin 2-no                           
   RPACOR =    1.800    partial core radius                                     
   POMASS =   92.910; ZVAL   =   13.000    mass and valenz                      
   RCORE  =    2.400    outmost cutoff radius                                   
   RWIGS  =    2.400; RWIGS  =    1.270    wigner-seitz radius (au A)           
   ENMAX  =  293.235; ENMIN  =  219.927 eV                                      
   ICORE  =        3    local potential                                         
   LCOR   =        T    correct aug charges                                     
   LPAW   =        T    paw PP                                                  
   EAUG   =  455.659                                                            
   DEXC   =    0.000                                                            
   RMAX   =    2.456    core radius for proj-oper                               
   RAUG   =    1.300    factor for augmentation sphere                          
   RDEP   =    2.451    radius for radial grids                                 
   RDEPT  =    1.956    core radius for aug-charge                              
                                                                                
   Atomic configuration                                                         
   11 entries                                                                   
     n  l   j            E        occ.                                          
     1  0  0.50    -18805.2457   2.0000                                         
     2  0  0.50     -2630.2869   2.0000                                         
     2  1  1.50     -2348.4046   6.0000                                         
     3  0  0.50      -438.8757   2.0000                                         
     3  1  1.50      -346.7588   6.0000                                         
     3  2  2.50      -196.2560  10.0000                                         
     4  0  0.50       -58.3859   2.0000                                         
     5  0  0.50        -3.9816   1.0000                                         
     4  1  1.50       -34.5141   6.0000                                         
     4  2  2.50        -3.0408   4.0000                                         
     4  3  2.50        -1.3606   0.0000                                         
   Description                                                                  
     l       E           TYP  RCUT    TYP  RCUT                                 
     0    -58.3859094     23  2.200                                             
     0     -3.9816262     23  2.200                                             
     1    -34.5140738     23  2.200                                             
     1     13.6058260     23  2.200                                             
     2     -3.0408010     23  2.200                                             
     2     -0.1283038     23  2.200                                             
     3     -1.3605826     23  2.400                                             
  local pseudopotential read in
  partial core-charges read in
  partial kinetic energy density read in
  atomic valenz-charges read in
  non local Contribution for L=           0  read in
    real space projection operators read in
  non local Contribution for L=           0  read in
    real space projection operators read in
  non local Contribution for L=           1  read in
    real space projection operators read in
  non local Contribution for L=           1  read in
    real space projection operators read in
  non local Contribution for L=           2  read in
    real space projection operators read in
  non local Contribution for L=           2  read in
    real space projection operators read in
    PAW grid and wavefunctions read in
 
   number of l-projection  operators is LMAX  =           6
   number of lm-projection operators is LMMAX =          18
 
 POTCAR:    PAW_PBE Hf 20Jan2003                  
   VRHFIN =Hf: 6s5d                                                             
   LEXCH  = PE                                                                  
   EATOM  =    75.9011 eV,    5.5786 Ry                                         
                                                                                
   TITEL  = PAW_PBE Hf 20Jan2003                                                
   LULTRA =        F    use ultrasoft PP ?                                      
   IUNSCR =        1    unscreen: 0-lin 1-nonlin 2-no                           
   RPACOR =    2.500    partial core radius                                     
   POMASS =  178.490; ZVAL   =    4.000    mass and valenz                      
   RCORE  =    3.000    outmost cutoff radius                                   
   RWIGS  =    3.050; RWIGS  =    1.614    wigner-seitz radius (au A)           
   ENMAX  =  220.334; ENMIN  =  165.250 eV                                      
   RCLOC  =    2.212    cutoff for local pot                                    
   LCOR   =        T    correct aug charges                                     
   LPAW   =        T    paw PP                                                  
   EAUG   =  335.116                                                            
   DEXC   =    0.000                                                            
   RMAX   =    3.077    core radius for proj-oper                               
   RAUG   =    1.300    factor for augmentation sphere                          
   RDEP   =    3.047    radius for radial grids                                 
   RDEPT  =    2.344    core radius for aug-charge                              
                                                                                
   Atomic configuration                                                         
   16 entries                                                                   
     n  l   j            E        occ.                                          
     1  0  0.50    -65259.4397   2.0000                                         
     2  0  0.50    -11157.9882   2.0000                                         
     2  1  1.50     -9795.2113   6.0000                                         
     3  0  0.50     -2541.4058   2.0000                                         
     3  1  1.50     -2134.4770   6.0000                                         
     3  2  2.50     -1653.5418  10.0000                                         
     4  0  0.50      -510.9575   2.0000                                         
     4  1  1.50      -377.5023   6.0000                                         
     4  2  2.50      -205.2085  10.0000                                         
     4  3  3.50       -15.4905  14.0000                                         
     5  0  0.50       -65.6020   2.0000                                         
     5  1  1.50       -34.2798   6.0000                                         
     5  2  2.50        -1.9877   3.0000                                         
     6  0  0.50        -4.7357   1.0000                                         
     6  1  1.50        -1.3606   0.0000                                         
     5  3  2.50        -1.3606   0.0000                                         
   Description                                                                  
     l       E           TYP  RCUT    TYP  RCUT                                 
     2     -1.9876627     23  2.500                                             
     2      0.0744703     23  2.500                                             
     0     -4.7356889     23  2.600                                             
     0      3.2364747     23  2.600                                             
     1     -1.3605826     23  3.000                                             
     1     27.2116520     23  3.000                                             
  local pseudopotential read in
  partial core-charges read in
  partial kinetic energy density read in
  atomic valenz-charges read in
  non local Contribution for L=           2  read in
    real space projection operators read in
  non local Contribution for L=           2  read in
    real space projection operators read in
  non local Contribution for L=           0  read in
    real space projection operators read in
  non local Contribution for L=           0  read in
    real space projection operators read in
  non local Contribution for L=           1  read in
    real space projection operators read in
  non local Contribution for L=           1  read in
    real space projection operators read in
    PAW grid and wavefunctions read in
 
   number of l-projection  operators is LMAX  =           6
   number of lm-projection operators is LMMAX =          18
 
 POTCAR:    PAW_PBE Zr_sv 04Jan2005               
   VRHFIN =Zr: 4s4p5s4d                                                         
   LEXCH  = PE                                                                  
   EATOM  =  1284.2219 eV,   94.3876 Ry                                         
                                                                                
   TITEL  = PAW_PBE Zr_sv 04Jan2005                                             
   LULTRA =        F    use ultrasoft PP ?                                      
   IUNSCR =        1    unscreen: 0-lin 1-nonlin 2-no                           
   RPACOR =    2.200    partial core radius                                     
   POMASS =   91.224; ZVAL   =   12.000    mass and valenz                      
   RCORE  =    2.500    outmost cutoff radius                                   
   RWIGS  =    3.070; RWIGS  =    1.625    wigner-seitz radius (au A)           
   ENMAX  =  229.898; ENMIN  =  172.424 eV                                      
   ICORE  =        3    local potential                                         
   LCOR   =        T    correct aug charges                                     
   LPAW   =        T    paw PP                                                  
   EAUG   =  461.257                                                            
   DEXC   =    0.000                                                            
   RMAX   =    2.561    core radius for proj-oper                               
   RAUG   =    1.300    factor for augmentation sphere                          
   RDEP   =    2.597    radius for radial grids                                 
   RDEPT  =    2.007    core radius for aug-charge                              
                                                                                
   Atomic configuration                                                         
   11 entries                                                                   
     n  l   j            E        occ.                                          
     1  0  0.50    -17820.0161   2.0000                                         
     2  0  0.50     -2467.0882   2.0000                                         
     2  1  1.50     -2199.6095   6.0000                                         
     3  0  0.50      -402.4863   2.0000                                         
     3  1  1.50      -315.3675   6.0000                                         
     3  2  2.50      -172.4472  10.0000                                         
     4  0  0.50       -52.4146   2.0000                                         
     5  0  0.50        -3.8421   1.0000                                         
     4  1  1.50       -30.5054   6.0000                                         
     4  2  2.50        -2.3341   3.0000                                         
     4  3  2.50        -1.3606   0.0000                                         
   Description                                                                  
     l       E           TYP  RCUT    TYP  RCUT                                 
     0    -52.4145962     23  2.200                                             
     0     -3.8421270     23  2.500                                             
     1    -30.5053914     23  2.200                                             
     1     20.4087390     23  2.200                                             
     2     -2.3340816     23  2.500                                             
     2     -0.6120942     23  2.500                                             
     3     -4.0817478     23  2.500                                             
  local pseudopotential read in
  partial core-charges read in
  partial kinetic energy density read in
  atomic valenz-charges read in
  non local Contribution for L=           0  read in
    real space projection operators read in
  non local Contribution for L=           0  read in
    real space projection operators read in
  non local Contribution for L=           1  read in
    real space projection operators read in
  non local Contribution for L=           1  read in
    real space projection operators read in
  non local Contribution for L=           2  read in
    real space projection operators read in
  non local Contribution for L=           2  read in
    real space projection operators read in
    PAW grid and wavefunctions read in
 
   number of l-projection  operators is LMAX  =           6
   number of lm-projection operators is LMMAX =          18
 
 Optimization of the real space projectors (new method)

 maximal supplied QI-value         = 12.85
 optimisation between [QCUT,QGAM] = [  8.87, 17.73] = [ 22.01, 88.06] Ry 
 Optimized for a Real-space Cutoff    1.90 Angstroem

   l    n(q)    QCUT    max X(q) W(low)/X(q) W(high)/X(q)  e(spline) 
   2      9     8.867    62.315    0.23E-03    0.62E-04    0.11E-05
   2      9     8.867    52.185    0.23E-03    0.62E-04    0.11E-05
   0     10     8.867   103.837    0.15E-04    0.23E-04    0.98E-07
   0     10     8.867    59.728    0.12E-04    0.21E-04    0.89E-07
   1     10     8.867    13.958    0.50E-04    0.22E-04    0.14E-06
   1     10     8.867     8.441    0.36E-04    0.19E-04    0.98E-07
 Optimization of the real space projectors (new method)

 maximal supplied QI-value         = 15.68
 optimisation between [QCUT,QGAM] = [  8.78, 17.72] = [ 21.60, 87.97] Ry 
 Optimized for a Real-space Cutoff    1.96 Angstroem

   l    n(q)    QCUT    max X(q) W(low)/X(q) W(high)/X(q)  e(spline) 
   0     10     8.783    10.201    0.29E-04    0.25E-05    0.69E-07
   0     10     8.783     8.174    0.45E-04    0.57E-05    0.14E-06
   1     10     8.783     3.488    0.76E-05    0.24E-04    0.95E-07
   1     10     8.783     4.917    0.78E-04    0.14E-03    0.46E-06
   2      9     8.783   153.744    0.22E-03    0.34E-04    0.15E-05
   2      9     8.783   126.342    0.22E-03    0.35E-04    0.15E-05
 Optimization of the real space projectors (new method)

 maximal supplied QI-value         = 12.47
 optimisation between [QCUT,QGAM] = [  8.86, 17.71] = [ 21.96, 87.83] Ry 
 Optimized for a Real-space Cutoff    1.90 Angstroem

   l    n(q)    QCUT    max X(q) W(low)/X(q) W(high)/X(q)  e(spline) 
   2      9     8.855    48.111    0.22E-03    0.80E-04    0.10E-05
   2      9     8.855    40.545    0.21E-03    0.76E-04    0.95E-06
   0     10     8.855   121.658    0.27E-04    0.12E-04    0.11E-06
   0     10     8.855    71.177    0.22E-04    0.11E-04    0.99E-07
   1     10     8.855    14.183    0.65E-04    0.10E-03    0.98E-07
   1     10     8.855     8.257    0.43E-04    0.73E-04    0.72E-07
 Optimization of the real space projectors (new method)

 maximal supplied QI-value         = 15.12
 optimisation between [QCUT,QGAM] = [  8.77, 17.69] = [ 21.53, 87.61] Ry 
 Optimized for a Real-space Cutoff    1.74 Angstroem

   l    n(q)    QCUT    max X(q) W(low)/X(q) W(high)/X(q)  e(spline) 
   0      9     8.768    12.107    0.28E-04    0.53E-06    0.29E-07
   0      9     8.768     9.948    0.36E-04    0.50E-05    0.64E-07
   1      9     8.768     3.563    0.14E-04    0.16E-04    0.88E-07
   1      9     8.768     4.524    0.21E-03    0.33E-03    0.19E-06
   2      8     8.768    87.261    0.19E-03    0.25E-03    0.24E-06
   2      8     8.768    70.950    0.19E-03    0.24E-03    0.24E-06
  PAW_PBE Ta 17Jan2003                  :
 energy of atom  1       EATOM= -130.6506
 kinetic energy error for atom=    0.0121 (will be added to EATOM!!)
  PAW_PBE Nb_sv 25May2007               :
 energy of atom  2       EATOM=-1555.1913
 kinetic energy error for atom=    0.0655 (will be added to EATOM!!)
  PAW_PBE Hf 20Jan2003                  :
 energy of atom  3       EATOM=  -75.9011
 kinetic energy error for atom=    0.0071 (will be added to EATOM!!)
  PAW_PBE Zr_sv 04Jan2005               :
 energy of atom  4       EATOM=-1284.2219
 kinetic energy error for atom=    0.0483 (will be added to EATOM!!)
 
 
 POSCAR: generated by pypospack                  
  positions in direct lattice
  No initial velocities read in
 exchange correlation table for  LEXCH =        8
   RHO(1)=    0.500       N(1)  =     2000
   RHO(2)=  100.500       N(2)  =     4000
 


--------------------------------------------------------------------------------------------------------


 ion  position               nearest neighbor table
   1  0.229  0.496  0.181-  15 2.79  32 2.87  20 2.87  28 2.91  21 2.95  22 2.95   4 2.97  35 3.07
                            29 3.13   2 3.22  23 3.36   5 3.51  29 3.71
   2  0.243  0.507  0.496-  16 2.82  19 2.85  15 2.85  20 2.89  28 2.92  21 2.94  24 2.95  34 2.99
                             1 3.22   3 3.34   6 3.34  25 3.34   6 3.49
   3  0.244  0.522  0.822-  16 2.67  19 2.73   4 2.90  32 2.92  35 2.95  24 3.05  34 3.06  22 3.08
                            10 3.15  27 3.31   2 3.34  27 3.53
   4  0.015  0.678  0.005-   5 2.85   3 2.90  10 2.91   7 2.92   1 2.97  27 2.99  29 3.02  36 3.03
                             8 3.11  35 3.25  32 3.48  35 3.59
   5  0.229  0.840  0.181-   8 2.77  12 2.80  15 2.83   4 2.85  33 2.93  11 2.94  28 2.97  35 3.04
                             7 3.14  25 3.30  23 3.32   1 3.51
   6  0.754  0.507  0.496-  20 2.85  15 2.88  16 2.90  19 2.91  21 2.92  28 2.93  24 2.98  34 3.00
                            30 3.31   2 3.34  29 3.37  27 3.48   2 3.49
   7  0.769  0.835  0.179-  12 2.78   8 2.78  15 2.82  11 2.91  33 2.91   4 2.92  28 2.98  35 3.08
                             5 3.14  30 3.31   9 3.40  29 3.50  36 3.66
   8  0.998  0.982  0.010-   5 2.77   7 2.78  36 2.97  10 2.98  26 3.00   9 3.00  31 3.02  23 3.04
                             4 3.11  12 3.30  33 3.38  33 3.45  32 3.63
   9  0.754  0.169  0.170-  12 2.85  11 2.91  20 2.95  21 2.98  33 2.98   8 3.00  22 3.08  32 3.18
                            17 3.27  29 3.29  23 3.33  26 3.35   7 3.40  23 3.50
  10  0.244  0.832  0.821-  16 2.86   4 2.91  19 2.92   8 2.98  14 3.01  35 3.04  18 3.04  33 3.09
                            31 3.15   3 3.15  25 3.24  36 3.35  36 3.48
  11  0.506  0.003  0.330-  17 2.82  13 2.88   9 2.91   7 2.91  23 2.91   5 2.94  30 3.00  25 3.04
                            33 3.22
  12  0.989  0.005  0.333-   7 2.78  17 2.80   5 2.80   9 2.85  23 2.87  13 2.89  30 2.97  25 3.02
                             8 3.30
  13  0.251  0.163  0.489-  20 2.86  18 2.88  11 2.88  14 2.88  12 2.89  21 2.91  24 2.95  34 2.98
                            23 3.17  25 3.34
  14  0.998  0.014  0.657-  31 2.79  17 2.86  13 2.88  26 2.92  25 2.93  30 2.96  10 3.01  36 3.01
                            24 3.23
  15  0.001  0.666  0.332-   1 2.79   7 2.82   5 2.83   2 2.85   6 2.88  29 2.91  30 2.96  25 2.98
                            28 3.38  28 3.45
  16  0.007  0.660  0.666-   3 2.67   2 2.82  10 2.86  27 2.88   6 2.90  36 2.93  25 2.94  30 2.98
                            24 3.35
  17  0.746  0.162  0.490-  12 2.80  11 2.82  20 2.84  18 2.86  14 2.86  21 2.89  34 2.99  24 3.00
                             9 3.27  30 3.37
  18  0.501  0.007  0.654-  31 2.81  17 2.86  13 2.88  25 2.90  30 2.91  26 3.01  36 3.02  10 3.04
                            34 3.33
  19  0.490  0.658  0.663-   3 2.73   2 2.85   6 2.91  10 2.92  25 2.95  27 2.98  36 3.00  30 3.00
                            34 3.30  28 3.43
  20  0.994  0.332  0.347-  17 2.84   6 2.85  13 2.86   1 2.87   2 2.89  29 2.89  23 2.94   9 2.95
                            24 3.17
  21  0.501  0.338  0.339-  17 2.89  13 2.91   6 2.92   2 2.94   1 2.95   9 2.98  23 2.98  29 3.00
                            34 3.27  28 3.31  22 3.44
  22  0.480  0.340  0.003-   1 2.95  23 3.01  29 3.02  32 3.05   3 3.08   9 3.08  27 3.09  26 3.09
                            31 3.11  35 3.36  21 3.44  34 3.51  33 3.61  32 3.79
  23  0.242  0.166  0.178-  12 2.87  11 2.91  20 2.94  32 2.97  21 2.98  22 3.01   8 3.04  33 3.04
                            13 3.17   5 3.32   9 3.33   1 3.36   9 3.50  31 3.57
  24  0.004  0.331  0.658-   2 2.95  13 2.95   6 2.98  17 3.00   3 3.05  27 3.05  26 3.09  31 3.12
                            20 3.17  14 3.23  16 3.35  34 3.37  32 3.38  34 3.46
  25  0.246  0.836  0.504-  18 2.90  14 2.93  16 2.94  19 2.95  15 2.98  12 3.02  28 3.04  11 3.04
                            10 3.24   5 3.30  13 3.34   2 3.34  30 3.38  30 3.46
  26  0.754  0.159  0.842-  14 2.92   8 3.00  18 3.01  32 3.03  33 3.04  22 3.09  24 3.09  34 3.12
                            36 3.33   9 3.35  31 3.42  31 3.43  27 3.56
  27  0.760  0.508  0.836-  16 2.88  19 2.98   4 2.99  32 3.00  35 3.03  24 3.05  22 3.09  34 3.10
                            36 3.31   3 3.31  29 3.38   6 3.48   3 3.53  26 3.56
  28  0.497  0.663  0.327-   1 2.91   2 2.92   6 2.93   5 2.97   7 2.98  29 3.03  30 3.04  25 3.04
                            35 3.25  21 3.31  15 3.38  19 3.43  15 3.45
  29  0.771  0.491  0.166-  20 2.89  15 2.91  21 3.00  32 3.00  22 3.02   4 3.02  28 3.03  35 3.10
                             1 3.13   9 3.29   6 3.37  27 3.38   7 3.50   1 3.71
  30  0.752  0.832  0.503-  18 2.91  14 2.96  15 2.96  12 2.97  16 2.98  11 3.00  19 3.00  28 3.04
                            36 3.25   6 3.31   7 3.31  17 3.37  25 3.38  25 3.46
  31  0.253  0.140  0.830-  14 2.79  18 2.81  32 2.96  33 3.00   8 3.02  22 3.11  24 3.12  34 3.13
                            10 3.15  26 3.42  26 3.43  23 3.57
  32  0.035  0.337  0.988-   1 2.87   3 2.92  31 2.96  23 2.97  27 3.00  29 3.00  26 3.03  22 3.05
                             9 3.18  24 3.38   4 3.48   8 3.63  22 3.79
  33  0.502  0.986  0.016-   7 2.91   5 2.93   9 2.98  31 3.00  23 3.04  26 3.04  36 3.04  10 3.09
                            11 3.22  35 3.22   8 3.38   8 3.45  22 3.61
  34  0.497  0.335  0.659-  13 2.98   2 2.99  17 2.99   6 3.00   3 3.06  27 3.10  26 3.12  31 3.13
                            21 3.27  19 3.30  18 3.33  24 3.37  24 3.46  22 3.51
  35  0.490  0.670  0.009-   3 2.95  27 3.03  10 3.04   5 3.04   1 3.07   7 3.08  29 3.10  36 3.11
                            33 3.22   4 3.25  28 3.25  22 3.36   4 3.59
  36  0.753  0.832  0.821-  16 2.93   8 2.97  19 3.00  14 3.01  18 3.02   4 3.03  33 3.04  35 3.11
                            30 3.25  27 3.31  26 3.33  10 3.35  10 3.48   7 3.66
 
  LATTYP: Found a triclinic cell.
 ALAT       =    10.1857821375
 B/A-ratio  =     1.4196389776
 C/A-ratio  =     0.6708731978
 COS(alpha) =     0.0020372718
 COS(beta)  =     0.0028972377
 COS(gamma) =     0.7078861602
  
  Lattice vectors:
  
 A1 = (  -0.0148551872, -10.1857399318,   0.0252807551)
 A2 = (  -0.0147454444, -10.2107363532,  10.2389502346)
 A3 = (  -6.8333611613,  -0.0098319590,   0.0000149649)


Analysis of symmetry for initial positions (statically):
=====================================================================
 Subroutine PRICEL returns:
 Original cell was already a primitive cell.
 

 Routine SETGRP: Setting up the symmetry group for a 
 triclinic supercell.


 Subroutine GETGRP returns: Found  1 space group operations
 (whereof  1 operations were pure point group operations)
 out of a pool of  2 trial point group operations.


The static configuration has the point symmetry C_1 .


Analysis of symmetry for dynamics (positions and initial velocities):
=====================================================================
 Subroutine PRICEL returns:
 Original cell was already a primitive cell.
 

 Routine SETGRP: Setting up the symmetry group for a 
 triclinic supercell.


 Subroutine GETGRP returns: Found  1 space group operations
 (whereof  1 operations were pure point group operations)
 out of a pool of  2 trial point group operations.


The dynamic configuration has the point symmetry C_1 .


 Subroutine INISYM returns: Found  1 space group operations
 (whereof  1 operations are pure point group operations),
 and found     1 'primitive' translations

 
 
 KPOINTS: k-points                                

Automatic generation of k-mesh.
Space group operators:
 irot       det(A)        alpha          n_x          n_y          n_z        tau_x        tau_y        tau_z
    1     1.000000     0.000000     1.000000     0.000000     0.000000     0.000000     0.000000     0.000000
 
 Subroutine IBZKPT returns following result:
 ===========================================
 
 Found     14 irreducible k-points:
 
 Following reciprocal coordinates:
            Coordinates               Weight
  0.000000  0.000000  0.000000      1.000000
  0.333333 -0.000000 -0.000000      2.000000
  0.000000  0.333333  0.000000      2.000000
  0.333333  0.333333  0.000000      2.000000
 -0.333333  0.333333 -0.000000      2.000000
  0.000000 -0.000000  0.333333      2.000000
  0.333333 -0.000000  0.333333      2.000000
 -0.333333  0.000000  0.333333      2.000000
 -0.000000  0.333333  0.333333      2.000000
  0.333333  0.333333  0.333333      2.000000
 -0.333333  0.333333  0.333333      2.000000
 -0.000000 -0.333333  0.333333      2.000000
  0.333333 -0.333333  0.333333      2.000000
 -0.333333 -0.333333  0.333333      2.000000
 
 Following cartesian coordinates:
            Coordinates               Weight
  0.000000  0.000000  0.000000      1.000000
  0.243332 -0.000355 -0.000003      2.000000
 -0.000235  0.163246  0.000400      2.000000
  0.243097  0.162891  0.000396      2.000000
 -0.243567  0.163601  0.000403      2.000000
 -0.000000  0.000404  0.162799      2.000000
  0.243331  0.000049  0.162796      2.000000
 -0.243332  0.000759  0.162803      2.000000
 -0.000235  0.163650  0.163199      2.000000
  0.243097  0.163295  0.163196      2.000000
 -0.243567  0.164005  0.163202      2.000000
  0.000235 -0.162842  0.162400      2.000000
  0.243566 -0.163197  0.162396      2.000000
 -0.243097 -0.162487  0.162403      2.000000
 


--------------------------------------------------------------------------------------------------------




 Dimension of arrays:
   k-points           NKPTS =     14   k-points in BZ     NKDIM =     14   number of bands    NBANDS=    180
   number of dos      NEDOS =    301   number of ions     NIONS =     36
   non local maximal  LDIM  =      6   non local SUM 2l+1 LMDIM =     18
   total plane-waves  NPLWV = 144000
   max r-space proj   IRMAX =   6444   max aug-charges    IRDMAX=  13987
   dimension x,y,z NGX =    40 NGY =   60 NGZ =   60
   dimension x,y,z NGXF=    80 NGYF=  120 NGZF=  120
   support grid    NGXF=    80 NGYF=  120 NGZF=  120
   ions per type =              10  11   9   6
 NGX,Y,Z   is equivalent  to a cutoff of   9.73,  9.79,  9.77 a.u.
 NGXF,Y,Z  is equivalent  to a cutoff of  19.46, 19.59, 19.53 a.u.


 I would recommend the setting:
   dimension x,y,z NGX =    39 NGY =   58 NGZ =   58
 SYSTEM =  automatically generated by mexm         
 POSCAR =  generated by pypospack                  

 Startparameter for this run:
   NWRITE =      2    write-flag & timer
   PREC   = accura    normal or accurate (medium, high low for compatibility)
   ISTART =      0    job   : 0-new  1-cont  2-samecut
   ICHARG =      2    charge: 1-file 2-atom 10-const
   ISPIN  =      1    spin polarized calculation?
   LNONCOLLINEAR =      F non collinear calculations
   LSORBIT =      F    spin-orbit coupling
   INIWAV =      1    electr: 0-lowe 1-rand  2-diag
   LASPH  =      F    aspherical Exc in radial PAW
   METAGGA=      F    non-selfconsistent MetaGGA calc.

 Electronic Relaxation 1
   ENCUT  =  300.0 eV  22.05 Ry    4.70 a.u.   9.65 14.39 14.42*2*pi/ulx,y,z
   ENINI  =  300.0     initial cutoff
   ENAUG  =  461.3 eV  augmentation charge cutoff
   NELM   =     70;   NELMIN=  2; NELMDL= -5     # of ELM steps 
   EDIFF  = 0.1E-04   stopping-criterion for ELM
   LREAL  =      T    real-space projection
   NLSPLINE    = F    spline interpolate recip. space projectors
   LCOMPAT=      F    compatible to vasp.4.4
   GGA_COMPAT  = T    GGA compatible to vasp.4.4-vasp.4.6
   LMAXPAW     = -100 max onsite density
   LMAXMIX     =    2 max onsite mixed and CHGCAR
   VOSKOWN=      0    Vosko Wilk Nusair interpolation
   ROPT   =   -0.00025  -0.00025  -0.00025  -0.00025
 Ionic relaxation
   EDIFFG = -.1E-01   stopping-criterion for IOM
   NSW    =    300    number of steps for IOM
   NBLOCK =      1;   KBLOCK =    300    inner block; outer block 
   IBRION =      2    ionic relax: 0-MD 1-quasi-New 2-CG
   NFREE  =      1    steps in history (QN), initial steepest desc. (CG)
   ISIF   =      3    stress and relaxation
   IWAVPR =     11    prediction:  0-non 1-charg 2-wave 3-comb
   ISYM   =      1    0-nonsym 1-usesym 2-fastsym
   LCORR  =      T    Harris-Foulkes like correction to forces

   POTIM  = 0.1500    time-step for ionic-motion
   TEIN   =    0.0    initial temperature
   TEBEG  =    0.0;   TEEND  =   0.0 temperature during run
   SMASS  =  -3.00    Nose mass-parameter (am)
   estimated Nose-frequenzy (Omega)   =  0.10E-29 period in steps =****** mass=  -0.107E-26a.u.
   SCALEE = 1.0000    scale energy and forces
   NPACO  =    256;   APACO  = 16.0  distance and # of slots for P.C.
   PSTRESS=    0.0 pullay stress

  Mass of Ions in am
   POMASS = 180.95 92.91178.49 91.22
  Ionic Valenz
   ZVAL   =   5.00 13.00  4.00 12.00
  Atomic Wigner-Seitz radii
   RWIGS  =  -1.00 -1.00 -1.00 -1.00
  virtual crystal weights 
   VCA    =   1.00  1.00  1.00  1.00
   NELECT =     301.0000    total number of electrons
   NUPDOWN=      -1.0000    fix difference up-down

 DOS related values:
   EMIN   =  10.00;   EMAX   =-10.00  energy-range for DOS
   EFERMI =   0.00
   ISMEAR =     1;   SIGMA  =   0.15  broadening in eV -4-tet -1-fermi 0-gaus

 Electronic relaxation 2 (details)
   IALGO  =     68    algorithm
   LDIAG  =      T    sub-space diagonalisation (order eigenvalues)
   LSUBROT=      F    optimize rotation matrix (better conditioning)
   TURBO    =      0    0=normal 1=particle mesh
   IRESTART =      0    0=no restart 2=restart with 2 vectors
   NREBOOT  =      0    no. of reboots
   NMIN     =      0    reboot dimension
   EREF     =   0.00    reference energy to select bands
   IMIX   =      4    mixing-type and parameters
     AMIX     =   0.40;   BMIX     =  1.00
     AMIX_MAG =   1.60;   BMIX_MAG =  1.00
     AMIN     =   0.10
     WC   =   100.;   INIMIX=   1;  MIXPRE=   1;  MAXMIX= -45

 Intra band minimization:
   WEIMIN = 0.0010     energy-eigenvalue tresh-hold
   EBREAK =  0.14E-07  absolut break condition
   DEPER  =   0.30     relativ break condition  

   TIME   =   0.40     timestep for ELM

  volume/ion in A,a.u.               =      19.75       133.26
  Fermi-wavevector in a.u.,A,eV,Ry     =   1.229311  2.323062 20.561215  1.511207
  Thomas-Fermi vector in A             =   2.364204
 
 Write flags
   LWAVE  =      F    write WAVECAR
   LCHARG =      F    write CHGCAR
   LVTOT  =      F    write LOCPOT, total local potential
   LVHAR  =      F    write LOCPOT, Hartree potential only
   LELF   =      F    write electronic localiz. function (ELF)
   LORBIT =      0    0 simple, 1 ext, 2 COOP (PROOUT)


 Dipole corrections
   LMONO  =      F    monopole corrections only (constant potential shift)
   LDIPOL =      F    correct potential (dipole corrections)
   IDIPOL =      0    1-x, 2-y, 3-z, 4-all directions 
   EPSILON=  1.0000000 bulk dielectric constant

 Exchange correlation treatment:
   GGA     =    --    GGA type
   LEXCH   =     8    internal setting for exchange type
   VOSKOWN=      0    Vosko Wilk Nusair interpolation
   LHFCALC =     F    Hartree Fock is set to
   LHFONE  =     F    Hartree Fock one center treatment
   AEXX    =    0.0000 exact exchange contribution

 Linear response parameters
   LEPSILON=     F    determine dielectric tensor
   LRPA    =     F    only Hartree local field effects (RPA)
   LNABLA  =     F    use nabla operator in PAW spheres
   LVEL    =     F    velocity operator in full k-point grid
   LINTERFAST=   F  fast interpolation
   KINTER  =     0    interpolate to denser k-point grid
   CSHIFT  =0.1000    complex shift for real part using Kramers Kronig
   OMEGAMAX=  -1.0    maximum frequency
   DEG_THRESHOLD= 0.2000000E-02 threshold for treating states as degnerate
   RTIME   =    0.100 relaxation time in fs

 Orbital magnetization related:
   ORBITALMAG=     F  switch on orbital magnetization
   LCHIMAG   =     F  perturbation theory with respect to B field
   DQ        =  0.001000  dq finite difference perturbation B field



--------------------------------------------------------------------------------------------------------


 conjugate gradient relaxation of ions
 charge density and potential will be updated during run
 non-spin polarized calculation
 RMM-DIIS sequential band-by-band and
  variant of blocked Davidson during initial phase
 perform sub-space diagonalisation
    before iterative eigenvector-optimisation
 modified Broyden-mixing scheme, WC =      100.0
 initial mixing is a Kerker type mixing with AMIX =  0.4000 and BMIX =      1.0000
 Hartree-type preconditioning will be used
 using additional bands           29
 real space projection scheme for non local part
 use partial core corrections
 calculate Harris-corrections to forces 
   (improved forces if not selfconsistent)
 use gradient corrections 
 use of overlap-Matrix (Vanderbilt PP)
 Methfessel and Paxton  Order N= 1 SIGMA  =   0.15


--------------------------------------------------------------------------------------------------------


  energy-cutoff  :      300.00
  volume of cell :      710.89
      direct lattice vectors                 reciprocal lattice vectors
     6.833361161  0.009831959 -0.000014965     0.146341175 -0.000213434 -0.000002095
     0.014855187 10.185739932 -0.025280755    -0.000141259  0.098177273  0.000240276
     0.000109743 -0.024996421 10.213669480    -0.000000135  0.000243007  0.097908599

  length of vectors
     6.833368234 10.185782137 10.213700068     0.146341330  0.098177669  0.097908901


 
 k-points in units of 2pi/SCALE and weight: k-points                                
   0.00000000  0.00000000  0.00000000       0.037
   0.24333171 -0.00035489 -0.00000348       0.074
  -0.00023488  0.16324622  0.00039952       0.074
   0.24309683  0.16289133  0.00039604       0.074
  -0.24356660  0.16360112  0.00040301       0.074
  -0.00000022  0.00040406  0.16279948       0.074
   0.24333149  0.00004917  0.16279600       0.074
  -0.24333194  0.00075896  0.16280297       0.074
  -0.00023511  0.16365029  0.16319901       0.074
   0.24309661  0.16329540  0.16319552       0.074
  -0.24356682  0.16400518  0.16320249       0.074
   0.00023466 -0.16284216  0.16239996       0.074
   0.24356637 -0.16319705  0.16239648       0.074
  -0.24309706 -0.16248727  0.16240344       0.074
 
 k-points in reciprocal lattice and weights: k-points                                
   0.00000000  0.00000000  0.00000000       0.037
   0.33333333 -0.00000000 -0.00000000       0.074
   0.00000000  0.33333333  0.00000000       0.074
   0.33333333  0.33333333  0.00000000       0.074
  -0.33333333  0.33333333 -0.00000000       0.074
   0.00000000 -0.00000000  0.33333333       0.074
   0.33333333 -0.00000000  0.33333333       0.074
  -0.33333333  0.00000000  0.33333333       0.074
  -0.00000000  0.33333333  0.33333333       0.074
   0.33333333  0.33333333  0.33333333       0.074
  -0.33333333  0.33333333  0.33333333       0.074
  -0.00000000 -0.33333333  0.33333333       0.074
   0.33333333 -0.33333333  0.33333333       0.074
  -0.33333333 -0.33333333  0.33333333       0.074
 
 position of ions in fractional coordinates (direct lattice) 
   0.22873800  0.49556400  0.18057300
   0.24302500  0.50739600  0.49572700
   0.24388300  0.52221600  0.82234000
   0.01488100  0.67763100  0.00480000
   0.22889100  0.84019600  0.18121500
   0.75391300  0.50695500  0.49586800
   0.76897300  0.83500100  0.17922800
   0.99766900  0.98235400  0.01020400
   0.75403200  0.16885100  0.17000700
   0.24351600  0.83176100  0.82113600
   0.50644600  0.00257700  0.33012900
   0.98894300  0.00488900  0.33291400
   0.25133600  0.16286800  0.48868500
   0.99846300  0.01371000  0.65720800
   0.00148700  0.66551800  0.33200200
   0.00749800  0.65969300  0.66585400
   0.74602300  0.16236300  0.48981600
   0.50065300  0.00734900  0.65387800
   0.49042400  0.65817800  0.66293700
   0.99442100  0.33223800  0.34699700
   0.50135900  0.33758400  0.33907700
   0.48021300  0.34013100  0.00276000
   0.24159500  0.16618400  0.17830600
   0.00395600  0.33087700  0.65775300
   0.24591000  0.83557500  0.50379400
   0.75358300  0.15894000  0.84170500
   0.75992000  0.50818600  0.83614900
   0.49665700  0.66266100  0.32683100
   0.77109300  0.49140600  0.16641000
   0.75203500  0.83165400  0.50330300
   0.25335200  0.14040400  0.82962400
   0.03483100  0.33676600  0.98764400
   0.50243000  0.98580800  0.01572000
   0.49714900  0.33464900  0.65935700
   0.48962100  0.66952500  0.00860200
   0.75308000  0.83234500  0.82145100
 
 position of ions in cartesian coordinates  (Angst):
   1.57043088  5.04542129  1.83178128
   1.66826946  5.15820171  5.05036074
   1.67438848  5.30099865  8.38590330
   0.11175411  6.90219946  0.03189437
   1.57659603  8.55573867  1.82962590
   5.15934514  5.15872930  5.05180437
   5.26709400  8.50818348  1.80945459
   6.83202677 10.01555634  0.07937070
   5.15509995  1.72303642  1.73211534
   1.67647886  8.45397001  8.36578051
   3.46080294  0.02297596  3.37175576
   6.75791385  0.05119967  3.40013516
   1.71994273  1.64918684  4.98714588
   6.82313407  0.13303549  6.71214375
   0.02008404  6.77050903  3.37413387
   0.06110948  6.70289109  6.78413503
   5.10031028  1.64887851  4.99870291
   3.42132369  0.06343279  6.67830049
   3.36109442  6.69228071  6.75437283
   6.80021138  3.38519329  3.53569856
   3.43101920  3.43499646  3.45467852
   3.28652188  3.46913835  0.01958377
   1.65339415  1.69062535  1.81695368
   0.03202020  3.35382450  6.70970686
   1.69285975  8.50077437  5.12445775
   5.15195826  1.60529109  8.59286727
   5.20044877  5.16282120  8.52729082
   3.40371647  6.74640611  3.32138381
   5.27647515  5.00875542  1.68722208
   5.15133637  8.46582456  5.11953439
   1.73342249  1.41187194  8.46995202
   0.24312391  3.40586579 10.07895516
   3.44793174 10.04573084  0.13562939
   3.40224230  3.39705407  6.72598685
   3.35570399  6.82420644  0.07092456
   5.15852241  8.46492062  8.36897543
 


--------------------------------------------------------------------------------------------------------


 k-point  1 :   0.0000 0.0000 0.0000  plane waves:    8443
 k-point  2 :   0.3333-0.0000-0.0000  plane waves:    8385
 k-point  3 :   0.0000 0.3333 0.0000  plane waves:    8396
 k-point  4 :   0.3333 0.3333 0.0000  plane waves:    8376
 k-point  5 :  -0.3333 0.3333-0.0000  plane waves:    8374
 k-point  6 :   0.0000-0.0000 0.3333  plane waves:    8389
 k-point  7 :   0.3333-0.0000 0.3333  plane waves:    8382
 k-point  8 :  -0.3333 0.0000 0.3333  plane waves:    8377
 k-point  9 :  -0.0000 0.3333 0.3333  plane waves:    8375
 k-point 10 :   0.3333 0.3333 0.3333  plane waves:    8376
 k-point 11 :  -0.3333 0.3333 0.3333  plane waves:    8381
 k-point 12 :  -0.0000-0.3333 0.3333  plane waves:    8382
 k-point 13 :   0.3333-0.3333 0.3333  plane waves:    8378
 k-point 14 :  -0.3333-0.3333 0.3333  plane waves:    8377

 maximum and minimum number of plane-waves per node :      1713     1652

 maximum number of plane-waves:      8443
 maximum index in each direction: 
   IXMAX=    9   IYMAX=   14   IZMAX=   14
   IXMIN=   -9   IYMIN=  -14   IZMIN=  -14

 NGX is ok and might be reduce to  38
 NGY is ok and might be reduce to  58
 NGZ is ok and might be reduce to  58

 real space projection operators:
  total allocation   :      28438.73 KBytes
  max/ min on nodes  :       5717.81       5661.28


 parallel 3D FFT for wavefunctions:
    minimum data exchange during FFTs selected (reduces bandwidth)
 parallel 3D FFT for charge:
    minimum data exchange during FFTs selected (reduces bandwidth)


 total amount of memory used by VASP on root node    67830. kBytes
========================================================================

   base      :      30000. kBytes
   nonlr-proj:      10905. kBytes
   fftplans  :       2814. kBytes
   grid      :       5360. kBytes
   one-center:        124. kBytes
   wavefun   :      18627. kBytes
 
     INWAV:  cpu time    0.0000: real time    0.0000
 Broyden mixing: mesh for mixing (old mesh)
   NGX = 19   NGY = 29   NGZ = 29
  (NGX  = 80   NGY  =120   NGZ  =120)
  gives a total of  15979 points

 initial charge density was supplied:
 charge density of overlapping atoms calculated
 number of electron     301.0000000 magnetization 
 keeping initial charge density in first step


--------------------------------------------------------------------------------------------------------


 Maximum index for non-local projection operator         1266
 Maximum index for augmentation-charges          685 (set IRDMAX)


--------------------------------------------------------------------------------------------------------


 First call to EWALD:  gamma=   0.199
 Maximum number of real-space cells 3x 2x 2
 Maximum number of reciprocal cells 2x 3x 3

 FEWALD executed in parallel
    FEWALD:  cpu time    0.0452: real time    0.0454


----------------------------------------- Iteration    1(   1)  ---------------------------------------


    POTLOK:  cpu time    0.0517: real time    0.0653
    SETDIJ:  cpu time    0.0425: real time    0.0426
     EDDAV:  cpu time    1.1746: real time    1.1808
       DOS:  cpu time    0.0016: real time    0.0016
    --------------------------------------------
      LOOP:  cpu time    1.2787: real time    1.5291

 eigenvalue-minimisations  :  5624
 total energy-change (2. order) : 0.1958836E+04  (-0.1146464E+05)
 number of electron     301.0000000 magnetization 
 augmentation part      301.0000000 magnetization 

 Free energy of the ion-electron system (eV)
  ---------------------------------------------------
  alpha Z        PSCENC =      1599.43516984
  Ewald energy   TEWEN  =    -20313.10712696
  -Hartree energ DENC   =     -7396.44555339
  -exchange      EXHF   =         0.00000000
  -V(xc)+E(xc)   XCENC  =      -219.25846505
  PAW double counting   =     22600.88007111   -21008.65716581
  entropy T*S    EENTRO =         0.00681468
  eigenvalues    EBANDS =      -104.87452714
  atomic energy  EATOM  =     26800.85653297
  Solvation  Ediel_sol  =         0.00000000
  ---------------------------------------------------
  free energy    TOTEN  =      1958.83575025 eV

  energy without entropy =     1958.82893557  energy(sigma->0) =     1958.83347869


--------------------------------------------------------------------------------------------------------




----------------------------------------- Iteration    1(   2)  ---------------------------------------


     EDDAV:  cpu time    1.0581: real time    1.1933
       DOS:  cpu time    0.0014: real time    0.0014
    --------------------------------------------
      LOOP:  cpu time    1.0604: real time    1.4196

 eigenvalue-minimisations  :  5812
 total energy-change (2. order) :-0.2052375E+04  (-0.1985470E+04)
 number of electron     301.0000000 magnetization 
 augmentation part      301.0000000 magnetization 

 Free energy of the ion-electron system (eV)
  ---------------------------------------------------
  alpha Z        PSCENC =      1599.43516984
  Ewald energy   TEWEN  =    -20313.10712696
  -Hartree energ DENC   =     -7396.44555339
  -exchange      EXHF   =         0.00000000
  -V(xc)+E(xc)   XCENC  =      -219.25846505
  PAW double counting   =     22600.88007111   -21008.65716581
  entropy T*S    EENTRO =         0.00228073
  eigenvalues    EBANDS =     -2157.24491649
  atomic energy  EATOM  =     26800.85653297
  Solvation  Ediel_sol  =         0.00000000
  ---------------------------------------------------
  free energy    TOTEN  =       -93.53917305 eV

  energy without entropy =      -93.54145377  energy(sigma->0) =      -93.53993329


--------------------------------------------------------------------------------------------------------




----------------------------------------- Iteration    1(   3)  ---------------------------------------


     EDDAV:  cpu time    1.7073: real time    1.8440
       DOS:  cpu time    0.0015: real time    0.0015
    --------------------------------------------
      LOOP:  cpu time    1.7093: real time    1.8709

 eigenvalue-minimisations  :  8688
 total energy-change (2. order) :-0.2571835E+03  (-0.2442557E+03)
 number of electron     301.0000000 magnetization 
 augmentation part      301.0000000 magnetization 

 Free energy of the ion-electron system (eV)
  ---------------------------------------------------
  alpha Z        PSCENC =      1599.43516984
  Ewald energy   TEWEN  =    -20313.10712696
  -Hartree energ DENC   =     -7396.44555339
  -exchange      EXHF   =         0.00000000
  -V(xc)+E(xc)   XCENC  =      -219.25846505
  PAW double counting   =     22600.88007111   -21008.65716581
  entropy T*S    EENTRO =         0.00590757
  eigenvalues    EBANDS =     -2414.43205519
  atomic energy  EATOM  =     26800.85653297
  Solvation  Ediel_sol  =         0.00000000
  ---------------------------------------------------
  free energy    TOTEN  =      -350.72268491 eV

  energy without entropy =     -350.72859248  energy(sigma->0) =     -350.72465410


--------------------------------------------------------------------------------------------------------




----------------------------------------- Iteration    1(   4)  ---------------------------------------


     EDDAV:  cpu time    1.4926: real time    1.5004
       DOS:  cpu time    0.0013: real time    0.0013
    --------------------------------------------
      LOOP:  cpu time    1.4946: real time    1.5270

 eigenvalue-minimisations  :  8400
 total energy-change (2. order) :-0.2995205E+02  (-0.2839321E+02)
 number of electron     301.0000000 magnetization 
 augmentation part      301.0000000 magnetization 

 Free energy of the ion-electron system (eV)
  ---------------------------------------------------
  alpha Z        PSCENC =      1599.43516984
  Ewald energy   TEWEN  =    -20313.10712696
  -Hartree energ DENC   =     -7396.44555339
  -exchange      EXHF   =         0.00000000
  -V(xc)+E(xc)   XCENC  =      -219.25846505
  PAW double counting   =     22600.88007111   -21008.65716581
  entropy T*S    EENTRO =         0.01416644
  eigenvalues    EBANDS =     -2444.39236901
  atomic energy  EATOM  =     26800.85653297
  Solvation  Ediel_sol  =         0.00000000
  ---------------------------------------------------
  free energy    TOTEN  =      -380.67473986 eV

  energy without entropy =     -380.68890630  energy(sigma->0) =     -380.67946201


--------------------------------------------------------------------------------------------------------




----------------------------------------- Iteration    1(   5)  ---------------------------------------


     EDDAV:  cpu time    1.4942: real time    1.5000
       DOS:  cpu time    0.0013: real time    0.0013
    CHARGE:  cpu time    0.0310: real time    0.0312
    MIXING:  cpu time    0.0014: real time    0.0014
    --------------------------------------------
      LOOP:  cpu time    1.5284: real time    1.5618

 eigenvalue-minimisations  :  8176
 total energy-change (2. order) :-0.2938742E+01  (-0.2872502E+01)
 number of electron     301.0000009 magnetization 
 augmentation part       19.5811059 magnetization 

 Broyden mixing:
  rms(total) = 0.63786E+01    rms(broyden)= 0.63781E+01
  rms(prec ) = 0.66644E+01
  weight for this iteration     100.00

 Free energy of the ion-electron system (eV)
  ---------------------------------------------------
  alpha Z        PSCENC =      1599.43516984
  Ewald energy   TEWEN  =    -20313.10712696
  -Hartree energ DENC   =     -7396.44555339
  -exchange      EXHF   =         0.00000000
  -V(xc)+E(xc)   XCENC  =      -219.25846505
  PAW double counting   =     22600.88007111   -21008.65716581
  entropy T*S    EENTRO =         0.01232402
  eigenvalues    EBANDS =     -2447.32926852
  atomic energy  EATOM  =     26800.85653297
  Solvation  Ediel_sol  =         0.00000000
  ---------------------------------------------------
  free energy    TOTEN  =      -383.61348179 eV

  energy without entropy =     -383.62580581  energy(sigma->0) =     -383.61758980


--------------------------------------------------------------------------------------------------------




----------------------------------------- Iteration    1(   6)  ---------------------------------------


    POTLOK:  cpu time    0.0303: real time    0.0315
    SETDIJ:  cpu time    0.0037: real time    0.0037
    EDDIAG:  cpu time    0.0785: real time    0.0791
  RMM-DIIS:  cpu time    0.7327: real time    0.7355
    ORTHCH:  cpu time    0.0127: real time    0.0127
       DOS:  cpu time    0.0009: real time    0.0009
    CHARGE:  cpu time    0.0318: real time    0.0319
    MIXING:  cpu time    0.0014: real time    0.0022
    --------------------------------------------
      LOOP:  cpu time    0.8925: real time    0.9221

 eigenvalue-minimisations  :  6994
 total energy-change (2. order) : 0.1052223E+02  (-0.2458675E+01)
 number of electron     301.0000009 magnetization 
 augmentation part       20.3680784 magnetization 

 Broyden mixing:
  rms(total) = 0.30804E+01    rms(broyden)= 0.30803E+01
  rms(prec ) = 0.33858E+01
  weight for this iteration     100.00

 eigenvalues of (default mixing * dielectric matrix)
  average eigenvalue GAMMA=   1.8350
  1.8350

 Free energy of the ion-electron system (eV)
  ---------------------------------------------------
  alpha Z        PSCENC =      1599.43516984
  Ewald energy   TEWEN  =    -20313.10712696
  -Hartree energ DENC   =     -7231.35219555
  -exchange      EXHF   =         0.00000000
  -V(xc)+E(xc)   XCENC  =      -222.90056789
  PAW double counting   =     27939.67192209   -26353.87818950
  entropy T*S    EENTRO =         0.01452253
  eigenvalues    EBANDS =     -2591.83132184
  atomic energy  EATOM  =     26800.85653297
  Solvation  Ediel_sol  =         0.00000000
  ---------------------------------------------------
  free energy    TOTEN  =      -373.09125430 eV

  energy without entropy =     -373.10577683  energy(sigma->0) =     -373.09609515


--------------------------------------------------------------------------------------------------------




----------------------------------------- Iteration    1(   7)  ---------------------------------------


    POTLOK:  cpu time    0.0293: real time    0.0294
    SETDIJ:  cpu time    0.0037: real time    0.0037
    EDDIAG:  cpu time    0.0771: real time    0.0774
  RMM-DIIS:  cpu time    0.8779: real time    0.8814
    ORTHCH:  cpu time    0.0219: real time    0.0220
       DOS:  cpu time    0.0179: real time    0.0179
    CHARGE:  cpu time    0.0500: real time    0.0501
    MIXING:  cpu time    0.0027: real time    0.0027
    --------------------------------------------
      LOOP:  cpu time    1.0811: real time    1.1089

 eigenvalue-minimisations  :  7593
 total energy-change (2. order) :-0.2084972E+01  (-0.3082442E+01)
 number of electron     301.0000010 magnetization 
 augmentation part       20.8340079 magnetization 

 Broyden mixing:
  rms(total) = 0.11803E+01    rms(broyden)= 0.11798E+01
  rms(prec ) = 0.33156E+01
  weight for this iteration     100.00

 eigenvalues of (default mixing * dielectric matrix)
  average eigenvalue GAMMA=   1.1679
  1.8175  0.5183

 Free energy of the ion-electron system (eV)
  ---------------------------------------------------
  alpha Z        PSCENC =      1599.43516984
  Ewald energy   TEWEN  =    -20313.10712696
  -Hartree energ DENC   =     -7121.54325765
  -exchange      EXHF   =         0.00000000
  -V(xc)+E(xc)   XCENC  =      -223.07467030
  PAW double counting   =     32842.48036104   -31250.59490126
  entropy T*S    EENTRO =        -0.00258646
  eigenvalues    EBANDS =     -2709.62574752
  atomic energy  EATOM  =     26800.85653297
  Solvation  Ediel_sol  =         0.00000000
  ---------------------------------------------------
  free energy    TOTEN  =      -375.17622630 eV

  energy without entropy =     -375.17363984  energy(sigma->0) =     -375.17536415


--------------------------------------------------------------------------------------------------------




----------------------------------------- Iteration    1(   8)  ---------------------------------------


    POTLOK:  cpu time    0.0284: real time    0.0380
    SETDIJ:  cpu time    0.0334: real time    0.0334
    EDDIAG:  cpu time    0.0847: real time    0.0849
  RMM-DIIS:  cpu time    0.7689: real time    0.7732
    ORTHCH:  cpu time    0.0143: real time    0.0143
       DOS:  cpu time    0.0010: real time    0.0010
    CHARGE:  cpu time    0.0325: real time    0.0325
    MIXING:  cpu time    0.0016: real time    0.0016
    --------------------------------------------
      LOOP:  cpu time    0.9653: real time    1.0033

 eigenvalue-minimisations  :  7359
 total energy-change (2. order) : 0.6394597E+01  (-0.6925995E+00)
 number of electron     301.0000009 magnetization 
 augmentation part       20.6220368 magnetization 

 Broyden mixing:
  rms(total) = 0.43503E+00    rms(broyden)= 0.43446E+00
  rms(prec ) = 0.72161E+00
  weight for this iteration     100.00

 eigenvalues of (default mixing * dielectric matrix)
  average eigenvalue GAMMA=   1.1638
  1.8531  1.2177  0.4208

 Free energy of the ion-electron system (eV)
  ---------------------------------------------------
  alpha Z        PSCENC =      1599.43516984
  Ewald energy   TEWEN  =    -20313.10712696
  -Hartree energ DENC   =     -7138.28396481
  -exchange      EXHF   =         0.00000000
  -V(xc)+E(xc)   XCENC  =      -221.86301805
  PAW double counting   =     33917.38929702   -32321.78642004
  entropy T*S    EENTRO =         0.01808454
  eigenvalues    EBANDS =     -2691.44018359
  atomic energy  EATOM  =     26800.85653297
  Solvation  Ediel_sol  =         0.00000000
  ---------------------------------------------------
  free energy    TOTEN  =      -368.78162908 eV

  energy without entropy =     -368.79971362  energy(sigma->0) =     -368.78765726


--------------------------------------------------------------------------------------------------------




----------------------------------------- Iteration    1(   9)  ---------------------------------------


    POTLOK:  cpu time    0.0302: real time    0.0303
    SETDIJ:  cpu time    0.0037: real time    0.0037
    EDDIAG:  cpu time    0.0772: real time    0.0780
  RMM-DIIS:  cpu time    0.8028: real time    0.8092
    ORTHCH:  cpu time    0.0125: real time    0.0126
       DOS:  cpu time    0.0021: real time    0.0021
    CHARGE:  cpu time    0.0305: real time    0.0305
    MIXING:  cpu time    0.0014: real time    0.0014
    --------------------------------------------
      LOOP:  cpu time    0.9611: real time    0.9962

 eigenvalue-minimisations  :  7659
 total energy-change (2. order) : 0.1654176E+00  (-0.2981461E+00)
 number of electron     301.0000009 magnetization 
 augmentation part       20.5284002 magnetization 

 Broyden mixing:
  rms(total) = 0.30763E+00    rms(broyden)= 0.30743E+00
  rms(prec ) = 0.47419E+00
  weight for this iteration     100.00

 eigenvalues of (default mixing * dielectric matrix)
  average eigenvalue GAMMA=   1.0749
  1.7358  1.7358  0.4140  0.4140

 Free energy of the ion-electron system (eV)
  ---------------------------------------------------
  alpha Z        PSCENC =      1599.43516984
  Ewald energy   TEWEN  =    -20313.10712696
  -Hartree energ DENC   =     -7138.03870675
  -exchange      EXHF   =         0.00000000
  -V(xc)+E(xc)   XCENC  =      -221.30254441
  PAW double counting   =     34151.21175844   -32551.30531760
  entropy T*S    EENTRO =         0.01567571
  eigenvalues    EBANDS =     -2696.38165273
  atomic energy  EATOM  =     26800.85653297
  Solvation  Ediel_sol  =         0.00000000
  ---------------------------------------------------
  free energy    TOTEN  =      -368.61621148 eV

  energy without entropy =     -368.63188719  energy(sigma->0) =     -368.62143672


--------------------------------------------------------------------------------------------------------




----------------------------------------- Iteration    1(  10)  ---------------------------------------


    POTLOK:  cpu time    0.0300: real time    0.0334
    SETDIJ:  cpu time    0.0036: real time    0.0037
    EDDIAG:  cpu time    0.0760: real time    0.0764
  RMM-DIIS:  cpu time    0.8260: real time    0.8310
    ORTHCH:  cpu time    0.0124: real time    0.0125
       DOS:  cpu time    0.0035: real time    0.0035
    CHARGE:  cpu time    0.0319: real time    0.0320
    MIXING:  cpu time    0.0014: real time    0.0014
    --------------------------------------------
      LOOP:  cpu time    0.9855: real time    1.0231

 eigenvalue-minimisations  :  7662
 total energy-change (2. order) : 0.6390067E-01  (-0.5946929E-01)
 number of electron     301.0000009 magnetization 
 augmentation part       20.4458486 magnetization 

 Broyden mixing:
  rms(total) = 0.15651E+00    rms(broyden)= 0.15644E+00
  rms(prec ) = 0.28982E+00
  weight for this iteration     100.00

 eigenvalues of (default mixing * dielectric matrix)
  average eigenvalue GAMMA=   1.0724
  1.8842  1.8842  0.7417  0.4258  0.4258

 Free energy of the ion-electron system (eV)
  ---------------------------------------------------
  alpha Z        PSCENC =      1599.43516984
  Ewald energy   TEWEN  =    -20313.10712696
  -Hartree energ DENC   =     -7152.75559239
  -exchange      EXHF   =         0.00000000
  -V(xc)+E(xc)   XCENC  =      -220.39288243
  PAW double counting   =     34380.69737149   -32773.98781055
  entropy T*S    EENTRO =         0.01718212
  eigenvalues    EBANDS =     -2689.31515491
  atomic energy  EATOM  =     26800.85653297
  Solvation  Ediel_sol  =         0.00000000
  ---------------------------------------------------
  free energy    TOTEN  =      -368.55231081 eV

  energy without entropy =     -368.56949293  energy(sigma->0) =     -368.55803818


--------------------------------------------------------------------------------------------------------




----------------------------------------- Iteration    1(  11)  ---------------------------------------


    POTLOK:  cpu time    0.0285: real time    0.0286
    SETDIJ:  cpu time    0.0037: real time    0.0037
    EDDIAG:  cpu time    0.1794: real time    0.1802
  RMM-DIIS:  cpu time    0.7059: real time    0.8508
    ORTHCH:  cpu time    0.0128: real time    0.0155
       DOS:  cpu time    0.0009: real time    0.0010
    CHARGE:  cpu time    0.0677: real time    0.0701
    MIXING:  cpu time    0.0016: real time    0.0016
    --------------------------------------------
      LOOP:  cpu time    1.0011: real time    1.1793

 eigenvalue-minimisations  :  7580
 total energy-change (2. order) : 0.3589723E-01  (-0.1741362E-01)
 number of electron     301.0000009 magnetization 
 augmentation part       20.4071388 magnetization 

 Broyden mixing:
  rms(total) = 0.88571E-01    rms(broyden)= 0.88522E-01
  rms(prec ) = 0.17648E+00
  weight for this iteration     100.00

 eigenvalues of (default mixing * dielectric matrix)
  average eigenvalue GAMMA=   1.0430
  1.9941  1.9941  0.9822  0.4545  0.4545  0.3784

 Free energy of the ion-electron system (eV)
  ---------------------------------------------------
  alpha Z        PSCENC =      1599.43516984
  Ewald energy   TEWEN  =    -20313.10712696
  -Hartree energ DENC   =     -7154.51435676
  -exchange      EXHF   =         0.00000000
  -V(xc)+E(xc)   XCENC  =      -220.09061407
  PAW double counting   =     34523.17142688   -32913.01177442
  entropy T*S    EENTRO =         0.01814097
  eigenvalues    EBANDS =     -2691.27381202
  atomic energy  EATOM  =     26800.85653297
  Solvation  Ediel_sol  =         0.00000000
  ---------------------------------------------------
  free energy    TOTEN  =      -368.51641357 eV

  energy without entropy =     -368.53455454  energy(sigma->0) =     -368.52246056


--------------------------------------------------------------------------------------------------------




----------------------------------------- Iteration    1(  12)  ---------------------------------------


    POTLOK:  cpu time    0.0305: real time    0.0307
    SETDIJ:  cpu time    0.0042: real time    0.0043
    EDDIAG:  cpu time    0.0844: real time    0.0899
  RMM-DIIS:  cpu time    0.8355: real time    0.8519
    ORTHCH:  cpu time    0.0122: real time    0.0123
       DOS:  cpu time    0.0008: real time    0.0009
    CHARGE:  cpu time    0.0301: real time    0.0302
    MIXING:  cpu time    0.0022: real time    0.0022
    --------------------------------------------
      LOOP:  cpu time    1.0008: real time    1.0882

 eigenvalue-minimisations  :  7716
 total energy-change (2. order) : 0.9378583E-02  (-0.6388809E-02)
 number of electron     301.0000009 magnetization 
 augmentation part       20.4014875 magnetization 

 Broyden mixing:
  rms(total) = 0.45208E-01    rms(broyden)= 0.45182E-01
  rms(prec ) = 0.69348E-01
  weight for this iteration     100.00

 eigenvalues of (default mixing * dielectric matrix)
  average eigenvalue GAMMA=   1.0403
  2.2677  1.8676  1.2009  0.7024  0.4937  0.3993  0.3503

 Free energy of the ion-electron system (eV)
  ---------------------------------------------------
  alpha Z        PSCENC =      1599.43516984
  Ewald energy   TEWEN  =    -20313.10712696
  -Hartree energ DENC   =     -7157.31215365
  -exchange      EXHF   =         0.00000000
  -V(xc)+E(xc)   XCENC  =      -219.89672191
  PAW double counting   =     34646.98753267   -33034.34822733
  entropy T*S    EENTRO =         0.01686072
  eigenvalues    EBANDS =     -2691.13890134
  atomic energy  EATOM  =     26800.85653297
  Solvation  Ediel_sol  =         0.00000000
  ---------------------------------------------------
  free energy    TOTEN  =      -368.50703499 eV

  energy without entropy =     -368.52389571  energy(sigma->0) =     -368.51265523


--------------------------------------------------------------------------------------------------------




----------------------------------------- Iteration    1(  13)  ---------------------------------------


    POTLOK:  cpu time    0.0287: real time    0.0289
    SETDIJ:  cpu time    0.0036: real time    0.0036
    EDDIAG:  cpu time    0.1392: real time    0.1401
  RMM-DIIS:  cpu time    0.7964: real time    0.8006
    ORTHCH:  cpu time    0.0133: real time    0.0134
       DOS:  cpu time    0.0008: real time    0.0009
    CHARGE:  cpu time    0.0296: real time    0.0297
    MIXING:  cpu time    0.0015: real time    0.0015
    --------------------------------------------
      LOOP:  cpu time    1.0138: real time    1.0420

 eigenvalue-minimisations  :  7682
 total energy-change (2. order) : 0.1447186E-03  (-0.2084953E-02)
 number of electron     301.0000009 magnetization 
 augmentation part       20.3988155 magnetization 

 Broyden mixing:
  rms(total) = 0.29447E-01    rms(broyden)= 0.29434E-01
  rms(prec ) = 0.58210E-01
  weight for this iteration     100.00

 eigenvalues of (default mixing * dielectric matrix)
  average eigenvalue GAMMA=   1.0371
  2.3844  1.8826  1.3287  0.9636  0.5367  0.4267  0.4267  0.3471

 Free energy of the ion-electron system (eV)
  ---------------------------------------------------
  alpha Z        PSCENC =      1599.43516984
  Ewald energy   TEWEN  =    -20313.10712696
  -Hartree energ DENC   =     -7157.53314853
  -exchange      EXHF   =         0.00000000
  -V(xc)+E(xc)   XCENC  =      -219.85535255
  PAW double counting   =     34718.74301398   -33104.91193187
  entropy T*S    EENTRO =         0.01795985
  eigenvalues    EBANDS =     -2692.15200701
  atomic energy  EATOM  =     26800.85653297
  Solvation  Ediel_sol  =         0.00000000
  ---------------------------------------------------
  free energy    TOTEN  =      -368.50689027 eV

  energy without entropy =     -368.52485012  energy(sigma->0) =     -368.51287689


--------------------------------------------------------------------------------------------------------




----------------------------------------- Iteration    1(  14)  ---------------------------------------


    POTLOK:  cpu time    0.0286: real time    0.0288
    SETDIJ:  cpu time    0.0036: real time    0.0036
    EDDIAG:  cpu time    0.0758: real time    0.0762
  RMM-DIIS:  cpu time    0.8142: real time    0.8197
    ORTHCH:  cpu time    0.0123: real time    0.0123
       DOS:  cpu time    0.0029: real time    0.0030
    CHARGE:  cpu time    0.0294: real time    0.0295
    MIXING:  cpu time    0.0016: real time    0.0016
    --------------------------------------------
      LOOP:  cpu time    0.9690: real time    1.0087

 eigenvalue-minimisations  :  7814
 total energy-change (2. order) : 0.6565294E-03  (-0.8437412E-03)
 number of electron     301.0000009 magnetization 
 augmentation part       20.3970689 magnetization 

 Broyden mixing:
  rms(total) = 0.16588E-01    rms(broyden)= 0.16581E-01
  rms(prec ) = 0.28039E-01
  weight for this iteration     100.00

 eigenvalues of (default mixing * dielectric matrix)
  average eigenvalue GAMMA=   1.0251
  2.4754  1.9229  1.4502  1.1204  0.5714  0.5549  0.3958  0.3958  0.3390

 Free energy of the ion-electron system (eV)
  ---------------------------------------------------
  alpha Z        PSCENC =      1599.43516984
  Ewald energy   TEWEN  =    -20313.10712696
  -Hartree energ DENC   =     -7158.29376676
  -exchange      EXHF   =         0.00000000
  -V(xc)+E(xc)   XCENC  =      -219.82508080
  PAW double counting   =     34750.45670882   -33136.05634713
  entropy T*S    EENTRO =         0.01743868
  eigenvalues    EBANDS =     -2691.98976241
  atomic energy  EATOM  =     26800.85653297
  Solvation  Ediel_sol  =         0.00000000
  ---------------------------------------------------
  free energy    TOTEN  =      -368.50623374 eV

  energy without entropy =     -368.52367243  energy(sigma->0) =     -368.51204664


--------------------------------------------------------------------------------------------------------




----------------------------------------- Iteration    1(  15)  ---------------------------------------


    POTLOK:  cpu time    0.0287: real time    0.0288
    SETDIJ:  cpu time    0.0037: real time    0.0037
    EDDIAG:  cpu time    0.0760: real time    0.0763
  RMM-DIIS:  cpu time    0.8096: real time    0.8129
    ORTHCH:  cpu time    0.0134: real time    0.0135
       DOS:  cpu time    0.0009: real time    0.0009
    CHARGE:  cpu time    0.0321: real time    0.0325
    MIXING:  cpu time    0.0017: real time    0.0017
    --------------------------------------------
      LOOP:  cpu time    0.9668: real time    0.9966

 eigenvalue-minimisations  :  7724
 total energy-change (2. order) :-0.7531750E-04  (-0.5102885E-03)
 number of electron     301.0000009 magnetization 
 augmentation part       20.3966581 magnetization 

 Broyden mixing:
  rms(total) = 0.91885E-02    rms(broyden)= 0.91809E-02
  rms(prec ) = 0.16132E-01
  weight for this iteration     100.00

 eigenvalues of (default mixing * dielectric matrix)
  average eigenvalue GAMMA=   1.0121
  2.5254  1.9904  1.5340  1.1598  0.7604  0.6028  0.4259  0.4259  0.3654  0.3307

 Free energy of the ion-electron system (eV)
  ---------------------------------------------------
  alpha Z        PSCENC =      1599.43516984
  Ewald energy   TEWEN  =    -20313.10712696
  -Hartree energ DENC   =     -7158.73531456
  -exchange      EXHF   =         0.00000000
  -V(xc)+E(xc)   XCENC  =      -219.80509314
  PAW double counting   =     34774.85072382   -33160.01329995
  entropy T*S    EENTRO =         0.01757554
  eigenvalues    EBANDS =     -2692.00547663
  atomic energy  EATOM  =     26800.85653297
  Solvation  Ediel_sol  =         0.00000000
  ---------------------------------------------------
  free energy    TOTEN  =      -368.50630906 eV

  energy without entropy =     -368.52388460  energy(sigma->0) =     -368.51216757


--------------------------------------------------------------------------------------------------------




----------------------------------------- Iteration    1(  16)  ---------------------------------------


    POTLOK:  cpu time    0.0290: real time    0.0291
    SETDIJ:  cpu time    0.0075: real time    0.0076
    EDDIAG:  cpu time    0.0796: real time    0.0799
  RMM-DIIS:  cpu time    0.8796: real time    0.8833
    ORTHCH:  cpu time    0.0123: real time    0.0123
       DOS:  cpu time    0.0015: real time    0.0015
    CHARGE:  cpu time    0.0313: real time    0.0314
    MIXING:  cpu time    0.0017: real time    0.0017
    --------------------------------------------
      LOOP:  cpu time    1.0432: real time    1.0869

 eigenvalue-minimisations  :  7451
 total energy-change (2. order) :-0.2400233E-04  (-0.1905901E-03)
 number of electron     301.0000009 magnetization 
 augmentation part       20.3966048 magnetization 

 Broyden mixing:
  rms(total) = 0.55698E-02    rms(broyden)= 0.55678E-02
  rms(prec ) = 0.10710E-01
  weight for this iteration     100.00

 eigenvalues of (default mixing * dielectric matrix)
  average eigenvalue GAMMA=   1.0043
  2.5761  2.0592  1.5862  1.1569  0.9223  0.6971  0.4787  0.4787  0.3905  0.3706
  0.3306

 Free energy of the ion-electron system (eV)
  ---------------------------------------------------
  alpha Z        PSCENC =      1599.43516984
  Ewald energy   TEWEN  =    -20313.10712696
  -Hartree energ DENC   =     -7158.95221524
  -exchange      EXHF   =         0.00000000
  -V(xc)+E(xc)   XCENC  =      -219.80085833
  PAW double counting   =     34785.86450230   -33170.84033630
  entropy T*S    EENTRO =         0.01750293
  eigenvalues    EBANDS =     -2691.97950427
  atomic energy  EATOM  =     26800.85653297
[...]
     90       5.0603      2.00000
     91       5.0883      2.00000
     92       5.1718      2.00000
     93       5.2167      2.00000
     94       5.2836      2.00000
     95       5.3392      2.00000
     96       5.3570      2.00000
     97       5.3956      2.00000
     98       5.4361      2.00000
     99       5.4715      2.00000
    100       5.4923      2.00000
    101       5.5415      2.00000
    102       5.5982      2.00000
    103       5.6634      2.00000
    104       5.7338      2.00000
    105       5.7762      2.00000
    106       5.8368      2.00000
    107       5.9031      2.00000
    108       5.9683      2.00000
    109       6.0584      2.00000
    110       6.2079      2.00000
    111       6.2525      2.00000
    112       6.2712      2.00000
    113       6.3051      2.00000
    114       6.3241      2.00000
    115       6.3854      2.00000
    116       6.4131      2.00000
    117       6.4359      2.00000
    118       6.4624      2.00000
    119       6.4934      2.00000
    120       6.5249      2.00000
    121       6.5558      2.00000
    122       6.5987      2.00000
    123       6.6478      2.00000
    124       6.6792      2.00000
    125       6.7067      2.00000
    126       6.7465      2.00000
    127       6.7730      2.00000
    128       6.8104      2.00000
    129       6.8548      2.00000
    130       6.8979      2.00000
    131       6.9596      2.00000
    132       6.9970      2.00000
    133       7.0485      2.00000
    134       7.0973      2.00000
    135       7.1243      2.00000
    136       7.1457      2.00000
    137       7.1797      2.00000
    138       7.2487      2.00007
    139       7.2890      2.00034
    140       7.3156      2.00084
    141       7.3472      2.00228
    142       7.4055      2.01083
    143       7.4474      2.02621
    144       7.4611      2.03334
    145       7.4942      2.05318
    146       7.5339      2.07057
    147       7.5362      2.07081
    148       7.5598      2.06380
    149       7.6048      1.97284
    150       7.6335      1.83534
    151       7.6573      1.66626
    152       7.7091      1.15263
    153       7.7302      0.91580
    154       7.7562      0.63295
    155       7.8186      0.12613
    156       7.8556     -0.01780
    157       7.8801     -0.05903
    158       7.9357     -0.06203
    159       7.9681     -0.04283
    160       7.9803     -0.03560
    161       8.0200     -0.01694
    162       8.0579     -0.00698
    163       8.1002     -0.00215
    164       8.1140     -0.00141
    165       8.1846     -0.00012
    166       8.2443     -0.00001
    167       8.2941     -0.00000
    168       8.3825     -0.00000
    169       8.3998     -0.00000
    170       8.4727     -0.00000
    171       8.5344     -0.00000
    172       8.5880     -0.00000
    173       8.8266     -0.00000
    174       8.9370     -0.00000
    175       9.0001     -0.00000
    176       9.5786     -0.00000
    177       9.6693     -0.00000
    178       9.7243     -0.00000
    179       9.7513     -0.00000
    180       9.8522     -0.00000


--------------------------------------------------------------------------------------------------------


 soft charge-density along one line, spin component           1
         0         1         2         3         4         5         6         7         8         9
 total charge-density along one line
 
 pseudopotential strength for first ion, spin component:           1
 -6.360  -0.000   0.002  -0.001   0.000  -7.553  -0.000   0.003
 -0.000  -6.354   0.001  -0.004  -0.000  -0.000  -7.545   0.001
  0.002   0.001  -6.365   0.001   0.001   0.003   0.001  -7.558
 -0.001  -0.004   0.001  -6.360   0.000  -0.001  -0.005   0.001
  0.000  -0.000   0.001   0.000  -6.366   0.001  -0.000   0.002
 -7.553  -0.000   0.003  -0.001   0.001  -8.947  -0.000   0.004
 -0.000  -7.545   0.001  -0.005  -0.000  -0.000  -8.937   0.001
  0.003   0.001  -7.558   0.001   0.002   0.004   0.001  -8.953
 -0.001  -0.005   0.001  -7.553   0.000  -0.002  -0.006   0.001
  0.001  -0.000   0.002   0.000  -7.560   0.001  -0.001   0.002
  0.003  -0.000  -0.001  -0.001   0.002   0.003  -0.000  -0.001
  0.004  -0.001  -0.001  -0.001   0.003   0.005  -0.001  -0.001
  0.004  -0.004  -0.002  -0.001  -0.003   0.005  -0.005  -0.002
 -0.001   0.001  -0.011   0.004  -0.001  -0.001   0.001  -0.013
  0.001  -0.001  -0.003  -0.006   0.006   0.002  -0.001  -0.004
 -0.004   0.005   0.002   0.001   0.004  -0.004   0.006   0.003
  0.001  -0.001   0.014  -0.004   0.001   0.001  -0.001   0.017
 -0.001   0.001   0.004   0.007  -0.006  -0.002   0.001   0.004
 total augmentation occupancy for first ion, spin component:           1
  4.907  -0.054  -0.003   0.037   0.049  -2.536   0.029  -0.011  -0.020  -0.025  -0.086   0.045  -0.049   0.015   0.042  -0.004
 -0.054   5.224   0.145  -0.186  -0.194   0.029  -2.689  -0.079   0.103   0.111   0.128  -0.004   0.004  -0.022   0.012   0.003
 -0.003   0.145   4.711   0.029  -0.014  -0.010  -0.079  -2.591  -0.010  -0.001   0.013  -0.011  -0.005   0.081   0.037   0.001
  0.037  -0.186   0.029   4.892  -0.009  -0.021   0.103  -0.010  -2.535   0.010   0.007  -0.007   0.008  -0.049   0.056   0.000
  0.049  -0.194  -0.014  -0.009   4.720  -0.024   0.112  -0.001   0.010  -2.579  -0.019   0.024   0.032   0.031  -0.069   0.002
 -2.536   0.029  -0.010  -0.021  -0.024   1.335  -0.016   0.012   0.014   0.012   0.052  -0.023   0.029  -0.009  -0.019   0.002
  0.029  -2.689  -0.079   0.103   0.112  -0.016   1.413   0.044  -0.056  -0.065  -0.070   0.004  -0.001   0.006  -0.008  -0.002
 -0.011  -0.079  -2.591  -0.010  -0.001   0.012   0.044   1.438   0.003   0.006  -0.011   0.007   0.003  -0.043  -0.021  -0.000
 -0.020   0.103  -0.010  -2.535   0.010   0.014  -0.056   0.003   1.339  -0.008  -0.002   0.003  -0.007   0.028  -0.028   0.000
 -0.025   0.111  -0.001   0.010  -2.579   0.012  -0.065   0.006  -0.008   1.422   0.015  -0.013  -0.011  -0.015   0.038  -0.001
 -0.086   0.128   0.013   0.007  -0.019   0.052  -0.070  -0.011  -0.002   0.015   2.250  -0.236  -0.005   0.026  -0.036  -0.000
  0.045  -0.004  -0.011  -0.007   0.024  -0.023   0.004   0.007   0.003  -0.013  -0.236   0.027  -0.001   0.002  -0.000   0.000
 -0.049   0.004  -0.005   0.008   0.032   0.029  -0.001   0.003  -0.007  -0.011  -0.005  -0.001   0.296  -0.008  -0.014   0.008
  0.015  -0.022   0.081  -0.049   0.031  -0.009   0.006  -0.043   0.028  -0.015   0.026   0.002  -0.008   0.307  -0.003  -0.000
  0.042   0.012   0.037   0.056  -0.069  -0.019  -0.008  -0.021  -0.028   0.038  -0.036  -0.000  -0.014  -0.003   0.294  -0.000
 -0.004   0.003   0.001   0.000   0.002   0.002  -0.002  -0.000   0.000  -0.001  -0.000   0.000   0.008  -0.000  -0.000   0.000
  0.000  -0.000   0.008  -0.004   0.001  -0.000   0.000  -0.004   0.002  -0.000   0.002  -0.000  -0.000   0.008  -0.000  -0.000
 -0.000   0.000   0.003   0.005  -0.005   0.000  -0.000  -0.002  -0.003   0.003  -0.002   0.000  -0.000  -0.000   0.007  -0.000


------------------------ aborting loop because EDIFF is reached ----------------------------------------


    CHARGE:  cpu time    0.0290: real time    0.0292
    FORLOC:  cpu time    0.0133: real time    0.0134
    FORNL :  cpu time    0.3205: real time    0.3224
    STRESS:  cpu time    0.9575: real time    0.9627
    FORCOR:  cpu time    0.0419: real time    0.0422
    FORHAR:  cpu time    0.0186: real time    0.0187
    MIXING:  cpu time    0.0013: real time    0.0013
    OFIELD:  cpu time    0.0000: real time    0.0000

  FORCE on cell =-STRESS in cart. coord.  units (eV):
  Direction    XX          YY          ZZ          XY          YZ          ZX
  --------------------------------------------------------------------------------------
  Alpha Z  1599.48335  1599.48335  1599.48335
  Ewald   -5611.35600 -7114.34696 -7593.41242   -67.17859  -135.31546  -154.03900
  Hartree  3467.58793  2078.51542  1606.95484   -46.73287  -145.81856  -132.74013
  E(xc)   -1325.44694 -1325.84479 -1325.93260    -0.21618     0.35558     0.14520
  Local   -3200.99357  -311.18665   640.93194   113.76885   279.30590   286.02751
  n-local  -283.69717  -288.49184  -289.76847     1.83419    -2.65299    -2.08413
  augment   259.00570   259.53371   259.62569    -0.35797     0.63028     0.39932
  Kinetic  5095.50268  5102.42637  5102.20771    -1.17446     3.52569     2.26526
  Fock        0.00000     0.00000     0.00000     0.00000     0.00000     0.00000
  -------------------------------------------------------------------------------------
  Total       0.08598     0.08860     0.09004    -0.05704     0.03044    -0.02598
  in kB       0.19378     0.19969     0.20292    -0.12855     0.06861    -0.05856
  external pressure =        0.20 kB  Pullay stress =        0.00 kB


 VOLUME and BASIS-vectors are now :
 -----------------------------------------------------------------------------
  energy-cutoff  :      300.00
  volume of cell :      710.87
      direct lattice vectors                 reciprocal lattice vectors
     6.831440548  0.007457567  0.001264552     0.146382193 -0.000162522 -0.000029516
     0.011306101 10.187905487 -0.025209751    -0.000107197  0.098156314  0.000239594
     0.002031833 -0.024929736 10.214052632    -0.000018387  0.000242284  0.097904927

  length of vectors
     6.831444735 10.187942951 10.214083258     0.146382286  0.098156665  0.097905229


 FORCES acting on ions
    electron-ion (+dipol)            ewald-force                    non-local-force                 convergence-correction
 -----------------------------------------------------------------------------------------------
   -.426E+02 -.455E+02 0.920E+02   0.420E+02 0.453E+02 -.912E+02   0.600E+00 0.188E+00 -.750E+00   0.120E-02 -.260E-02 -.551E-02
   -.142E+02 -.502E+02 0.153E+02   0.139E+02 0.507E+02 -.156E+02   0.318E+00 -.474E+00 0.267E+00   -.488E-03 0.130E-02 0.601E-02
   0.129E+02 0.484E+02 -.104E+03   -.133E+02 -.476E+02 0.104E+03   0.459E+00 -.783E+00 0.372E+00   -.115E-02 0.752E-02 -.821E-04
   0.622E+01 0.500E+02 -.327E+02   -.571E+01 -.498E+02 0.328E+02   -.521E+00 -.202E+00 -.617E-01   -.122E-02 -.394E-03 -.879E-02
   -.672E+01 0.797E+02 0.680E+02   0.565E+01 -.793E+02 -.674E+02   0.107E+01 -.372E+00 -.612E+00   0.119E-02 0.256E-02 -.684E-02
   0.138E+02 -.565E+02 0.529E+01   -.135E+02 0.568E+02 -.563E+01   -.326E+00 -.300E+00 0.338E+00   0.422E-03 0.154E-02 0.647E-02
   0.520E+01 0.946E+02 0.659E+02   -.418E+01 -.946E+02 -.655E+02   -.102E+01 0.299E-01 -.376E+00   -.110E-02 0.183E-02 -.716E-02
   0.909E+00 0.288E+01 -.264E+02   -.976E+00 -.331E+01 0.270E+02   0.672E-01 0.440E+00 -.663E+00   0.363E-03 -.413E-02 0.587E-03
   0.207E+01 -.594E+02 0.178E+03   -.191E+01 0.592E+02 -.177E+03   -.164E+00 0.152E+00 -.514E+00   -.340E-02 0.156E-03 -.479E-03
   0.238E+02 0.550E+02 -.107E+03   -.243E+02 -.551E+02 0.107E+03   0.492E+00 0.111E+00 0.539E+00   0.341E-03 -.936E-02 0.249E-02
   0.348E+02 0.307E+03 0.318E+03   -.342E+02 -.307E+03 -.318E+03   -.570E+00 -.120E+00 0.390E+00   -.533E-02 0.115E-01 -.136E-01
   -.364E+02 0.247E+03 0.351E+03   0.359E+02 -.247E+03 -.351E+03   0.508E+00 -.187E+00 0.413E+00   -.122E-02 0.787E-03 -.740E-02
   0.498E+02 -.138E+03 0.621E+01   -.499E+02 0.137E+03 -.661E+01   0.441E-01 0.636E+00 0.422E+00   0.115E-01 0.389E-02 -.194E-01
   0.389E+02 0.124E+03 -.239E+03   -.390E+02 -.124E+03 0.238E+03   0.120E+00 -.486E+00 0.748E+00   -.212E-02 -.189E-01 0.561E-02
   0.186E+02 0.412E+02 0.179E+03   -.183E+02 -.416E+02 -.180E+03   -.329E+00 0.429E+00 0.280E+00   0.216E-03 -.320E-03 -.207E-02
   0.592E+01 0.164E+03 -.795E+02   -.511E+01 -.165E+03 0.793E+02   -.806E+00 0.714E+00 0.113E+00   -.313E-02 0.152E-02 0.259E-01
   -.490E+02 -.165E+03 -.711E+02   0.490E+02 0.164E+03 0.707E+02   0.879E-05 0.694E+00 0.368E+00   -.662E-02 0.349E-02 -.126E-01
   -.337E+02 0.196E+03 -.202E+03   0.338E+02 -.195E+03 0.202E+03   -.124E+00 -.561E+00 0.484E+00   0.372E-03 -.189E-01 0.651E-02
   -.818E+01 0.114E+03 0.664E+01   0.745E+01 -.115E+03 -.692E+01   0.726E+00 0.834E+00 0.252E+00   0.450E-02 0.756E-03 0.237E-01
   0.582E+01 -.307E+03 0.278E+03   -.581E+01 0.307E+03 -.277E+03   -.251E-02 -.248E+00 -.557E+00   -.112E-02 -.445E-02 -.718E-02
   -.476E+01 -.368E+03 0.378E+03   0.487E+01 0.369E+03 -.377E+03   -.104E+00 -.457E+00 -.238E+00   -.118E-02 -.758E-02 -.149E-01
   -.400E+02 -.412E+02 -.101E+02   0.397E+02 0.414E+02 0.103E+02   0.280E+00 -.221E+00 -.220E+00   0.390E-03 0.256E-02 0.263E-03
   -.364E+01 -.292E+02 0.125E+03   0.340E+01 0.290E+02 -.124E+03   0.248E+00 0.267E+00 -.720E+00   0.284E-02 -.171E-03 -.775E-03
   0.243E+02 -.928E+02 -.100E+03   -.242E+02 0.931E+02 0.998E+02   -.874E-01 -.247E+00 0.555E+00   -.524E-03 0.630E-02 0.258E-02
   -.201E+02 0.931E+02 0.442E+02   0.199E+02 -.931E+02 -.440E+02   0.228E+00 -.311E-02 -.133E+00   -.739E-04 -.257E-02 0.364E-02
   -.840E+01 -.821E+02 -.104E+03   0.851E+01 0.815E+02 0.104E+03   -.100E+00 0.665E+00 0.261E+00   -.127E-02 0.327E-03 0.414E-02
   -.612E+01 0.491E+02 -.769E+02   0.655E+01 -.484E+02 0.768E+02   -.423E+00 -.696E+00 0.130E+00   0.329E-03 0.664E-02 0.591E-03
   -.731E+01 0.155E+02 0.457E+02   0.714E+01 -.159E+02 -.457E+02   0.173E+00 0.419E+00 -.658E-01   0.130E-03 0.406E-03 -.748E-03
   0.337E+02 -.311E+02 0.800E+02   -.330E+02 0.312E+02 -.796E+02   -.698E+00 -.128E+00 -.382E+00   -.103E-02 -.134E-02 -.546E-02
   0.203E+02 0.100E+03 0.478E+02   -.202E+02 -.997E+02 -.478E+02   -.143E+00 -.300E+00 0.417E-01   0.114E-03 -.258E-02 0.414E-02
   0.358E+02 -.180E+03 -.343E+03   -.361E+02 0.179E+03 0.343E+03   0.258E+00 0.926E+00 0.718E-01   0.537E-02 0.185E-03 0.188E-01
   0.885E+02 -.126E+03 -.120E+02   -.878E+02 0.126E+03 0.120E+02   -.677E+00 -.675E+00 0.376E-01   0.175E-03 0.110E-01 -.777E-03
   -.666E+01 -.417E+02 -.661E+02   0.687E+01 0.415E+02 0.670E+02   -.214E+00 0.198E+00 -.874E+00   -.633E-03 -.943E-02 0.750E-03
   -.662E+02 -.276E+03 -.321E+03   0.661E+02 0.276E+03 0.321E+03   0.620E-01 -.286E+00 0.429E+00   0.240E-02 0.172E-01 0.607E-02
   -.101E+01 0.194E+03 -.137E+03   0.221E+00 -.194E+03 0.137E+03   0.787E+00 0.863E-01 -.393E+00   0.367E-02 0.133E-02 -.232E-01
   -.657E+02 0.113E+03 -.251E+03   0.664E+02 -.113E+03 0.251E+03   -.650E+00 0.335E-01 0.505E+00   -.377E-03 -.256E-01 0.683E-02
 -----------------------------------------------------------------------------------------------
   0.522E+00 -.528E-01 -.441E+00   0.142E-13 0.682E-12 0.313E-12   -.525E+00 0.771E-01 0.456E+00   0.355E-02 -.255E-01 -.120E-01
 
 
 POSITION                                       TOTAL-FORCE (eV/Angst)
 -----------------------------------------------------------------------------------
      1.57792      5.04293      1.83432         0.005429      0.001442      0.005034
      1.67119      5.15428      5.04778         0.000573     -0.002547      0.004404
      1.67178      5.30637      8.38646        -0.000354     -0.001909      0.005951
      0.10943      6.89965      0.03407        -0.003783     -0.003863     -0.002536
      1.56521      8.55371      1.82997         0.001099      0.000937      0.000753
      5.15047      5.15376      5.05389        -0.002866     -0.002164      0.002389
      5.27048      8.50531      1.80768        -0.000393      0.001132     -0.000454
      6.82918     10.02100      0.08277         0.001018      0.000554     -0.001762
      5.15605      1.71681      1.72967        -0.001595      0.002171     -0.001980
      1.67272      8.45575      8.36547         0.000056      0.002929      0.002231
      3.46052      0.00218      3.37156        -0.001343     -0.002971     -0.002286
      6.75754      0.05200      3.39994        -0.000265     -0.003308      0.000651
      1.72297      1.65022      4.98986         0.002629      0.000328      0.003567
      6.82284      0.13402      6.71093        -0.001562     -0.001087     -0.000962
      0.01620      6.76439      3.37669         0.000991     -0.007804     -0.004837
      0.06000      6.70396      6.78273        -0.001075      0.002931     -0.007867
      5.09311      1.65038      4.99846         0.002774      0.002286      0.003915
      3.42434      0.07064      6.66979        -0.002394      0.000766     -0.002527
      3.36088      6.68762      6.74519         0.002324      0.003060     -0.006537
      6.80052      3.38598      3.53639        -0.001114     -0.000052     -0.003008
      3.42691      3.42104      3.45831         0.001397     -0.001432      0.001941
      3.28471      3.46937     -0.01127        -0.002404      0.001239     -0.007200
      1.66327      1.69479      1.81913         0.005565      0.004938     -0.003273
      0.02781      3.35640      6.70657        -0.002632     -0.001068     -0.002345
      1.68454      8.50406      5.12793        -0.002676      0.005240      0.006809
      5.15266      1.60011      8.59527         0.003482     -0.004672      0.000671
      5.20088      5.16965      8.52845         0.001180      0.004892      0.002648
      3.39963      6.77321      3.32633         0.003167     -0.002086     -0.002585
      5.25990      5.00954      1.69103        -0.002223      0.000821      0.004753
      5.15492      8.46783      5.12320         0.000179      0.002094      0.004402
      1.73223      1.40709      8.46847        -0.004053     -0.003378     -0.001517
      0.24286      3.40690     10.08625        -0.000770     -0.000279     -0.003057
      3.44385     10.04502      0.13994         0.001636     -0.004156      0.000152
      3.39961      3.39964      6.75632        -0.000780      0.001141      0.001936
      3.35022      6.82351      0.07753        -0.001096      0.000442     -0.001245
      5.15758      8.46692      8.37137        -0.000118      0.003434      0.003771
 -----------------------------------------------------------------------------------
    total drift:                                0.000582     -0.001133      0.003152


--------------------------------------------------------------------------------------------------------



  FREE ENERGIE OF THE ION-ELECTRON SYSTEM (eV)
  ---------------------------------------------------
  free  energy   TOTEN  =      -368.51448752 eV

  energy  without entropy=     -368.53332912  energy(sigma->0) =     -368.52076805
 
 d Force = 0.3160649E-04[-0.181E-06, 0.634E-04]  d Energy = 0.5562623E-04-0.240E-04
 d Force =-0.1257590E+00[-0.127E+00,-0.125E+00]  d Ewald  =-0.1037247E+01 0.911E+00


--------------------------------------------------------------------------------------------------------


    POTLOK:  cpu time    0.0345: real time    0.0348


--------------------------------------------------------------------------------------------------------




--------------------------------------------------------------------------------------------------------


  
 reached required accuracy - stopping structural energy minimisation
     LOOP+:  cpu time    5.8410: real time    6.3278
    4ORBIT:  cpu time    0.0000: real time    0.0000

 total amount of memory used by VASP on root node    67830. kBytes
========================================================================

   base      :      30000. kBytes
   nonlr-proj:      10905. kBytes
   fftplans  :       2814. kBytes
   grid      :       5360. kBytes
   one-center:        124. kBytes
   wavefun   :      18627. kBytes
 
  
  
 General timing and accounting informations for this job:
 ========================================================
  
                  Total CPU time used (sec):      141.056
                            User time (sec):      140.318
                          System time (sec):        0.738
                         Elapsed time (sec):      159.690
  
                   Maximum memory used (kb):      260336.
                   Average memory used (kb):           0.
  
                          Minor page faults:       103551
                          Major page faults:           35
                 Voluntary context switches:         6372
