 vasp.5.4.1 05Feb16 (build Jan 29 2020 16:04:39) complex                        
  
 executed on           IFC91_ompi date 2020.06.15  03:05:43
 running on  160 total cores
 distrk:  each k-point on   20 cores,    8 groups
 distr:  one band on NCORES_PER_BAND=   5 cores,    4 groups


--------------------------------------------------------------------------------------------------------


 INCAR:
 POTCAR:    PAW_PBE Zr_sv 04Jan2005               
 POTCAR:    PAW_PBE Hf 20Jan2003                  
 POTCAR:    PAW_PBE Nb_sv 25May2007               
 POTCAR:    PAW_PBE Ta 17Jan2003                  

 ----------------------------------------------------------------------------- 
|                                                                             |
|           W    W    AA    RRRRR   N    N  II  N    N   GGGG   !!!           |
|           W    W   A  A   R    R  NN   N  II  NN   N  G    G  !!!           |
|           W    W  A    A  R    R  N N  N  II  N N  N  G       !!!           |
|           W WW W  AAAAAA  RRRRR   N  N N  II  N  N N  G  GGG   !            |
|           WW  WW  A    A  R   R   N   NN  II  N   NN  G    G                |
|           W    W  A    A  R    R  N    N  II  N    N   GGGG   !!!           |
|                                                                             |
|      For optimal performance we recommend to set                            |
|        NCORE= 4 - approx SQRT( number of cores)                             |
|      NCORE specifies how many cores store one orbital (NPAR=cpu/NCORE).     |
|      This setting can  greatly improve the performance of VASP for DFT.     |
|      The default, NPAR=number of cores might be grossly inefficient         |
|      on modern multi-core architectures or massively parallel machines.     |
|      Do your own testing !!!!                                               |
|      Unfortunately you need to use the default for GW and RPA calculations. |
|      (for HF NCORE is supported but not extensively tested yet)             |
|                                                                             |
 ----------------------------------------------------------------------------- 


 ----------------------------------------------------------------------------- 
|                                                                             |
|           W    W    AA    RRRRR   N    N  II  N    N   GGGG   !!!           |
|           W    W   A  A   R    R  NN   N  II  NN   N  G    G  !!!           |
|           W    W  A    A  R    R  N N  N  II  N N  N  G       !!!           |
|           W WW W  AAAAAA  RRRRR   N  N N  II  N  N N  G  GGG   !            |
|           WW  WW  A    A  R   R   N   NN  II  N   NN  G    G                |
|           W    W  A    A  R    R  N    N  II  N    N   GGGG   !!!           |
|                                                                             |
|      You have enabled k-point parallelism (KPAR>1).                         |
|      This developmental code was originally  written by Paul Kent at ORNL,  |
|      and carefully double checked in Vienna.                                |
|      GW as well as linear response parallelism added by Martijn Marsman     |
|      and Georg Kresse.                                                      |
|      Carefully verify results versus KPAR=1.                                |
|      Report problems to Paul Kent and Vienna.                               |
|                                                                             |
 ----------------------------------------------------------------------------- 

 POTCAR:    PAW_PBE Zr_sv 04Jan2005               
   VRHFIN =Zr: 4s4p5s4d                                                         
   LEXCH  = PE                                                                  
   EATOM  =  1284.2219 eV,   94.3876 Ry                                         
                                                                                
   TITEL  = PAW_PBE Zr_sv 04Jan2005                                             
   LULTRA =        F    use ultrasoft PP ?                                      
   IUNSCR =        1    unscreen: 0-lin 1-nonlin 2-no                           
   RPACOR =    2.200    partial core radius                                     
   POMASS =   91.224; ZVAL   =   12.000    mass and valenz                      
   RCORE  =    2.500    outmost cutoff radius                                   
   RWIGS  =    3.070; RWIGS  =    1.625    wigner-seitz radius (au A)           
   ENMAX  =  229.898; ENMIN  =  172.424 eV                                      
   ICORE  =        3    local potential                                         
   LCOR   =        T    correct aug charges                                     
   LPAW   =        T    paw PP                                                  
   EAUG   =  461.257                                                            
   DEXC   =    0.000                                                            
   RMAX   =    2.561    core radius for proj-oper                               
   RAUG   =    1.300    factor for augmentation sphere                          
   RDEP   =    2.597    radius for radial grids                                 
   RDEPT  =    2.007    core radius for aug-charge                              
                                                                                
   Atomic configuration                                                         
   11 entries                                                                   
     n  l   j            E        occ.                                          
     1  0  0.50    -17820.0161   2.0000                                         
     2  0  0.50     -2467.0882   2.0000                                         
     2  1  1.50     -2199.6095   6.0000                                         
     3  0  0.50      -402.4863   2.0000                                         
     3  1  1.50      -315.3675   6.0000                                         
     3  2  2.50      -172.4472  10.0000                                         
     4  0  0.50       -52.4146   2.0000                                         
     5  0  0.50        -3.8421   1.0000                                         
     4  1  1.50       -30.5054   6.0000                                         
     4  2  2.50        -2.3341   3.0000                                         
     4  3  2.50        -1.3606   0.0000                                         
   Description                                                                  
     l       E           TYP  RCUT    TYP  RCUT                                 
     0    -52.4145962     23  2.200                                             
     0     -3.8421270     23  2.500                                             
     1    -30.5053914     23  2.200                                             
     1     20.4087390     23  2.200                                             
     2     -2.3340816     23  2.500                                             
     2     -0.6120942     23  2.500                                             
     3     -4.0817478     23  2.500                                             
  local pseudopotential read in
  partial core-charges read in
  partial kinetic energy density read in
  atomic valenz-charges read in
  non local Contribution for L=           0  read in
    real space projection operators read in
  non local Contribution for L=           0  read in
    real space projection operators read in
  non local Contribution for L=           1  read in
    real space projection operators read in
  non local Contribution for L=           1  read in
    real space projection operators read in
  non local Contribution for L=           2  read in
    real space projection operators read in
  non local Contribution for L=           2  read in
    real space projection operators read in
    PAW grid and wavefunctions read in
 
   number of l-projection  operators is LMAX  =           6
   number of lm-projection operators is LMMAX =          18
 
 POTCAR:    PAW_PBE Hf 20Jan2003                  
   VRHFIN =Hf: 6s5d                                                             
   LEXCH  = PE                                                                  
   EATOM  =    75.9011 eV,    5.5786 Ry                                         
                                                                                
   TITEL  = PAW_PBE Hf 20Jan2003                                                
   LULTRA =        F    use ultrasoft PP ?                                      
   IUNSCR =        1    unscreen: 0-lin 1-nonlin 2-no                           
   RPACOR =    2.500    partial core radius                                     
   POMASS =  178.490; ZVAL   =    4.000    mass and valenz                      
   RCORE  =    3.000    outmost cutoff radius                                   
   RWIGS  =    3.050; RWIGS  =    1.614    wigner-seitz radius (au A)           
   ENMAX  =  220.334; ENMIN  =  165.250 eV                                      
   RCLOC  =    2.212    cutoff for local pot                                    
   LCOR   =        T    correct aug charges                                     
   LPAW   =        T    paw PP                                                  
   EAUG   =  335.116                                                            
   DEXC   =    0.000                                                            
   RMAX   =    3.077    core radius for proj-oper                               
   RAUG   =    1.300    factor for augmentation sphere                          
   RDEP   =    3.047    radius for radial grids                                 
   RDEPT  =    2.344    core radius for aug-charge                              
                                                                                
   Atomic configuration                                                         
   16 entries                                                                   
     n  l   j            E        occ.                                          
     1  0  0.50    -65259.4397   2.0000                                         
     2  0  0.50    -11157.9882   2.0000                                         
     2  1  1.50     -9795.2113   6.0000                                         
     3  0  0.50     -2541.4058   2.0000                                         
     3  1  1.50     -2134.4770   6.0000                                         
     3  2  2.50     -1653.5418  10.0000                                         
     4  0  0.50      -510.9575   2.0000                                         
     4  1  1.50      -377.5023   6.0000                                         
     4  2  2.50      -205.2085  10.0000                                         
     4  3  3.50       -15.4905  14.0000                                         
     5  0  0.50       -65.6020   2.0000                                         
     5  1  1.50       -34.2798   6.0000                                         
     5  2  2.50        -1.9877   3.0000                                         
     6  0  0.50        -4.7357   1.0000                                         
     6  1  1.50        -1.3606   0.0000                                         
     5  3  2.50        -1.3606   0.0000                                         
   Description                                                                  
     l       E           TYP  RCUT    TYP  RCUT                                 
     2     -1.9876627     23  2.500                                             
     2      0.0744703     23  2.500                                             
     0     -4.7356889     23  2.600                                             
     0      3.2364747     23  2.600                                             
     1     -1.3605826     23  3.000                                             
     1     27.2116520     23  3.000                                             
  local pseudopotential read in
  partial core-charges read in
  partial kinetic energy density read in
  atomic valenz-charges read in
  non local Contribution for L=           2  read in
    real space projection operators read in
  non local Contribution for L=           2  read in
    real space projection operators read in
  non local Contribution for L=           0  read in
    real space projection operators read in
  non local Contribution for L=           0  read in
    real space projection operators read in
  non local Contribution for L=           1  read in
    real space projection operators read in
  non local Contribution for L=           1  read in
    real space projection operators read in
    PAW grid and wavefunctions read in
 
   number of l-projection  operators is LMAX  =           6
   number of lm-projection operators is LMMAX =          18
 
 POTCAR:    PAW_PBE Nb_sv 25May2007               
   VRHFIN =Nb: 4p5s4d                                                           
   LEXCH  = PE                                                                  
   EATOM  =  1555.1913 eV,  114.3033 Ry                                         
                                                                                
   TITEL  = PAW_PBE Nb_sv 25May2007                                             
   LULTRA =        F    use ultrasoft PP ?                                      
   IUNSCR =        1    unscreen: 0-lin 1-nonlin 2-no                           
   RPACOR =    1.800    partial core radius                                     
   POMASS =   92.910; ZVAL   =   13.000    mass and valenz                      
   RCORE  =    2.400    outmost cutoff radius                                   
   RWIGS  =    2.400; RWIGS  =    1.270    wigner-seitz radius (au A)           
   ENMAX  =  293.235; ENMIN  =  219.927 eV                                      
   ICORE  =        3    local potential                                         
   LCOR   =        T    correct aug charges                                     
   LPAW   =        T    paw PP                                                  
   EAUG   =  455.659                                                            
   DEXC   =    0.000                                                            
   RMAX   =    2.456    core radius for proj-oper                               
   RAUG   =    1.300    factor for augmentation sphere                          
   RDEP   =    2.451    radius for radial grids                                 
   RDEPT  =    1.956    core radius for aug-charge                              
                                                                                
   Atomic configuration                                                         
   11 entries                                                                   
     n  l   j            E        occ.                                          
     1  0  0.50    -18805.2457   2.0000                                         
     2  0  0.50     -2630.2869   2.0000                                         
     2  1  1.50     -2348.4046   6.0000                                         
     3  0  0.50      -438.8757   2.0000                                         
     3  1  1.50      -346.7588   6.0000                                         
     3  2  2.50      -196.2560  10.0000                                         
     4  0  0.50       -58.3859   2.0000                                         
     5  0  0.50        -3.9816   1.0000                                         
     4  1  1.50       -34.5141   6.0000                                         
     4  2  2.50        -3.0408   4.0000                                         
     4  3  2.50        -1.3606   0.0000                                         
   Description                                                                  
     l       E           TYP  RCUT    TYP  RCUT                                 
     0    -58.3859094     23  2.200                                             
     0     -3.9816262     23  2.200                                             
     1    -34.5140738     23  2.200                                             
     1     13.6058260     23  2.200                                             
     2     -3.0408010     23  2.200                                             
     2     -0.1283038     23  2.200                                             
     3     -1.3605826     23  2.400                                             
  local pseudopotential read in
  partial core-charges read in
  partial kinetic energy density read in
  atomic valenz-charges read in
  non local Contribution for L=           0  read in
    real space projection operators read in
  non local Contribution for L=           0  read in
    real space projection operators read in
  non local Contribution for L=           1  read in
    real space projection operators read in
  non local Contribution for L=           1  read in
    real space projection operators read in
  non local Contribution for L=           2  read in
    real space projection operators read in
  non local Contribution for L=           2  read in
    real space projection operators read in
    PAW grid and wavefunctions read in
 
   number of l-projection  operators is LMAX  =           6
   number of lm-projection operators is LMMAX =          18
 
 POTCAR:    PAW_PBE Ta 17Jan2003                  
   VRHFIN =Ta:  6s5d                                                            
   LEXCH  = PE                                                                  
   EATOM  =   130.6506 eV,    9.6025 Ry                                         
                                                                                
   TITEL  = PAW_PBE Ta 17Jan2003                                                
   LULTRA =        F    use ultrasoft PP ?                                      
   IUNSCR =        1    unscreen: 0-lin 1-nonlin 2-no                           
   RPACOR =    2.330    partial core radius                                     
   POMASS =  180.948; ZVAL   =    5.000    mass and valenz                      
   RCORE  =    2.900    outmost cutoff radius                                   
   RWIGS  =    2.840; RWIGS  =    1.503    wigner-seitz radius (au A)           
   ENMAX  =  223.667; ENMIN  =  167.750 eV                                      
   RCLOC  =    2.205    cutoff for local pot                                    
   LCOR   =        T    correct aug charges                                     
   LPAW   =        T    paw PP                                                  
   EAUG   =  332.075                                                            
   DEXC   =    0.000                                                            
   RMAX   =    2.970    core radius for proj-oper                               
   RAUG   =    1.300    factor for augmentation sphere                          
   RDEP   =    3.060    radius for radial grids                                 
   RDEPT  =    2.354    core radius for aug-charge                              
                                                                                
   Atomic configuration                                                         
   16 entries                                                                   
     n  l   j            E        occ.                                          
     1  0  0.50    -67341.2807   2.0000                                         
     2  0  0.50    -11566.9376   2.0000                                         
     2  1  1.50    -10134.1182   6.0000                                         
     3  0  0.50     -2648.5620   2.0000                                         
     3  1  1.50     -2222.6012   6.0000                                         
     3  2  2.50     -1726.3120  10.0000                                         
     4  0  0.50      -538.6961   2.0000                                         
     4  1  1.50      -399.0129   6.0000                                         
     4  2  2.50      -220.3959  10.0000                                         
     4  3  3.50       -23.0374  14.0000                                         
     5  0  0.50       -71.2901   2.0000                                         
     5  1  1.50       -37.8225   6.0000                                         
     5  2  2.50        -2.6455   4.0000                                         
     6  0  0.50        -4.9623   1.0000                                         
     6  1  1.50        -1.3606   0.0000                                         
     5  3  2.50        -1.3606   0.0000                                         
   Description                                                                  
     l       E           TYP  RCUT    TYP  RCUT                                 
     2     -2.6455043     23  2.500                                             
     2     -0.6258895     23  2.500                                             
     0     -4.9622780     23  2.500                                             
     0      4.7531321     23  2.500                                             
     1     -1.3605826     23  2.900                                             
     1     27.2116520     23  2.900                                             
  local pseudopotential read in
  partial core-charges read in
  partial kinetic energy density read in
  atomic valenz-charges read in
  non local Contribution for L=           2  read in
    real space projection operators read in
  non local Contribution for L=           2  read in
    real space projection operators read in
  non local Contribution for L=           0  read in
    real space projection operators read in
  non local Contribution for L=           0  read in
    real space projection operators read in
  non local Contribution for L=           1  read in
    real space projection operators read in
  non local Contribution for L=           1  read in
    real space projection operators read in
    PAW grid and wavefunctions read in
 
   number of l-projection  operators is LMAX  =           6
   number of lm-projection operators is LMMAX =          18
 
 Optimization of the real space projectors (new method)

 maximal supplied QI-value         = 15.12
 optimisation between [QCUT,QGAM] = [  8.77, 17.69] = [ 21.53, 87.61] Ry 
 Optimized for a Real-space Cutoff    1.74 Angstroem

   l    n(q)    QCUT    max X(q) W(low)/X(q) W(high)/X(q)  e(spline) 
   0      9     8.768    12.107    0.28E-04    0.53E-06    0.29E-07
   0      9     8.768     9.948    0.36E-04    0.50E-05    0.64E-07
   1      9     8.768     3.563    0.14E-04    0.16E-04    0.88E-07
   1      9     8.768     4.524    0.21E-03    0.33E-03    0.19E-06
   2      8     8.768    87.261    0.19E-03    0.25E-03    0.24E-06
   2      8     8.768    70.950    0.19E-03    0.24E-03    0.24E-06
 Optimization of the real space projectors (new method)

 maximal supplied QI-value         = 12.47
 optimisation between [QCUT,QGAM] = [  8.86, 17.71] = [ 21.96, 87.83] Ry 
 Optimized for a Real-space Cutoff    1.90 Angstroem

   l    n(q)    QCUT    max X(q) W(low)/X(q) W(high)/X(q)  e(spline) 
   2      9     8.855    48.111    0.22E-03    0.80E-04    0.10E-05
   2      9     8.855    40.545    0.21E-03    0.76E-04    0.95E-06
   0     10     8.855   121.658    0.27E-04    0.12E-04    0.11E-06
   0     10     8.855    71.177    0.22E-04    0.11E-04    0.99E-07
   1     10     8.855    14.183    0.65E-04    0.10E-03    0.98E-07
   1     10     8.855     8.257    0.43E-04    0.73E-04    0.72E-07
 Optimization of the real space projectors (new method)

 maximal supplied QI-value         = 15.68
 optimisation between [QCUT,QGAM] = [  8.78, 17.72] = [ 21.60, 87.97] Ry 
 Optimized for a Real-space Cutoff    1.96 Angstroem

   l    n(q)    QCUT    max X(q) W(low)/X(q) W(high)/X(q)  e(spline) 
   0     10     8.783    10.201    0.29E-04    0.25E-05    0.69E-07
   0     10     8.783     8.174    0.45E-04    0.57E-05    0.14E-06
   1     10     8.783     3.488    0.76E-05    0.24E-04    0.95E-07
   1     10     8.783     4.917    0.78E-04    0.14E-03    0.46E-06
   2      9     8.783   153.744    0.22E-03    0.34E-04    0.15E-05
   2      9     8.783   126.342    0.22E-03    0.35E-04    0.15E-05
 Optimization of the real space projectors (new method)

 maximal supplied QI-value         = 12.85
 optimisation between [QCUT,QGAM] = [  8.87, 17.73] = [ 22.01, 88.06] Ry 
 Optimized for a Real-space Cutoff    1.90 Angstroem

   l    n(q)    QCUT    max X(q) W(low)/X(q) W(high)/X(q)  e(spline) 
   2      9     8.867    62.315    0.23E-03    0.62E-04    0.11E-05
   2      9     8.867    52.185    0.23E-03    0.62E-04    0.11E-05
   0     10     8.867   103.837    0.15E-04    0.23E-04    0.98E-07
   0     10     8.867    59.728    0.12E-04    0.21E-04    0.89E-07
   1     10     8.867    13.958    0.50E-04    0.22E-04    0.14E-06
   1     10     8.867     8.441    0.36E-04    0.19E-04    0.98E-07
  PAW_PBE Zr_sv 04Jan2005               :
 energy of atom  1       EATOM=-1284.2219
 kinetic energy error for atom=    0.0483 (will be added to EATOM!!)
  PAW_PBE Hf 20Jan2003                  :
 energy of atom  2       EATOM=  -75.9011
 kinetic energy error for atom=    0.0071 (will be added to EATOM!!)
  PAW_PBE Nb_sv 25May2007               :
 energy of atom  3       EATOM=-1555.1913
 kinetic energy error for atom=    0.0655 (will be added to EATOM!!)
  PAW_PBE Ta 17Jan2003                  :
 energy of atom  4       EATOM= -130.6506
 kinetic energy error for atom=    0.0121 (will be added to EATOM!!)
 
 
 POSCAR: generated by pypospack                  
  positions in direct lattice
  No initial velocities read in
 exchange correlation table for  LEXCH =        8
   RHO(1)=    0.500       N(1)  =     2000
   RHO(2)=  100.500       N(2)  =     4000
 


--------------------------------------------------------------------------------------------------------


 ion  position               nearest neighbor table
   1  0.990  0.006  0.009-  34 2.93  24 2.95  33 3.00   8 3.03  17 3.05  23 3.09  21 3.09   9 3.10
                             3 3.25   2 3.27  12 3.34  12 3.54
   2  0.002  0.997  0.328-  21 2.91  29 2.95  17 2.95  32 3.01  25 3.06  13 3.07  24 3.08  34 3.12
                            11 3.25   1 3.27  26 3.38   5 3.42   5 3.47  18 3.47
   3  0.986  0.323  0.001-  28 2.93  21 2.94  17 2.94  31 2.97  23 3.00   6 3.04   9 3.07  10 3.08
                             1 3.25  36 3.29  27 3.43  26 3.47  36 3.60
   4  0.015  0.664  0.658-  31 2.94  29 2.97  28 2.97  32 3.00  19 3.01   8 3.03  33 3.03  14 3.06
                            11 3.20  16 3.26  27 3.34  20 3.39  18 3.45  16 3.62
   5  0.499  0.997  0.325-  21 2.90  29 2.94  17 2.95  32 3.01  25 3.06  13 3.07  24 3.16  34 3.19
                            15 3.20  12 3.22  30 3.36   2 3.42   2 3.47
   6  0.752  0.504  0.175-   3 3.04  20 3.04  36 3.07   7 3.08  26 3.08  11 3.10  30 3.10  15 3.11
                            24 3.15  21 3.31  14 3.31  10 3.40  10 3.49  31 3.66
   7  0.498  0.663  0.984-  34 2.89  24 2.95  33 2.97   8 2.98  28 3.00  10 3.02  31 3.06   6 3.08
                            16 3.26  20 3.42  36 3.45  20 3.47  12 3.51  15 3.67
   8  0.757  0.834  0.826-  18 2.89  22 2.92  20 2.93   7 2.98   4 3.03   1 3.03  16 3.04  12 3.11
                            32 3.17  33 3.35  24 3.38  23 3.42  31 3.50  33 3.54
   9  0.254  0.165  0.822-  22 2.87  18 2.88  35 2.90  27 2.93  36 3.02   3 3.07  12 3.07   1 3.10
                            25 3.20  33 3.29  28 3.29  23 3.37
  10  0.246  0.503  0.165-  20 2.96  26 2.98  30 2.99   7 3.02  11 3.04   3 3.08  36 3.09  15 3.09
                            34 3.20  17 3.33  19 3.37  28 3.40   6 3.40   6 3.49
  11  0.014  0.680  0.346-  24 2.92  34 2.93  19 3.02  10 3.04  29 3.04  32 3.07   6 3.10  14 3.11
                             4 3.20   2 3.25  15 3.27  15 3.61  26 3.63
  12  0.504  0.003  0.011-  34 2.99  33 3.02  24 3.04  17 3.05   9 3.07  23 3.10   8 3.11  21 3.12
                             5 3.22  36 3.32   1 3.34   7 3.51   1 3.54
  13  0.747  0.168  0.505-  22 2.95  18 2.96  30 2.99  27 2.99  26 3.00  35 3.03   5 3.07   2 3.07
                            23 3.16  21 3.19  32 3.27  14 3.30  25 3.40  25 3.48
  14  0.745  0.489  0.498-  35 2.90  27 2.93  30 3.00  26 3.00  16 3.03   4 3.06  15 3.10  11 3.11
                            31 3.27  13 3.30   6 3.31  19 3.34  32 3.69
  15  0.489  0.685  0.342-  24 2.97  34 2.98  29 3.01  19 3.03  32 3.04  10 3.09  14 3.10   6 3.11
                             5 3.20  11 3.27  16 3.31  11 3.61   7 3.67  30 3.70
  16  0.489  0.662  0.665-  19 2.98  29 2.99  31 3.01  14 3.03  32 3.03   8 3.04  33 3.06  28 3.06
                             4 3.26   7 3.26  35 3.28  15 3.31  22 3.45   4 3.62
  17  0.247  0.179  0.178-  30 2.72  26 2.73   3 2.94   2 2.95   5 2.95  36 2.99   1 3.05  12 3.05
                            10 3.33
  18  0.002  0.000  0.668-  29 2.73  32 2.80  33 2.86   9 2.88   8 2.89  23 2.90  25 2.91  13 2.96
                             4 3.45   2 3.47
  19  0.259  0.485  0.494-  30 2.77  26 2.81  35 2.83  27 2.89  16 2.98   4 3.01  11 3.02  15 3.03
                            25 3.28  14 3.34  10 3.37
  20  0.002  0.665  0.989-  34 2.74  24 2.80  28 2.91   8 2.93  33 2.94  10 2.96  31 2.98   6 3.04
                             4 3.39   7 3.42   7 3.47
  21  0.750  0.182  0.193-  30 2.77  26 2.80   5 2.90   2 2.91   3 2.94  36 2.99   1 3.09  12 3.12
                            13 3.19   6 3.31
  22  0.500  0.998  0.669-  29 2.70  32 2.78  23 2.84   9 2.87  25 2.91  33 2.92   8 2.92  13 2.95
                            16 3.45
  23  0.744  0.168  0.814-  22 2.84  35 2.88  18 2.90  27 2.94  36 2.97   3 3.00   1 3.09  12 3.10
                            13 3.16   9 3.37   8 3.42
  24  0.763  0.811  0.156-  20 2.80  11 2.92   1 2.95   7 2.95  15 2.97  12 3.04   2 3.08   6 3.15
                             5 3.16  34 3.27   8 3.38
  25  0.253  0.165  0.508-  30 2.87  26 2.88  22 2.91  18 2.91  27 2.94  35 2.97   5 3.06   2 3.06
                            29 3.13   9 3.20  19 3.28  13 3.40  13 3.48
  26  0.019  0.326  0.339-  17 2.73  21 2.80  19 2.81  25 2.88  10 2.98  14 3.00  13 3.00   6 3.08
                            30 3.18  27 3.35   2 3.38   3 3.47  11 3.63
  27  0.007  0.338  0.666-  31 2.77  28 2.77  19 2.89   9 2.93  14 2.93  23 2.94  25 2.94  13 2.99
                             4 3.34  26 3.35  35 3.35   3 3.43  35 3.54
  28  0.234  0.485  0.834-  27 2.77  35 2.85  20 2.91   3 2.93   4 2.97   7 3.00  36 3.00  16 3.06
                            31 3.22   9 3.29  10 3.40
  29  0.255  0.860  0.517-  22 2.70  18 2.73   5 2.94   2 2.95   4 2.97  16 2.99  15 3.01  11 3.04
                            25 3.13  33 3.25  32 3.40  32 3.48
  30  0.480  0.324  0.335-  17 2.72  21 2.77  19 2.77  25 2.87  10 2.99  13 2.99  14 3.00   6 3.10
                            26 3.18   5 3.36  36 3.45  35 3.45  15 3.70
  31  0.766  0.493  0.817-  27 2.77  35 2.85   4 2.94   3 2.97  20 2.98  16 3.01   7 3.06  36 3.08
                            28 3.22  14 3.27   8 3.50   6 3.66
  32  0.749  0.849  0.516-  22 2.78  18 2.80   4 3.00   2 3.01   5 3.01  16 3.03  15 3.04  11 3.07
                             8 3.17  13 3.27  29 3.40  29 3.48  14 3.69
  33  0.244  0.844  0.835-  18 2.86  22 2.92  20 2.94   7 2.97   1 3.00  12 3.02   4 3.03  16 3.06
                            34 3.17  29 3.25   9 3.29   8 3.35   8 3.54
  34  0.237  0.815  0.143-  20 2.74   7 2.89  11 2.93   1 2.93  15 2.98  12 2.99   2 3.12  33 3.17
                             5 3.19  10 3.20  24 3.27
  35  0.493  0.342  0.672-  19 2.83  28 2.85  31 2.85  23 2.88   9 2.90  14 2.90  25 2.97  13 3.03
                            16 3.28  36 3.34  27 3.35  30 3.45  27 3.54
  36  0.509  0.327  0.998-  23 2.97  21 2.99  17 2.99  28 3.00   9 3.02   6 3.07  31 3.08  10 3.09
                             3 3.29  12 3.32  35 3.34   7 3.45  30 3.45   3 3.60
 
  LATTYP: Found a triclinic cell.
 ALAT       =    17.1814328232
 B/A-ratio  =     0.4006904310
 C/A-ratio  =     0.8440428608
 COS(alpha) =     0.0002493770
 COS(beta)  =     0.4233126161
 COS(gamma) =     0.8024183150
  
  Lattice vectors:
  
 A1 = ( -13.7779317056, -10.2649991894,  -0.0048386607)
 A2 = (  -6.8844314790,  -0.0058862058,   0.0048785672)
 A3 = (  -0.0020950902, -10.2674484496, -10.2412697987)


Analysis of symmetry for initial positions (statically):
=====================================================================
 Subroutine PRICEL returns:
 Original cell was already a primitive cell.
 

 Routine SETGRP: Setting up the symmetry group for a 
 triclinic supercell.


 Subroutine GETGRP returns: Found  1 space group operations
 (whereof  1 operations were pure point group operations)
 out of a pool of  2 trial point group operations.


The static configuration has the point symmetry C_1 .


Analysis of symmetry for dynamics (positions and initial velocities):
=====================================================================
 Subroutine PRICEL returns:
 Original cell was already a primitive cell.
 

 Routine SETGRP: Setting up the symmetry group for a 
 triclinic supercell.


 Subroutine GETGRP returns: Found  1 space group operations
 (whereof  1 operations were pure point group operations)
 out of a pool of  2 trial point group operations.


The dynamic configuration has the point symmetry C_1 .


 Subroutine INISYM returns: Found  1 space group operations
 (whereof  1 operations are pure point group operations),
 and found     1 'primitive' translations

 
 
 KPOINTS: k-points                                

Automatic generation of k-mesh.
Space group operators:
 irot       det(A)        alpha          n_x          n_y          n_z        tau_x        tau_y        tau_z
    1     1.000000     0.000001     1.000000     0.000000     0.000000     0.000000     0.000000     0.000000
 
 Subroutine IBZKPT returns following result:
 ===========================================
 
 Found     14 irreducible k-points:
 
 Following reciprocal coordinates:
            Coordinates               Weight
  0.000000  0.000000  0.000000      1.000000
  0.333333 -0.000000  0.000000      2.000000
  0.000000  0.333333  0.000000      2.000000
  0.333333  0.333333  0.000000      2.000000
 -0.333333  0.333333  0.000000      2.000000
 -0.000000 -0.000000  0.333333      2.000000
  0.333333 -0.000000  0.333333      2.000000
 -0.333333 -0.000000  0.333333      2.000000
  0.000000  0.333333  0.333333      2.000000
  0.333333  0.333333  0.333333      2.000000
 -0.333333  0.333333  0.333333      2.000000
 -0.000000 -0.333333  0.333333      2.000000
  0.333333 -0.333333  0.333333      2.000000
 -0.333333 -0.333333  0.333333      2.000000
 
 Following cartesian coordinates:
            Coordinates               Weight
  0.000000  0.000000  0.000000      1.000000
  0.241526 -0.000214  0.000165      2.000000
 -0.000139  0.162171 -0.000226      2.000000
  0.241388  0.161957 -0.000061      2.000000
 -0.241665  0.162385 -0.000391      2.000000
  0.000115 -0.000232  0.162592      2.000000
  0.241642 -0.000445  0.162757      2.000000
 -0.241411 -0.000018  0.162427      2.000000
 -0.000023  0.161939  0.162366      2.000000
  0.241503  0.161725  0.162531      2.000000
 -0.241550  0.162153  0.162201      2.000000
  0.000254 -0.162402  0.162817      2.000000
  0.241781 -0.162616  0.162982      2.000000
 -0.241272 -0.162189  0.162652      2.000000
 


--------------------------------------------------------------------------------------------------------




 Dimension of arrays:
   k-points           NKPTS =     14   k-points in BZ     NKDIM =     14   number of bands    NBANDS=    176
   number of dos      NEDOS =    301   number of ions     NIONS =     36
   non local maximal  LDIM  =      6   non local SUM 2l+1 LMDIM =     18
   total plane-waves  NPLWV = 144000
   max r-space proj   IRMAX =   6346   max aug-charges    IRDMAX=  13777
   dimension x,y,z NGX =    40 NGY =   60 NGZ =   60
   dimension x,y,z NGXF=    80 NGYF=  120 NGZF=  120
   support grid    NGXF=    80 NGYF=  120 NGZF=  120
   ions per type =               8   8   8  12
 NGX,Y,Z   is equivalent  to a cutoff of   9.66,  9.73,  9.75 a.u.
 NGXF,Y,Z  is equivalent  to a cutoff of  19.32, 19.46, 19.51 a.u.


 I would recommend the setting:
   dimension x,y,z NGX =    39 NGY =   58 NGZ =   58
 SYSTEM =  automatically generated by mexm         
 POSCAR =  generated by pypospack                  

 Startparameter for this run:
   NWRITE =      2    write-flag & timer
   PREC   = accura    normal or accurate (medium, high low for compatibility)
   ISTART =      0    job   : 0-new  1-cont  2-samecut
   ICHARG =      2    charge: 1-file 2-atom 10-const
   ISPIN  =      1    spin polarized calculation?
   LNONCOLLINEAR =      F non collinear calculations
   LSORBIT =      F    spin-orbit coupling
   INIWAV =      1    electr: 0-lowe 1-rand  2-diag
   LASPH  =      F    aspherical Exc in radial PAW
   METAGGA=      F    non-selfconsistent MetaGGA calc.

 Electronic Relaxation 1
   ENCUT  =  300.0 eV  22.05 Ry    4.70 a.u.   9.72 14.48 14.44*2*pi/ulx,y,z
   ENINI  =  300.0     initial cutoff
   ENAUG  =  461.3 eV  augmentation charge cutoff
   NELM   =     70;   NELMIN=  2; NELMDL= -5     # of ELM steps 
   EDIFF  = 0.1E-04   stopping-criterion for ELM
   LREAL  =      T    real-space projection
   NLSPLINE    = F    spline interpolate recip. space projectors
   LCOMPAT=      F    compatible to vasp.4.4
   GGA_COMPAT  = T    GGA compatible to vasp.4.4-vasp.4.6
   LMAXPAW     = -100 max onsite density
   LMAXMIX     =    2 max onsite mixed and CHGCAR
   VOSKOWN=      0    Vosko Wilk Nusair interpolation
   ROPT   =   -0.00025  -0.00025  -0.00025  -0.00025
 Ionic relaxation
   EDIFFG = -.1E-01   stopping-criterion for IOM
   NSW    =    300    number of steps for IOM
   NBLOCK =      1;   KBLOCK =    300    inner block; outer block 
   IBRION =      2    ionic relax: 0-MD 1-quasi-New 2-CG
   NFREE  =      1    steps in history (QN), initial steepest desc. (CG)
   ISIF   =      3    stress and relaxation
   IWAVPR =     11    prediction:  0-non 1-charg 2-wave 3-comb
   ISYM   =      1    0-nonsym 1-usesym 2-fastsym
   LCORR  =      T    Harris-Foulkes like correction to forces

   POTIM  = 0.1500    time-step for ionic-motion
   TEIN   =    0.0    initial temperature
   TEBEG  =    0.0;   TEEND  =   0.0 temperature during run
   SMASS  =  -3.00    Nose mass-parameter (am)
   estimated Nose-frequenzy (Omega)   =  0.10E-29 period in steps =****** mass=  -0.108E-26a.u.
   SCALEE = 1.0000    scale energy and forces
   NPACO  =    256;   APACO  = 16.0  distance and # of slots for P.C.
   PSTRESS=    0.0 pullay stress

  Mass of Ions in am
   POMASS =  91.22178.49 92.91180.95
  Ionic Valenz
   ZVAL   =  12.00  4.00 13.00  5.00
  Atomic Wigner-Seitz radii
   RWIGS  =  -1.00 -1.00 -1.00 -1.00
  virtual crystal weights 
   VCA    =   1.00  1.00  1.00  1.00
   NELECT =     292.0000    total number of electrons
   NUPDOWN=      -1.0000    fix difference up-down

 DOS related values:
   EMIN   =  10.00;   EMAX   =-10.00  energy-range for DOS
   EFERMI =   0.00
   ISMEAR =     1;   SIGMA  =   0.15  broadening in eV -4-tet -1-fermi 0-gaus

 Electronic relaxation 2 (details)
   IALGO  =     68    algorithm
   LDIAG  =      T    sub-space diagonalisation (order eigenvalues)
   LSUBROT=      F    optimize rotation matrix (better conditioning)
   TURBO    =      0    0=normal 1=particle mesh
   IRESTART =      0    0=no restart 2=restart with 2 vectors
   NREBOOT  =      0    no. of reboots
   NMIN     =      0    reboot dimension
   EREF     =   0.00    reference energy to select bands
   IMIX   =      4    mixing-type and parameters
     AMIX     =   0.40;   BMIX     =  1.00
     AMIX_MAG =   1.60;   BMIX_MAG =  1.00
     AMIN     =   0.10
     WC   =   100.;   INIMIX=   1;  MIXPRE=   1;  MAXMIX= -45

 Intra band minimization:
   WEIMIN = 0.0010     energy-eigenvalue tresh-hold
   EBREAK =  0.14E-07  absolut break condition
   DEPER  =   0.30     relativ break condition  

   TIME   =   0.40     timestep for ELM

  volume/ion in A,a.u.               =      20.05       135.32
  Fermi-wavevector in a.u.,A,eV,Ry     =   1.210734  2.287955 19.944449  1.465876
  Thomas-Fermi vector in A             =   2.346271
 
 Write flags
   LWAVE  =      F    write WAVECAR
   LCHARG =      F    write CHGCAR
   LVTOT  =      F    write LOCPOT, total local potential
   LVHAR  =      F    write LOCPOT, Hartree potential only
   LELF   =      F    write electronic localiz. function (ELF)
   LORBIT =      0    0 simple, 1 ext, 2 COOP (PROOUT)


 Dipole corrections
   LMONO  =      F    monopole corrections only (constant potential shift)
   LDIPOL =      F    correct potential (dipole corrections)
   IDIPOL =      0    1-x, 2-y, 3-z, 4-all directions 
   EPSILON=  1.0000000 bulk dielectric constant

 Exchange correlation treatment:
   GGA     =    --    GGA type
   LEXCH   =     8    internal setting for exchange type
   VOSKOWN=      0    Vosko Wilk Nusair interpolation
   LHFCALC =     F    Hartree Fock is set to
   LHFONE  =     F    Hartree Fock one center treatment
   AEXX    =    0.0000 exact exchange contribution

 Linear response parameters
   LEPSILON=     F    determine dielectric tensor
   LRPA    =     F    only Hartree local field effects (RPA)
   LNABLA  =     F    use nabla operator in PAW spheres
   LVEL    =     F    velocity operator in full k-point grid
   LINTERFAST=   F  fast interpolation
   KINTER  =     0    interpolate to denser k-point grid
   CSHIFT  =0.1000    complex shift for real part using Kramers Kronig
   OMEGAMAX=  -1.0    maximum frequency
   DEG_THRESHOLD= 0.2000000E-02 threshold for treating states as degnerate
   RTIME   =    0.100 relaxation time in fs

 Orbital magnetization related:
   ORBITALMAG=     F  switch on orbital magnetization
   LCHIMAG   =     F  perturbation theory with respect to B field
   DQ        =  0.001000  dq finite difference perturbation B field



--------------------------------------------------------------------------------------------------------


 conjugate gradient relaxation of ions
 charge density and potential will be updated during run
 non-spin polarized calculation
 RMM-DIIS sequential band-by-band and
  variant of blocked Davidson during initial phase
 perform sub-space diagonalisation
    before iterative eigenvector-optimisation
 modified Broyden-mixing scheme, WC =      100.0
 initial mixing is a Kerker type mixing with AMIX =  0.4000 and BMIX =      1.0000
 Hartree-type preconditioning will be used
 using additional bands           30
 real space projection scheme for non local part
 use partial core corrections
 calculate Harris-corrections to forces 
   (improved forces if not selfconsistent)
 use gradient corrections 
 use of overlap-Matrix (Vanderbilt PP)
 Methfessel and Paxton  Order N= 1 SIGMA  =   0.15


--------------------------------------------------------------------------------------------------------


  energy-cutoff  :      300.00
  volume of cell :      721.87
      direct lattice vectors                 reciprocal lattice vectors
     6.884431479  0.005886206 -0.004878567     0.145255457 -0.000128616  0.000099230
     0.009068748 10.253226778  0.014595795    -0.000083485  0.097530539 -0.000135687
    -0.006973657  0.014221672 10.226674004     0.000069412 -0.000139260  0.097783743

  length of vectors
     6.884435724 10.253241177 10.226686270     0.145255548  0.097530669  0.097783867


 
 k-points in units of 2pi/SCALE and weight: k-points                                
   0.00000000  0.00000000  0.00000000       0.037
   0.24152642 -0.00021386  0.00016500       0.074
  -0.00013882  0.16217085 -0.00022562       0.074
   0.24138760  0.16195700 -0.00006062       0.074
  -0.24166523  0.16238471 -0.00039061       0.074
   0.00011542 -0.00023156  0.16259187       0.074
   0.24164183 -0.00044542  0.16275687       0.074
  -0.24141100 -0.00001770  0.16242688       0.074
  -0.00002340  0.16193930  0.16236626       0.074
   0.24150302  0.16172544  0.16253125       0.074
  -0.24154982  0.16215316  0.16220126       0.074
   0.00025423 -0.16240241  0.16281749       0.074
   0.24178065 -0.16261627  0.16298249       0.074
  -0.24127218 -0.16218855  0.16265250       0.074
 
 k-points in reciprocal lattice and weights: k-points                                
   0.00000000  0.00000000  0.00000000       0.037
   0.33333333 -0.00000000  0.00000000       0.074
   0.00000000  0.33333333  0.00000000       0.074
   0.33333333  0.33333333  0.00000000       0.074
  -0.33333333  0.33333333  0.00000000       0.074
  -0.00000000 -0.00000000  0.33333333       0.074
   0.33333333 -0.00000000  0.33333333       0.074
  -0.33333333 -0.00000000  0.33333333       0.074
   0.00000000  0.33333333  0.33333333       0.074
   0.33333333  0.33333333  0.33333333       0.074
  -0.33333333  0.33333333  0.33333333       0.074
  -0.00000000 -0.33333333  0.33333333       0.074
   0.33333333 -0.33333333  0.33333333       0.074
  -0.33333333 -0.33333333  0.33333333       0.074
 
 position of ions in fractional coordinates (direct lattice) 
   0.98969800  0.00579800  0.00887500
   0.00208800  0.99686000  0.32836500
   0.98643900  0.32298300  0.00075100
   0.01506000  0.66416000  0.65789400
   0.49862000  0.99683800  0.32519500
   0.75202500  0.50409200  0.17470600
   0.49815600  0.66252300  0.98388500
   0.75715500  0.83418900  0.82585700
   0.25360700  0.16463200  0.82152400
   0.24597600  0.50346900  0.16547000
   0.01410700  0.67996500  0.34560400
   0.50394200  0.00333400  0.01085800
   0.74732900  0.16786600  0.50530400
   0.74460400  0.48946400  0.49800800
   0.48948900  0.68503600  0.34191900
   0.48893700  0.66213700  0.66468300
   0.24692100  0.17888400  0.17810700
   0.00249800  0.00027200  0.66775300
   0.25898900  0.48460700  0.49405800
   0.00161600  0.66484500  0.98940800
   0.75006700  0.18202100  0.19332000
   0.50030000  0.99847500  0.66886100
   0.74366800  0.16779800  0.81427000
   0.76266100  0.81071100  0.15565600
   0.25333300  0.16502900  0.50843400
   0.01876700  0.32624300  0.33889600
   0.00681500  0.33838100  0.66592800
   0.23358800  0.48510200  0.83410800
   0.25461400  0.85996500  0.51692800
   0.48037600  0.32409100  0.33472200
   0.76637900  0.49293600  0.81706400
   0.74876900  0.84912600  0.51632000
   0.24372800  0.84428800  0.83471500
   0.23746900  0.81490300  0.14317000
   0.49325500  0.34242100  0.67168600
   0.50894600  0.32656200  0.99769500
 
 position of ions in cartesian coordinates  (Angst):
   6.81349876  0.06539999  0.08601805
   0.02112506 10.22571384  3.37262159
   6.79399552  3.31743501  0.00758202
   0.10511471  6.81922810  6.73768794
   3.43948750 10.22836587  3.33778034
   5.18061773  5.17548078  1.79035013
   3.42866782  6.80992330 10.06911091
   5.21438752  8.56933083  8.45425213
   1.74170399  1.70118546  8.40262383
   1.69681682  5.16598296  1.69835627
   0.10087498  6.97683345  3.54423525
   3.46930868  0.03730498  0.10863137
   5.14293381  1.73275337  5.16638352
   5.12714111  5.03005079  5.09647698
   3.37368147  7.03157335  3.50430479
   3.36742276  6.80137171  6.80477546
   1.70029090  1.83812463  1.82284856
   0.01254310  0.01230015  6.82888403
   1.78394141  4.97733626  5.05837983
   0.01025476  6.83088711 10.12804913
   5.16408742  1.87346697  1.97601811
   3.44867158 10.25004780  6.85235619
   5.11557467  1.73642861  8.32609495
   5.25675404  8.31910660  1.59995545
   1.74200464  1.70080171  5.20076160
   0.12979540  3.34997360  3.47044913
   0.04534214  3.47900785  6.81513426
   1.60670306  4.98709817  8.53609147
   1.75706656  8.82626646  5.29776386
   3.30772052  3.33056642  3.42547960
   5.27485610  5.07031568  8.35930313
   5.15894874  8.71803178  5.28897707
   1.67976433  8.66998201  8.54749220
   1.64123079  8.35881917  1.47488857
   3.39420147  3.52337606  6.87170528
   3.49980779  3.36549889 10.20538502
 


--------------------------------------------------------------------------------------------------------


 k-point  1 :   0.0000 0.0000 0.0000  plane waves:    8577
 k-point  2 :   0.3333-0.0000 0.0000  plane waves:    8526
 k-point  3 :   0.0000 0.3333 0.0000  plane waves:    8522
 k-point  4 :   0.3333 0.3333 0.0000  plane waves:    8514
 k-point  5 :  -0.3333 0.3333 0.0000  plane waves:    8505
 k-point  6 :  -0.0000-0.0000 0.3333  plane waves:    8519
 k-point  7 :   0.3333-0.0000 0.3333  plane waves:    8507
 k-point  8 :  -0.3333-0.0000 0.3333  plane waves:    8504
 k-point  9 :   0.0000 0.3333 0.3333  plane waves:    8527
 k-point 10 :   0.3333 0.3333 0.3333  plane waves:    8514
 k-point 11 :  -0.3333 0.3333 0.3333  plane waves:    8516
 k-point 12 :  -0.0000-0.3333 0.3333  plane waves:    8533
 k-point 13 :   0.3333-0.3333 0.3333  plane waves:    8516
 k-point 14 :  -0.3333-0.3333 0.3333  plane waves:    8515

 maximum and minimum number of plane-waves per node :      1736     1674

 maximum number of plane-waves:      8577
 maximum index in each direction: 
   IXMAX=   10   IYMAX=   14   IZMAX=   14
   IXMIN=  -10   IYMIN=  -14   IZMIN=  -14

 WARNING: aliasing errors must be expected set NGX to  42 to avoid them
 NGY is ok and might be reduce to  58
 NGZ is ok and might be reduce to  58
 aliasing errors are usually negligible using standard VASP settings
 and one can safely disregard these warnings

 real space projection operators:
  total allocation   :      27417.38 KBytes
  max/ min on nodes  :       5532.47       5441.34


 parallel 3D FFT for wavefunctions:
    minimum data exchange during FFTs selected (reduces bandwidth)
 parallel 3D FFT for charge:
    minimum data exchange during FFTs selected (reduces bandwidth)


 total amount of memory used by VASP on root node    67281. kBytes
========================================================================

   base      :      30000. kBytes
   nonlr-proj:      10572. kBytes
   fftplans  :       2814. kBytes
   grid      :       5360. kBytes
   one-center:        124. kBytes
   wavefun   :      18411. kBytes
 
     INWAV:  cpu time    0.0000: real time    0.0000
 Broyden mixing: mesh for mixing (old mesh)
   NGX = 19   NGY = 29   NGZ = 29
  (NGX  = 80   NGY  =120   NGZ  =120)
  gives a total of  15979 points

 initial charge density was supplied:
 charge density of overlapping atoms calculated
 number of electron     292.0000000 magnetization 
 keeping initial charge density in first step


--------------------------------------------------------------------------------------------------------


 Maximum index for non-local projection operator         1253
 Maximum index for augmentation-charges          679 (set IRDMAX)


--------------------------------------------------------------------------------------------------------


 First call to EWALD:  gamma=   0.198
 Maximum number of real-space cells 3x 2x 2
 Maximum number of reciprocal cells 2x 3x 3

 FEWALD executed in parallel
    FEWALD:  cpu time    0.1014: real time    0.1022


----------------------------------------- Iteration    1(   1)  ---------------------------------------


    POTLOK:  cpu time    0.0511: real time    0.0661
    SETDIJ:  cpu time    0.0221: real time    0.0222
     EDDAV:  cpu time    1.0029: real time    1.1276
       DOS:  cpu time    0.0022: real time    0.0022
    --------------------------------------------
      LOOP:  cpu time    1.0868: real time    1.4998

 eigenvalue-minimisations  :  5416
 total energy-change (2. order) : 0.1793318E+04  (-0.1093240E+05)
 number of electron     292.0000000 magnetization 
 augmentation part      292.0000000 magnetization 

 Free energy of the ion-electron system (eV)
  ---------------------------------------------------
  alpha Z        PSCENC =      1534.79045361
  Ewald energy   TEWEN  =    -19193.35642539
  -Hartree energ DENC   =     -6659.71660621
  -exchange      EXHF   =         0.00000000
  -V(xc)+E(xc)   XCENC  =      -370.76865357
  PAW double counting   =     21162.58985281   -19499.48424177
  entropy T*S    EENTRO =         0.00280975
  eigenvalues    EBANDS =       -69.94899034
  atomic energy  EATOM  =     24889.20938069
  Solvation  Ediel_sol  =         0.00000000
  ---------------------------------------------------
  free energy    TOTEN  =      1793.31757959 eV

  energy without entropy =     1793.31476984  energy(sigma->0) =     1793.31664301


--------------------------------------------------------------------------------------------------------




----------------------------------------- Iteration    1(   2)  ---------------------------------------


     EDDAV:  cpu time    1.0265: real time    1.0310
       DOS:  cpu time    0.0009: real time    0.0009
    --------------------------------------------
      LOOP:  cpu time    1.0283: real time    1.1886

 eigenvalue-minimisations  :  5632
 total energy-change (2. order) :-0.1897058E+04  (-0.1830658E+04)
 number of electron     292.0000000 magnetization 
 augmentation part      292.0000000 magnetization 

 Free energy of the ion-electron system (eV)
  ---------------------------------------------------
  alpha Z        PSCENC =      1534.79045361
  Ewald energy   TEWEN  =    -19193.35642539
  -Hartree energ DENC   =     -6659.71660621
  -exchange      EXHF   =         0.00000000
  -V(xc)+E(xc)   XCENC  =      -370.76865357
  PAW double counting   =     21162.58985281   -19499.48424177
  entropy T*S    EENTRO =         0.00753428
  eigenvalues    EBANDS =     -1967.01198202
  atomic energy  EATOM  =     24889.20938069
  Solvation  Ediel_sol  =         0.00000000
  ---------------------------------------------------
  free energy    TOTEN  =      -103.74068756 eV

  energy without entropy =     -103.74822184  energy(sigma->0) =     -103.74319899


--------------------------------------------------------------------------------------------------------




----------------------------------------- Iteration    1(   3)  ---------------------------------------


     EDDAV:  cpu time    1.3461: real time    1.5900
       DOS:  cpu time    0.0010: real time    0.0010
    --------------------------------------------
      LOOP:  cpu time    1.3475: real time    1.6206

 eigenvalue-minimisations  :  8328
 total energy-change (2. order) :-0.2483632E+03  (-0.2359829E+03)
 number of electron     292.0000000 magnetization 
 augmentation part      292.0000000 magnetization 

 Free energy of the ion-electron system (eV)
  ---------------------------------------------------
  alpha Z        PSCENC =      1534.79045361
  Ewald energy   TEWEN  =    -19193.35642539
  -Hartree energ DENC   =     -6659.71660621
  -exchange      EXHF   =         0.00000000
  -V(xc)+E(xc)   XCENC  =      -370.76865357
  PAW double counting   =     21162.58985281   -19499.48424177
  entropy T*S    EENTRO =        -0.01808788
  eigenvalues    EBANDS =     -2215.34960425
  atomic energy  EATOM  =     24889.20938069
  Solvation  Ediel_sol  =         0.00000000
  ---------------------------------------------------
  free energy    TOTEN  =      -352.10393196 eV

  energy without entropy =     -352.08584408  energy(sigma->0) =     -352.09790267


--------------------------------------------------------------------------------------------------------




----------------------------------------- Iteration    1(   4)  ---------------------------------------


     EDDAV:  cpu time    1.3844: real time    1.5385
       DOS:  cpu time    0.0010: real time    0.0010
    --------------------------------------------
      LOOP:  cpu time    1.3858: real time    1.5674

 eigenvalue-minimisations  :  8336
 total energy-change (2. order) :-0.2876247E+02  (-0.2739074E+02)
 number of electron     292.0000000 magnetization 
 augmentation part      292.0000000 magnetization 

 Free energy of the ion-electron system (eV)
  ---------------------------------------------------
  alpha Z        PSCENC =      1534.79045361
  Ewald energy   TEWEN  =    -19193.35642539
  -Hartree energ DENC   =     -6659.71660621
  -exchange      EXHF   =         0.00000000
  -V(xc)+E(xc)   XCENC  =      -370.76865357
  PAW double counting   =     21162.58985281   -19499.48424177
  entropy T*S    EENTRO =        -0.00313208
  eigenvalues    EBANDS =     -2244.12703223
  atomic energy  EATOM  =     24889.20938069
  Solvation  Ediel_sol  =         0.00000000
  ---------------------------------------------------
  free energy    TOTEN  =      -380.86640413 eV

  energy without entropy =     -380.86327206  energy(sigma->0) =     -380.86536011


--------------------------------------------------------------------------------------------------------




----------------------------------------- Iteration    1(   5)  ---------------------------------------


     EDDAV:  cpu time    1.4076: real time    1.4135
       DOS:  cpu time    0.0010: real time    0.0010
    CHARGE:  cpu time    0.0304: real time    0.0306
    MIXING:  cpu time    0.0014: real time    0.0014
    --------------------------------------------
      LOOP:  cpu time    1.4828: real time    1.5186

 eigenvalue-minimisations  :  7912
 total energy-change (2. order) :-0.2906639E+01  (-0.2848852E+01)
 number of electron     292.0000001 magnetization 
 augmentation part       16.8056762 magnetization 

 Broyden mixing:
  rms(total) = 0.65768E+01    rms(broyden)= 0.65763E+01
  rms(prec ) = 0.68571E+01
  weight for this iteration     100.00

 Free energy of the ion-electron system (eV)
  ---------------------------------------------------
  alpha Z        PSCENC =      1534.79045361
  Ewald energy   TEWEN  =    -19193.35642539
  -Hartree energ DENC   =     -6659.71660621
  -exchange      EXHF   =         0.00000000
  -V(xc)+E(xc)   XCENC  =      -370.76865357
  PAW double counting   =     21162.58985281   -19499.48424177
  entropy T*S    EENTRO =        -0.00180091
  eigenvalues    EBANDS =     -2247.03500200
  atomic energy  EATOM  =     24889.20938069
  Solvation  Ediel_sol  =         0.00000000
  ---------------------------------------------------
  free energy    TOTEN  =      -383.77304273 eV

  energy without entropy =     -383.77124182  energy(sigma->0) =     -383.77244243


--------------------------------------------------------------------------------------------------------




----------------------------------------- Iteration    1(   6)  ---------------------------------------


    POTLOK:  cpu time    0.0306: real time    0.0307
    SETDIJ:  cpu time    0.0037: real time    0.0037
    EDDIAG:  cpu time    0.0764: real time    0.0767
  RMM-DIIS:  cpu time    0.7757: real time    0.7789
    ORTHCH:  cpu time    0.0118: real time    0.0119
       DOS:  cpu time    0.0027: real time    0.0027
    CHARGE:  cpu time    0.0316: real time    0.0318
    MIXING:  cpu time    0.0015: real time    0.0024
    --------------------------------------------
      LOOP:  cpu time    0.9348: real time    0.9690

 eigenvalue-minimisations  :  6912
 total energy-change (2. order) : 0.1057829E+02  (-0.2529001E+01)
 number of electron     292.0000001 magnetization 
 augmentation part       17.5213579 magnetization 

 Broyden mixing:
  rms(total) = 0.31377E+01    rms(broyden)= 0.31376E+01
  rms(prec ) = 0.34445E+01
  weight for this iteration     100.00

 eigenvalues of (default mixing * dielectric matrix)
  average eigenvalue GAMMA=   1.8311
  1.8311

 Free energy of the ion-electron system (eV)
  ---------------------------------------------------
  alpha Z        PSCENC =      1534.79045361
  Ewald energy   TEWEN  =    -19193.35642539
  -Hartree energ DENC   =     -6504.65218300
  -exchange      EXHF   =         0.00000000
  -V(xc)+E(xc)   XCENC  =      -373.18260056
  PAW double counting   =     26648.45577515   -24993.18316121
  entropy T*S    EENTRO =         0.02405073
  eigenvalues    EBANDS =     -2381.30004751
  atomic energy  EATOM  =     24889.20938069
  Solvation  Ediel_sol  =         0.00000000
  ---------------------------------------------------
  free energy    TOTEN  =      -373.19475747 eV

  energy without entropy =     -373.21880820  energy(sigma->0) =     -373.20277438


--------------------------------------------------------------------------------------------------------




----------------------------------------- Iteration    1(   7)  ---------------------------------------


    POTLOK:  cpu time    0.0290: real time    0.0291
    SETDIJ:  cpu time    0.0037: real time    0.0037
    EDDIAG:  cpu time    0.0979: real time    0.0983
  RMM-DIIS:  cpu time    0.7927: real time    0.7960
    ORTHCH:  cpu time    0.0118: real time    0.0118
       DOS:  cpu time    0.0015: real time    0.0015
    CHARGE:  cpu time    0.0291: real time    0.0298
    MIXING:  cpu time    0.0012: real time    0.0012
    --------------------------------------------
      LOOP:  cpu time    0.9676: real time    0.9996

 eigenvalue-minimisations  :  7442
 total energy-change (2. order) :-0.1929726E+01  (-0.2881511E+01)
 number of electron     292.0000001 magnetization 
 augmentation part       18.0239323 magnetization 

 Broyden mixing:
  rms(total) = 0.12223E+01    rms(broyden)= 0.12219E+01
  rms(prec ) = 0.34496E+01
  weight for this iteration     100.00

 eigenvalues of (default mixing * dielectric matrix)
  average eigenvalue GAMMA=   1.1649
  1.8431  0.4867

 Free energy of the ion-electron system (eV)
  ---------------------------------------------------
  alpha Z        PSCENC =      1534.79045361
  Ewald energy   TEWEN  =    -19193.35642539
  -Hartree energ DENC   =     -6430.97701857
  -exchange      EXHF   =         0.00000000
  -V(xc)+E(xc)   XCENC  =      -372.03520897
  PAW double counting   =     31813.87377529   -30154.08894293
  entropy T*S    EENTRO =         0.01248803
  eigenvalues    EBANDS =     -2462.55298515
  atomic energy  EATOM  =     24889.20938069
  Solvation  Ediel_sol  =         0.00000000
  ---------------------------------------------------
  free energy    TOTEN  =      -375.12448337 eV

  energy without entropy =     -375.13697140  energy(sigma->0) =     -375.12864605


--------------------------------------------------------------------------------------------------------




----------------------------------------- Iteration    1(   8)  ---------------------------------------


    POTLOK:  cpu time    0.0291: real time    0.0293
    SETDIJ:  cpu time    0.0038: real time    0.0038
    EDDIAG:  cpu time    0.0841: real time    0.0844
  RMM-DIIS:  cpu time    0.7656: real time    0.7694
    ORTHCH:  cpu time    0.0132: real time    0.0133
       DOS:  cpu time    0.0026: real time    0.0026
    CHARGE:  cpu time    0.0307: real time    0.0308
    MIXING:  cpu time    0.0020: real time    0.0020
    --------------------------------------------
      LOOP:  cpu time    0.9317: real time    0.9662

 eigenvalue-minimisations  :  7312
 total energy-change (2. order) : 0.6414598E+01  (-0.7489526E+00)
 number of electron     292.0000001 magnetization 
 augmentation part       17.8599462 magnetization 

 Broyden mixing:
  rms(total) = 0.44826E+00    rms(broyden)= 0.44769E+00
  rms(prec ) = 0.75473E+00
  weight for this iteration     100.00

 eigenvalues of (default mixing * dielectric matrix)
  average eigenvalue GAMMA=   1.0818
  1.8157  1.0291  0.4006

 Free energy of the ion-electron system (eV)
  ---------------------------------------------------
  alpha Z        PSCENC =      1534.79045361
  Ewald energy   TEWEN  =    -19193.35642539
  -Hartree energ DENC   =     -6403.57270904
  -exchange      EXHF   =         0.00000000
  -V(xc)+E(xc)   XCENC  =      -371.83092584
  PAW double counting   =     32913.37328650   -31251.39313089
  entropy T*S    EENTRO =        -0.00056278
  eigenvalues    EBANDS =     -2485.92925231
  atomic energy  EATOM  =     24889.20938069
  Solvation  Ediel_sol  =         0.00000000
  ---------------------------------------------------
  free energy    TOTEN  =      -368.70988545 eV

  energy without entropy =     -368.70932267  energy(sigma->0) =     -368.70969785


--------------------------------------------------------------------------------------------------------




----------------------------------------- Iteration    1(   9)  ---------------------------------------


    POTLOK:  cpu time    0.0322: real time    0.0330
    SETDIJ:  cpu time    0.0043: real time    0.0043
    EDDIAG:  cpu time    0.0866: real time    0.0875
  RMM-DIIS:  cpu time    0.7810: real time    0.7843
    ORTHCH:  cpu time    0.0118: real time    0.0119
       DOS:  cpu time    0.0013: real time    0.0013
    CHARGE:  cpu time    0.0302: real time    0.0302
    MIXING:  cpu time    0.0016: real time    0.0016
    --------------------------------------------
      LOOP:  cpu time    0.9496: real time    0.9859

 eigenvalue-minimisations  :  7555
 total energy-change (2. order) : 0.3052484E+00  (-0.2615157E+00)
 number of electron     292.0000001 magnetization 
 augmentation part       17.7397196 magnetization 

 Broyden mixing:
  rms(total) = 0.28471E+00    rms(broyden)= 0.28455E+00
  rms(prec ) = 0.39215E+00
  weight for this iteration     100.00

 eigenvalues of (default mixing * dielectric matrix)
  average eigenvalue GAMMA=   1.1018
  1.7774  1.7774  0.4262  0.4262

 Free energy of the ion-electron system (eV)
  ---------------------------------------------------
  alpha Z        PSCENC =      1534.79045361
  Ewald energy   TEWEN  =    -19193.35642539
  -Hartree energ DENC   =     -6416.17566976
  -exchange      EXHF   =         0.00000000
  -V(xc)+E(xc)   XCENC  =      -371.11245747
  PAW double counting   =     33106.61988396   -31440.97374191
  entropy T*S    EENTRO =         0.00437572
  eigenvalues    EBANDS =     -2477.41043653
  atomic energy  EATOM  =     24889.20938069
  Solvation  Ediel_sol  =         0.00000000
  ---------------------------------------------------
  free energy    TOTEN  =      -368.40463709 eV

  energy without entropy =     -368.40901280  energy(sigma->0) =     -368.40609566


--------------------------------------------------------------------------------------------------------




----------------------------------------- Iteration    1(  10)  ---------------------------------------


    POTLOK:  cpu time    0.0296: real time    0.0297
    SETDIJ:  cpu time    0.0037: real time    0.0037
    EDDIAG:  cpu time    0.0789: real time    0.0792
  RMM-DIIS:  cpu time    0.7833: real time    0.7869
    ORTHCH:  cpu time    0.0120: real time    0.0120
       DOS:  cpu time    0.0012: real time    0.0012
    CHARGE:  cpu time    0.0296: real time    0.0297
    MIXING:  cpu time    0.0013: real time    0.0013
    --------------------------------------------
      LOOP:  cpu time    0.9402: real time    0.9767

 eigenvalue-minimisations  :  7574
 total energy-change (2. order) : 0.2367302E-01  (-0.5551106E-01)
 number of electron     292.0000001 magnetization 
 augmentation part       17.6595312 magnetization 

 Broyden mixing:
  rms(total) = 0.15542E+00    rms(broyden)= 0.15538E+00
  rms(prec ) = 0.26771E+00
  weight for this iteration     100.00

 eigenvalues of (default mixing * dielectric matrix)
  average eigenvalue GAMMA=   1.0866
  1.9394  1.9394  0.6949  0.4564  0.4027

 Free energy of the ion-electron system (eV)
  ---------------------------------------------------
  alpha Z        PSCENC =      1534.79045361
  Ewald energy   TEWEN  =    -19193.35642539
  -Hartree energ DENC   =     -6424.13576750
  -exchange      EXHF   =         0.00000000
  -V(xc)+E(xc)   XCENC  =      -370.29430622
  PAW double counting   =     33341.98008757   -31670.16185585
  entropy T*S    EENTRO =         0.00201840
  eigenvalues    EBANDS =     -2476.41454938
  atomic energy  EATOM  =     24889.20938069
  Solvation  Ediel_sol  =         0.00000000
  ---------------------------------------------------
  free energy    TOTEN  =      -368.38096406 eV

  energy without entropy =     -368.38298246  energy(sigma->0) =     -368.38163686


--------------------------------------------------------------------------------------------------------




----------------------------------------- Iteration    1(  11)  ---------------------------------------


    POTLOK:  cpu time    0.0298: real time    0.0300
    SETDIJ:  cpu time    0.0038: real time    0.0038
    EDDIAG:  cpu time    0.0750: real time    0.0752
  RMM-DIIS:  cpu time    0.7946: real time    0.8687
    ORTHCH:  cpu time    0.0132: real time    0.0132
       DOS:  cpu time    0.0161: real time    0.0162
    CHARGE:  cpu time    0.0297: real time    0.0313
    MIXING:  cpu time    0.0015: real time    0.0017
    --------------------------------------------
      LOOP:  cpu time    0.9642: real time    1.0692

 eigenvalue-minimisations  :  7553
 total energy-change (2. order) : 0.3310399E-01  (-0.1571167E-01)
 number of electron     292.0000001 magnetization 
 augmentation part       17.6281957 magnetization 

 Broyden mixing:
  rms(total) = 0.75125E-01    rms(broyden)= 0.75078E-01
  rms(prec ) = 0.15182E+00
  weight for this iteration     100.00

 eigenvalues of (default mixing * dielectric matrix)
  average eigenvalue GAMMA=   1.0593
  2.1786  1.8792  0.9653  0.4977  0.3872  0.4476

 Free energy of the ion-electron system (eV)
  ---------------------------------------------------
  alpha Z        PSCENC =      1534.79045361
  Ewald energy   TEWEN  =    -19193.35642539
  -Hartree energ DENC   =     -6431.24068128
  -exchange      EXHF   =         0.00000000
  -V(xc)+E(xc)   XCENC  =      -369.80785353
  PAW double counting   =     33517.02526108   -31841.19417335
  entropy T*S    EENTRO =         0.00170499
  eigenvalues    EBANDS =     -2473.77552692
  atomic energy  EATOM  =     24889.20938069
  Solvation  Ediel_sol  =         0.00000000
  ---------------------------------------------------
  free energy    TOTEN  =      -368.34786008 eV

  energy without entropy =     -368.34956507  energy(sigma->0) =     -368.34842841


--------------------------------------------------------------------------------------------------------




----------------------------------------- Iteration    1(  12)  ---------------------------------------


    POTLOK:  cpu time    0.0296: real time    0.0319
    SETDIJ:  cpu time    0.0038: real time    0.0038
    EDDIAG:  cpu time    0.0768: real time    0.1317
  RMM-DIIS:  cpu time    0.7883: real time    0.8100
    ORTHCH:  cpu time    0.0117: real time    0.0118
       DOS:  cpu time    0.0014: real time    0.0014
    CHARGE:  cpu time    0.0293: real time    0.0294
    MIXING:  cpu time    0.0014: real time    0.0014
    --------------------------------------------
      LOOP:  cpu time    0.9432: real time    1.0724

 eigenvalue-minimisations  :  7603
 total energy-change (2. order) : 0.6395952E-02  (-0.6502664E-02)
 number of electron     292.0000001 magnetization 
 augmentation part       17.6276540 magnetization 

 Broyden mixing:
  rms(total) = 0.44695E-01    rms(broyden)= 0.44672E-01
  rms(prec ) = 0.69615E-01
  weight for this iteration     100.00

 eigenvalues of (default mixing * dielectric matrix)
  average eigenvalue GAMMA=   1.0149
  2.2578  1.8779  1.1241  0.5551  0.5551  0.3873  0.3472

 Free energy of the ion-electron system (eV)
  ---------------------------------------------------
  alpha Z        PSCENC =      1534.79045361
  Ewald energy   TEWEN  =    -19193.35642539
  -Hartree energ DENC   =     -6431.07629176
  -exchange      EXHF   =         0.00000000
  -V(xc)+E(xc)   XCENC  =      -369.69495731
  PAW double counting   =     33623.63689640   -31946.09341247
  entropy T*S    EENTRO =         0.00063655
  eigenvalues    EBANDS =     -2475.75774446
  atomic energy  EATOM  =     24889.20938069
  Solvation  Ediel_sol  =         0.00000000
  ---------------------------------------------------
  free energy    TOTEN  =      -368.34146413 eV

  energy without entropy =     -368.34210068  energy(sigma->0) =     -368.34167631


--------------------------------------------------------------------------------------------------------




----------------------------------------- Iteration    1(  13)  ---------------------------------------


    POTLOK:  cpu time    0.0293: real time    0.0294
    SETDIJ:  cpu time    0.0036: real time    0.0036
    EDDIAG:  cpu time    0.0750: real time    0.0753
  RMM-DIIS:  cpu time    0.7564: real time    0.8174
    ORTHCH:  cpu time    0.0143: real time    0.0222
       DOS:  cpu time    0.0009: real time    0.0015
    CHARGE:  cpu time    0.0324: real time    0.0517
    MIXING:  cpu time    0.0015: real time    0.0024
    --------------------------------------------
      LOOP:  cpu time    0.9139: real time    1.0349

 eigenvalue-minimisations  :  7706
 total energy-change (2. order) : 0.1301547E-02  (-0.1737956E-02)
 number of electron     292.0000001 magnetization 
 augmentation part       17.6257971 magnetization 

 Broyden mixing:
  rms(total) = 0.24439E-01    rms(broyden)= 0.24432E-01
  rms(prec ) = 0.32805E-01
  weight for this iteration     100.00

 eigenvalues of (default mixing * dielectric matrix)
  average eigenvalue GAMMA=   1.0665
  2.3020  1.8984  1.6396  0.8711  0.6186  0.4491  0.3894  0.3640

 Free energy of the ion-electron system (eV)
  ---------------------------------------------------
  alpha Z        PSCENC =      1534.79045361
  Ewald energy   TEWEN  =    -19193.35642539
  -Hartree energ DENC   =     -6432.10316295
  -exchange      EXHF   =         0.00000000
  -V(xc)+E(xc)   XCENC  =      -369.62805651
  PAW double counting   =     33694.15214307   -32015.58899583
  entropy T*S    EENTRO =         0.00025201
  eigenvalues    EBANDS =     -2475.81575128
  atomic energy  EATOM  =     24889.20938069
  Solvation  Ediel_sol  =         0.00000000
  ---------------------------------------------------
  free energy    TOTEN  =      -368.34016258 eV

  energy without entropy =     -368.34041458  energy(sigma->0) =     -368.34024658


--------------------------------------------------------------------------------------------------------




----------------------------------------- Iteration    1(  14)  ---------------------------------------


    POTLOK:  cpu time    0.0286: real time    0.0482
    SETDIJ:  cpu time    0.0039: real time    0.0054
    EDDIAG:  cpu time    0.0759: real time    0.0886
  RMM-DIIS:  cpu time    0.8074: real time    0.8111
    ORTHCH:  cpu time    0.0118: real time    0.0118
       DOS:  cpu time    0.0012: real time    0.0012
    CHARGE:  cpu time    0.0304: real time    0.0305
    MIXING:  cpu time    0.0015: real time    0.0015
    --------------------------------------------
      LOOP:  cpu time    0.9613: real time    1.0320

 eigenvalue-minimisations  :  7827
 total energy-change (2. order) :-0.9965144E-04  (-0.7398915E-03)
 number of electron     292.0000001 magnetization 
 augmentation part       17.6264529 magnetization 

 Broyden mixing:
  rms(total) = 0.14254E-01    rms(broyden)= 0.14251E-01
  rms(prec ) = 0.22445E-01
  weight for this iteration     100.00

 eigenvalues of (default mixing * dielectric matrix)
  average eigenvalue GAMMA=   1.0655
  2.4604  2.0597  1.6871  1.0176  0.5921  0.5921  0.4214  0.4054  0.3535

 Free energy of the ion-electron system (eV)
  ---------------------------------------------------
  alpha Z        PSCENC =      1534.79045361
  Ewald energy   TEWEN  =    -19193.35642539
  -Hartree energ DENC   =     -6432.42961246
  -exchange      EXHF   =         0.00000000
  -V(xc)+E(xc)   XCENC  =      -369.62127301
  PAW double counting   =     33729.32176168   -32050.30509811
  entropy T*S    EENTRO =         0.00053148
  eigenvalues    EBANDS =     -2475.94998073
  atomic energy  EATOM  =     24889.20938069
  Solvation  Ediel_sol  =         0.00000000
  ---------------------------------------------------
  free energy    TOTEN  =      -368.34026223 eV

  energy without entropy =     -368.34079371  energy(sigma->0) =     -368.34043939


--------------------------------------------------------------------------------------------------------




----------------------------------------- Iteration    1(  15)  ---------------------------------------


    POTLOK:  cpu time    0.0285: real time    0.0287
    SETDIJ:  cpu time    0.0036: real time    0.0036
    EDDIAG:  cpu time    0.0765: real time    0.0770
  RMM-DIIS:  cpu time    0.8621: real time    0.8808
    ORTHCH:  cpu time    0.0118: real time    0.0120
       DOS:  cpu time    0.0057: real time    0.0058
    CHARGE:  cpu time    0.0343: real time    0.0371
    MIXING:  cpu time    0.0016: real time    0.0016
    --------------------------------------------
      LOOP:  cpu time    1.0248: real time    1.0801

 eigenvalue-minimisations  :  7594
 total energy-change (2. order) :-0.1165753E-03  (-0.3587265E-03)
 number of electron     292.0000001 magnetization 
 augmentation part       17.6244149 magnetization 

 Broyden mixing:
  rms(total) = 0.60173E-02    rms(broyden)= 0.60138E-02
  rms(prec ) = 0.12551E-01
  weight for this iteration     100.00

 eigenvalues of (default mixing * dielectric matrix)
  average eigenvalue GAMMA=   1.0451
  2.5697  2.0546  1.5963  1.1774  0.7025  0.7025  0.3544  0.3892  0.4524  0.4524

 Free energy of the ion-electron system (eV)
  ---------------------------------------------------
  alpha Z        PSCENC =      1534.79045361
  Ewald energy   TEWEN  =    -19193.35642539
  -Hartree energ DENC   =     -6432.74684745
  -exchange      EXHF   =         0.00000000
  -V(xc)+E(xc)   XCENC  =      -369.61689313
  PAW double counting   =     33752.91328285   -32073.52853808
  entropy T*S    EENTRO =         0.00060517
  eigenvalues    EBANDS =     -2476.00539709
  atomic energy  EATOM  =     24889.20938069
  Solvation  Ediel_sol  =         0.00000000
  ---------------------------------------------------
  free energy    TOTEN  =      -368.34037881 eV

  energy without entropy =     -368.34098398  energy(sigma->0) =     -368.34058053


--------------------------------------------------------------------------------------------------------




----------------------------------------- Iteration    1(  16)  ---------------------------------------


    POTLOK:  cpu time    0.0286: real time    0.0323
    SETDIJ:  cpu time    0.0209: real time    0.0212
    EDDIAG:  cpu time    0.1319: real time    0.1327
  RMM-DIIS:  cpu time    0.7316: real time    0.7394
    ORTHCH:  cpu time    0.0118: real time    0.0118
       DOS:  cpu time    0.0009: real time    0.0009
    CHARGE:  cpu time    0.0294: real time    0.0294
    MIXING:  cpu time    0.0017: real time    0.0017
    --------------------------------------------
      LOOP:  cpu time    0.9573: real time    1.0004

 eigenvalue-minimisations  :  6680
 total energy-change (2. order) :-0.5234664E-04  (-0.1466980E-03)
 number of electron     292.0000001 magnetization 
 augmentation part       17.6243202 magnetization 

 Broyden mixing:
  rms(total) = 0.39529E-02    rms(broyden)= 0.39510E-02
  rms(prec ) = 0.71254E-02
  weight for this iteration     100.00

 eigenvalues of (default mixing * dielectric matrix)
  average eigenvalue GAMMA=   1.0268
  2.6406  2.0653  1.4935  1.4935  0.7603  0.7603  0.4851  0.4851  0.3499  0.3806
  0.3806

 Free energy of the ion-electron system (eV)
  ---------------------------------------------------
  alpha Z        PSCENC =      1534.79045361
  Ewald energy   TEWEN  =    -19193.35642539
  -Hartree energ DENC   =     -6432.89513374
[...]
     86       4.8897      2.00000
     87       4.9164      2.00000
     88       4.9276      2.00000
     89       4.9895      2.00000
     90       5.0698      2.00000
     91       5.1570      2.00000
     92       5.1861      2.00000
     93       5.2306      2.00000
     94       5.2657      2.00000
     95       5.2836      2.00000
     96       5.3325      2.00000
     97       5.3635      2.00000
     98       5.4011      2.00000
     99       5.4677      2.00000
    100       5.5125      2.00000
    101       5.5659      2.00000
    102       5.6066      2.00000
    103       5.6827      2.00000
    104       5.7205      2.00000
    105       5.8212      2.00000
    106       6.0326      2.00000
    107       6.0702      2.00000
    108       6.0983      2.00000
    109       6.1428      2.00000
    110       6.1665      2.00000
    111       6.2096      2.00000
    112       6.2315      2.00000
    113       6.2555      2.00000
    114       6.2906      2.00000
    115       6.3339      2.00000
    116       6.3692      2.00000
    117       6.3812      2.00000
    118       6.4118      2.00000
    119       6.4207      2.00000
    120       6.4614      2.00000
    121       6.4876      2.00000
    122       6.5275      2.00000
    123       6.5812      2.00000
    124       6.6178      2.00000
    125       6.6886      2.00000
    126       6.7222      2.00000
    127       6.7645      2.00000
    128       6.8103      2.00000
    129       6.8378      2.00000
    130       6.8879      2.00000
    131       6.9123      2.00000
    132       6.9540      2.00000
    133       7.0031      2.00002
    134       7.0438      2.00011
    135       7.0561      2.00017
    136       7.0726      2.00031
    137       7.1327      2.00228
    138       7.1797      2.00824
    139       7.2289      2.02428
    140       7.2631      2.04297
    141       7.2966      2.06270
    142       7.3284      2.07071
    143       7.3595      2.04860
    144       7.3747      2.01946
    145       7.4005      1.93244
    146       7.4449      1.64948
    147       7.4952      1.14734
    148       7.5146      0.92872
    149       7.5393      0.65817
    150       7.5872      0.23166
    151       7.6271      0.02408
    152       7.6804     -0.06889
    153       7.7242     -0.06047
    154       7.7450     -0.04819
    155       7.7969     -0.02029
    156       7.8166     -0.01331
    157       7.8545     -0.00522
    158       7.8778     -0.00272
    159       7.9303     -0.00051
    160       7.9824     -0.00007
    161       8.0006     -0.00004
    162       8.0463     -0.00000
    163       8.0907     -0.00000
    164       8.1552     -0.00000
    165       8.1989     -0.00000
    166       8.2511     -0.00000
    167       8.3173     -0.00000
    168       8.3728     -0.00000
    169       8.5733     -0.00000
    170       8.8336     -0.00000
    171       8.8623     -0.00000
    172       9.4204     -0.00000
    173       9.4635     -0.00000
    174       9.5377     -0.00000
    175       9.5766     -0.00000
    176       9.6220     -0.00000


--------------------------------------------------------------------------------------------------------


 soft charge-density along one line, spin component           1
         0         1         2         3         4         5         6         7         8         9
 total charge-density along one line
 
 pseudopotential strength for first ion, spin component:           1
 13.490 -26.351   0.000  -0.000   0.000  -0.000   0.000   0.001
-26.351  14.059   0.000   0.000  -0.002  -0.001  -0.000   0.001
  0.000   0.000  -6.463   0.002  -0.002   5.199  -0.001   0.003
 -0.000   0.000   0.002  -6.465  -0.001  -0.001   5.201   0.001
  0.000  -0.002  -0.002  -0.001  -6.465   0.003   0.001   5.202
 -0.000  -0.001   5.199  -0.001   0.003   8.287   0.001  -0.002
  0.000  -0.000  -0.001   5.201   0.001   0.001   8.286  -0.001
  0.001   0.001   0.003   0.001   5.202  -0.002  -0.001   8.285
 -0.002  -0.001  -0.000   0.000   0.000   0.001  -0.000  -0.000
  0.001   0.000  -0.001   0.000   0.000   0.000  -0.000  -0.000
 -0.000   0.000   0.000  -0.000   0.000  -0.000   0.000  -0.000
 -0.001  -0.001   0.000  -0.000   0.000  -0.000   0.001  -0.000
 -0.001  -0.000   0.000   0.000  -0.000  -0.000  -0.000   0.000
 -0.003  -0.002  -0.001   0.000   0.001   0.001  -0.000  -0.001
  0.002   0.000  -0.001   0.001   0.000   0.000  -0.001  -0.000
 -0.000   0.000   0.000  -0.000   0.000  -0.000   0.000  -0.000
 -0.002  -0.001   0.000  -0.001   0.001  -0.000   0.001  -0.000
 -0.001  -0.001   0.001   0.001  -0.000  -0.000  -0.000   0.000
 total augmentation occupancy for first ion, spin component:           1
  1.999  -0.025   0.000  -0.000  -0.000   0.000   0.000  -0.000  -0.001  -0.001   0.002  -0.001  -0.007   0.001   0.001  -0.001
 -0.025   1.430   0.002   0.000  -0.001  -0.007   0.004   0.000  -0.021  -0.062   0.003   0.002  -0.041   0.018   0.034   0.001
  0.000   0.002   2.003   0.001  -0.001  -0.026  -0.001   0.002  -0.006  -0.004  -0.008  -0.012  -0.016   0.002  -0.002   0.005
 -0.000   0.000   0.001   2.002  -0.000  -0.001  -0.024   0.001  -0.014  -0.013   0.011  -0.004   0.005   0.007   0.011  -0.008
 -0.000  -0.001  -0.001  -0.000   2.003   0.002   0.001  -0.025  -0.015  -0.014   0.003   0.009  -0.009   0.013   0.007  -0.002
  0.000  -0.007  -0.026  -0.001   0.002   0.043   0.001  -0.003   0.017   0.029   0.012   0.013   0.019  -0.010  -0.015  -0.008
  0.000   0.004  -0.001  -0.024   0.001   0.001   0.039  -0.001   0.017  -0.012  -0.002   0.010  -0.018  -0.008   0.007   0.001
 -0.000   0.000   0.002   0.001  -0.025  -0.003  -0.001   0.039  -0.015   0.017  -0.000  -0.012   0.003   0.008  -0.008   0.001
 -0.001  -0.021  -0.006  -0.014  -0.015   0.017   0.017  -0.015   4.216  -0.059  -0.044  -0.002  -0.023  -2.197   0.031   0.014
 -0.001  -0.062  -0.004  -0.013  -0.014   0.029  -0.012   0.017  -0.059   4.299   0.055  -0.154   0.121   0.031  -2.248  -0.017
  0.002   0.003  -0.008   0.011   0.003   0.012  -0.002  -0.000  -0.044   0.055   4.138  -0.019   0.047   0.014  -0.017  -2.211
 -0.001   0.002  -0.012  -0.004   0.009   0.013   0.010  -0.012  -0.002  -0.154  -0.019   4.065   0.012   0.002   0.085   0.011
 -0.007  -0.041  -0.016   0.005  -0.009   0.019  -0.018   0.003  -0.023   0.121   0.047   0.012   4.104   0.007  -0.064  -0.030
  0.001   0.018   0.002   0.007   0.013  -0.010  -0.008   0.008  -2.197   0.031   0.014   0.002   0.007   1.159  -0.016  -0.002
  0.001   0.034  -0.002   0.011   0.007  -0.015   0.007  -0.008   0.031  -2.248  -0.017   0.085  -0.064  -0.016   1.189   0.003
 -0.001   0.001   0.005  -0.008  -0.002  -0.008   0.001   0.001   0.014  -0.017  -2.211   0.011  -0.030  -0.002   0.003   1.191
  0.001   0.003   0.006   0.002  -0.004  -0.006  -0.006   0.004   0.002   0.085   0.012  -2.113  -0.001  -0.002  -0.047  -0.007
  0.005   0.028   0.010  -0.000   0.007  -0.013   0.008  -0.002   0.007  -0.065  -0.030  -0.001  -2.213  -0.001   0.035   0.019


------------------------ aborting loop because EDIFF is reached ----------------------------------------


    CHARGE:  cpu time    0.0283: real time    0.0285
    FORLOC:  cpu time    0.0133: real time    0.0133
    FORNL :  cpu time    0.2992: real time    0.3018
    STRESS:  cpu time    0.9023: real time    0.9081
    FORCOR:  cpu time    0.0602: real time    0.0605
    FORHAR:  cpu time    0.0260: real time    0.0262
    MIXING:  cpu time    0.0018: real time    0.0018
    OFIELD:  cpu time    0.0000: real time    0.0000

  FORCE on cell =-STRESS in cart. coord.  units (eV):
  Direction    XX          YY          ZZ          XY          YZ          ZX
  --------------------------------------------------------------------------------------
  Alpha Z  1544.47747  1544.47747  1544.47747
  Ewald   -6048.64333 -6482.39263 -6720.09898   -67.51174   -95.62262   -77.67845
  Hartree  2481.33581  2059.08408  1862.25112   -62.43621   -96.95636   -63.32554
  E(xc)   -1277.72234 -1278.10757 -1278.57650     0.09823    -0.30960    -0.08025
  Local   -1494.92372  -637.38554  -202.75534   129.57792   193.71952   140.39905
  n-local  -300.86091  -303.36249  -302.47041    -1.25423    -1.44138     0.16356
  augment   212.29670   212.20978   212.28691     0.21797     0.05676    -0.05772
  Kinetic  4884.02619  4885.47502  4884.87635     1.36642     0.61173     0.55987
  Fock        0.00000     0.00000     0.00000     0.00000     0.00000     0.00000
  -------------------------------------------------------------------------------------
  Total      -0.01413    -0.00187    -0.00937     0.05837     0.05805    -0.01948
  in kB      -0.03155    -0.00418    -0.02094     0.13037     0.12965    -0.04351
  external pressure =       -0.02 kB  Pullay stress =        0.00 kB


 VOLUME and BASIS-vectors are now :
 -----------------------------------------------------------------------------
  energy-cutoff  :      300.00
  volume of cell :      717.35
      direct lattice vectors                 reciprocal lattice vectors
     6.853570969 -0.005125032  0.002851470     0.145909444  0.000105899 -0.000064773
    -0.007429498 10.245556103  0.014810930     0.000073044  0.097603544 -0.000138109
     0.004524646  0.014452148 10.215930356    -0.000040832 -0.000141534  0.097886555

  length of vectors
     6.853573478 10.245569502 10.215941580     0.145909497  0.097603669  0.097886666


 FORCES acting on ions
    electron-ion (+dipol)            ewald-force                    non-local-force                 convergence-correction
 -----------------------------------------------------------------------------------------------
   -.157E+03 0.199E+01 0.609E+02   0.157E+03 -.227E+01 -.608E+02   -.832E-01 0.289E+00 -.780E-01   -.767E-02 -.522E-02 0.589E-02
   -.517E+02 0.957E+02 -.229E+03   0.518E+02 -.958E+02 0.229E+03   -.109E+00 0.169E+00 -.200E+00   -.242E-02 -.792E-02 -.731E-02
   -.133E+03 -.198E+03 0.129E+03   0.133E+03 0.198E+03 -.129E+03   0.223E+00 0.550E-01 0.445E+00   -.534E-02 0.239E-03 -.281E-02
   0.169E+01 0.174E+03 0.190E+03   -.129E+01 -.174E+03 -.190E+03   -.400E+00 0.741E-01 0.852E-01   0.424E-02 -.171E-02 -.316E-03
   0.513E+02 0.132E+03 -.167E+03   -.514E+02 -.132E+03 0.167E+03   0.944E-01 -.196E-01 -.906E-01   0.268E-02 -.983E-02 -.554E-02
   0.710E+02 -.352E+01 -.274E+03   -.711E+02 0.335E+01 0.274E+03   0.978E-01 0.165E+00 -.355E+00   0.207E-02 0.726E-02 -.427E-02
   0.166E+03 0.156E+03 0.467E+02   -.167E+03 -.155E+03 -.468E+02   0.419E+00 -.404E+00 0.122E+00   0.450E-02 0.486E-02 0.823E-02
   0.136E+03 0.153E+03 0.128E+03   -.135E+03 -.153E+03 -.128E+03   -.218E+00 -.239E+00 0.477E+00   -.222E-02 -.109E-02 0.947E-02
   -.285E+02 -.665E+02 0.265E+02   0.290E+02 0.670E+02 -.271E+02   -.477E+00 -.496E+00 0.568E+00   -.148E-04 -.896E-03 0.834E-03
   -.230E+02 -.180E+02 -.618E+02   0.230E+02 0.178E+02 0.618E+02   -.743E-01 0.191E+00 0.478E-01   -.630E-03 0.294E-02 0.285E-03
   -.178E+02 0.472E+02 -.509E+02   0.181E+02 -.467E+02 0.510E+02   -.324E+00 -.592E+00 -.162E+00   0.690E-03 0.129E-02 -.249E-02
   0.562E+02 0.511E+01 0.220E+02   -.564E+02 -.525E+01 -.220E+02   0.135E+00 0.141E+00 0.420E-01   0.155E-02 -.181E-02 0.138E-02
   0.458E+01 -.100E+03 -.953E+00   -.462E+01 0.101E+03 0.107E+01   0.337E-01 -.336E+00 -.113E+00   -.102E-03 -.110E-02 -.295E-03
   0.196E+02 -.791E+01 -.337E+01   -.197E+02 0.687E+01 0.370E+01   0.900E-01 0.103E+01 -.339E+00   0.668E-03 0.228E-02 -.887E-03
   0.167E+02 0.451E+02 -.603E+02   -.170E+02 -.448E+02 0.604E+02   0.329E+00 -.356E+00 -.132E+00   -.354E-03 0.206E-02 -.208E-02
   -.920E+01 0.547E+02 0.565E+02   0.898E+01 -.549E+02 -.564E+02   0.223E+00 0.207E+00 -.105E+00   -.863E-03 0.109E-02 -.294E-03
   -.101E+03 -.159E+03 -.321E+02   0.101E+03 0.160E+03 0.325E+02   -.586E+00 -.142E+01 -.352E+00   -.368E-03 -.492E-02 -.208E-01
   -.118E+03 -.968E+02 0.178E+03   0.118E+03 0.961E+02 -.179E+03   -.515E+00 0.707E+00 0.457E+00   0.309E-02 0.240E-02 -.353E-02
   -.685E+02 -.444E+02 0.299E+02   0.687E+02 0.431E+02 -.301E+02   -.153E+00 0.128E+01 0.174E+00   -.157E-01 0.167E-02 0.879E-03
   -.188E+03 0.208E+03 0.185E+02   0.188E+03 -.208E+03 -.183E+02   -.407E+00 -.641E+00 -.158E+00   0.241E-03 0.117E-01 0.147E-01
   0.980E+02 -.161E+03 -.145E+03   -.986E+02 0.162E+03 0.146E+03   0.579E+00 -.121E+01 -.760E+00   0.746E-02 -.122E-01 -.973E-02
   0.118E+03 -.269E+02 0.128E+03   -.118E+03 0.264E+02 -.128E+03   0.476E+00 0.500E+00 0.340E+00   -.259E-02 0.525E-02 0.329E-02
   0.116E+03 -.259E+03 0.144E+03   -.117E+03 0.260E+03 -.144E+03   0.608E+00 -.932E+00 0.703E+00   0.719E-03 0.119E-01 0.558E-02
   0.114E+03 0.129E+03 -.281E+03   -.113E+03 -.130E+03 0.281E+03   -.836E+00 0.910E+00 0.742E+00   0.785E-02 0.572E-02 0.785E-03
   -.693E+01 -.970E+02 -.228E+02   0.692E+01 0.972E+02 0.231E+02   0.163E-01 -.197E+00 -.298E+00   0.566E-03 -.990E-03 0.113E-03
   0.180E+02 -.942E+02 -.110E+03   -.172E+02 0.937E+02 0.110E+03   -.842E+00 0.553E+00 -.355E-01   0.326E-03 0.344E-02 0.446E-04
   0.140E+01 -.379E+02 0.596E+02   -.117E+01 0.383E+02 -.592E+02   -.233E+00 -.396E+00 -.403E+00   0.452E-03 0.170E-02 0.150E-02
   -.500E+02 0.317E+02 0.636E+02   0.503E+02 -.328E+02 -.636E+02   -.216E+00 0.115E+01 -.645E-02   -.137E-02 0.125E-02 0.157E-03
   -.300E+02 0.119E+03 0.566E+02   0.299E+02 -.118E+03 -.559E+02   0.409E-01 -.727E+00 -.755E+00   0.162E-02 -.143E-02 -.200E-02
   -.196E+02 -.997E+02 -.994E+02   0.188E+02 0.991E+02 0.996E+02   0.867E+00 0.594E+00 -.191E+00   0.577E-04 0.249E-02 -.671E-03
   0.506E+02 0.210E+02 0.107E+03   -.508E+02 -.217E+02 -.108E+03   0.218E+00 0.721E+00 0.433E+00   0.116E-02 0.418E-03 0.162E-02
   0.303E+02 0.128E+03 0.637E+02   -.303E+02 -.128E+03 -.629E+02   -.143E-01 -.632E+00 -.758E+00   -.308E-03 -.764E-03 -.205E-02
   -.611E+02 0.387E+02 0.211E+02   0.609E+02 -.380E+02 -.212E+02   0.174E+00 -.662E+00 0.503E-01   -.181E-03 -.182E-02 0.159E-02
   -.620E+02 0.564E+02 -.866E+02   0.616E+02 -.571E+02 0.860E+02   0.400E+00 0.674E+00 0.623E+00   -.161E-02 -.212E-02 0.805E-04
   -.463E+01 -.573E+02 0.389E+02   0.437E+01 0.577E+02 -.387E+02   0.257E+00 -.448E+00 -.242E+00   -.708E-03 -.806E-03 0.134E-02
   0.609E+02 -.699E+02 0.564E+02   -.608E+02 0.699E+02 -.568E+02   -.443E-01 0.439E-01 0.416E+00   0.128E-02 -.644E-03 -.407E-04
 -----------------------------------------------------------------------------------------------
   0.253E+00 0.246E+00 -.186E+00   -.568E-13 0.284E-13 -.107E-12   -.252E+00 -.260E+00 0.191E+00   -.125E-02 0.146E-01 -.738E-02
 
 
 POSITION                                       TOTAL-FORCE (eV/Angst)
 -----------------------------------------------------------------------------------
      6.79682      0.05279      0.09855         0.003174     -0.000128     -0.000451
      0.00522     10.23693      3.35669        -0.001358     -0.003338      0.000135
      6.77650      3.31726     -0.00331        -0.000503     -0.005503      0.000382
      0.07793      6.77476      6.77580        -0.001785      0.003916      0.001159
      3.41343     10.21105      3.34564        -0.002057      0.002784     -0.002555
      5.13161      5.13048      1.76111        -0.005882     -0.000911     -0.003270
      3.42903      6.83309     10.08005         0.002741      0.002002     -0.002627
      5.19069      8.58081      8.42689         0.001650     -0.003052     -0.005391
      1.76947      1.72617      8.42968         0.003553      0.004051      0.000222
      1.71993      5.13732      1.68589         0.002899     -0.005074     -0.002129
      0.08771      6.96646      3.54078         0.000890      0.002573     -0.001647
      3.46540      0.03362      0.11703         0.001059      0.002271      0.001297
      5.13416      1.72584      5.16721        -0.000268     -0.001866      0.000935
      5.12519      4.99293      5.06678        -0.002008     -0.001703     -0.002920
      3.35159      7.00531      3.50931        -0.000917     -0.000027      0.000740
      3.34708      6.78407      6.78164         0.001592     -0.000345      0.004363
      1.75437      1.84474      1.77202         0.004610      0.001947     -0.001438
      0.02804      0.03075      6.81979        -0.000850      0.000822      0.003905
      1.72525      4.96935      5.05357        -0.001139      0.000485     -0.003940
      0.02048      6.82232     10.11047        -0.005757      0.001454      0.001874
      5.07566      1.89538      1.87866        -0.006347      0.000936     -0.003609
      3.41145     10.23670      6.83273        -0.001532      0.008163      0.003682
      5.07123      1.77924      8.39474        -0.004670      0.000405      0.001038
      5.24589      8.30985      1.62491         0.000353     -0.001704      0.004071
      1.72145      1.69515      5.19888         0.002819     -0.001133     -0.001052
      0.12663      3.31543      3.44070         0.002334     -0.004360     -0.001727
      0.02816      3.49434      6.85606        -0.000244      0.000328     -0.000883
      1.72876      4.95159      8.56648         0.003682      0.002098      0.000558
      1.69728      8.79499      5.31013         0.004089     -0.002833      0.000595
      3.29267      3.32053      3.43779         0.001998     -0.005355     -0.001100
      5.12840      5.01335      8.43673        -0.000259      0.005039      0.006547
      5.15352      8.70969      5.28983         0.002012     -0.002229     -0.000057
      1.68621      8.67069      8.51784         0.001205     -0.001784     -0.005030
      1.61572      8.34797      1.48265        -0.000098     -0.000035      0.006020
      3.38277      3.52002      6.83731        -0.003271     -0.000100      0.000197
      3.46231      3.36979     10.19646        -0.001718      0.002204      0.002106
 -----------------------------------------------------------------------------------
    total drift:                               -0.000884      0.000575     -0.002041


--------------------------------------------------------------------------------------------------------



  FREE ENERGIE OF THE ION-ELECTRON SYSTEM (eV)
  ---------------------------------------------------
  free  energy   TOTEN  =      -368.53796685 eV

  energy  without entropy=     -368.54131586  energy(sigma->0) =     -368.53908318
 
 d Force = 0.7946357E-05[-0.200E-04, 0.359E-04]  d Energy = 0.1270665E-04-0.476E-05
 d Force = 0.2865468E+00[ 0.286E+00, 0.287E+00]  d Ewald  = 0.4741318E+00-0.188E+00


--------------------------------------------------------------------------------------------------------


    POTLOK:  cpu time    0.0481: real time    0.0483


--------------------------------------------------------------------------------------------------------




--------------------------------------------------------------------------------------------------------


  
 reached required accuracy - stopping structural energy minimisation
     LOOP+:  cpu time    4.5605: real time    5.0976
    4ORBIT:  cpu time    0.0000: real time    0.0000

 total amount of memory used by VASP on root node    67281. kBytes
========================================================================

   base      :      30000. kBytes
   nonlr-proj:      10572. kBytes
   fftplans  :       2814. kBytes
   grid      :       5360. kBytes
   one-center:        124. kBytes
   wavefun   :      18411. kBytes
 
  
  
 General timing and accounting informations for this job:
 ========================================================
  
                  Total CPU time used (sec):      266.806
                            User time (sec):      265.588
                          System time (sec):        1.218
                         Elapsed time (sec):      298.027
  
                   Maximum memory used (kb):      286992.
                   Average memory used (kb):           0.
  
                          Minor page faults:       155586
                          Major page faults:           33
                 Voluntary context switches:        10120
