 vasp.5.4.1 05Feb16 (build Jan 29 2020 16:04:39) complex                        
  
 executed on           IFC91_ompi date 2020.06.15  12:03:36
 running on  160 total cores
 distrk:  each k-point on   20 cores,    8 groups
 distr:  one band on NCORES_PER_BAND=   5 cores,    4 groups


--------------------------------------------------------------------------------------------------------


 INCAR:
 POTCAR:    PAW_PBE Hf 20Jan2003                  
 POTCAR:    PAW_PBE Nb_sv 25May2007               
 POTCAR:    PAW_PBE Zr_sv 04Jan2005               
 POTCAR:    PAW_PBE Ta 17Jan2003                  

 ----------------------------------------------------------------------------- 
|                                                                             |
|           W    W    AA    RRRRR   N    N  II  N    N   GGGG   !!!           |
|           W    W   A  A   R    R  NN   N  II  NN   N  G    G  !!!           |
|           W    W  A    A  R    R  N N  N  II  N N  N  G       !!!           |
|           W WW W  AAAAAA  RRRRR   N  N N  II  N  N N  G  GGG   !            |
|           WW  WW  A    A  R   R   N   NN  II  N   NN  G    G                |
|           W    W  A    A  R    R  N    N  II  N    N   GGGG   !!!           |
|                                                                             |
|      For optimal performance we recommend to set                            |
|        NCORE= 4 - approx SQRT( number of cores)                             |
|      NCORE specifies how many cores store one orbital (NPAR=cpu/NCORE).     |
|      This setting can  greatly improve the performance of VASP for DFT.     |
|      The default, NPAR=number of cores might be grossly inefficient         |
|      on modern multi-core architectures or massively parallel machines.     |
|      Do your own testing !!!!                                               |
|      Unfortunately you need to use the default for GW and RPA calculations. |
|      (for HF NCORE is supported but not extensively tested yet)             |
|                                                                             |
 ----------------------------------------------------------------------------- 


 ----------------------------------------------------------------------------- 
|                                                                             |
|           W    W    AA    RRRRR   N    N  II  N    N   GGGG   !!!           |
|           W    W   A  A   R    R  NN   N  II  NN   N  G    G  !!!           |
|           W    W  A    A  R    R  N N  N  II  N N  N  G       !!!           |
|           W WW W  AAAAAA  RRRRR   N  N N  II  N  N N  G  GGG   !            |
|           WW  WW  A    A  R   R   N   NN  II  N   NN  G    G                |
|           W    W  A    A  R    R  N    N  II  N    N   GGGG   !!!           |
|                                                                             |
|      You have enabled k-point parallelism (KPAR>1).                         |
|      This developmental code was originally  written by Paul Kent at ORNL,  |
|      and carefully double checked in Vienna.                                |
|      GW as well as linear response parallelism added by Martijn Marsman     |
|      and Georg Kresse.                                                      |
|      Carefully verify results versus KPAR=1.                                |
|      Report problems to Paul Kent and Vienna.                               |
|                                                                             |
 ----------------------------------------------------------------------------- 

 POTCAR:    PAW_PBE Hf 20Jan2003                  
   VRHFIN =Hf: 6s5d                                                             
   LEXCH  = PE                                                                  
   EATOM  =    75.9011 eV,    5.5786 Ry                                         
                                                                                
   TITEL  = PAW_PBE Hf 20Jan2003                                                
   LULTRA =        F    use ultrasoft PP ?                                      
   IUNSCR =        1    unscreen: 0-lin 1-nonlin 2-no                           
   RPACOR =    2.500    partial core radius                                     
   POMASS =  178.490; ZVAL   =    4.000    mass and valenz                      
   RCORE  =    3.000    outmost cutoff radius                                   
   RWIGS  =    3.050; RWIGS  =    1.614    wigner-seitz radius (au A)           
   ENMAX  =  220.334; ENMIN  =  165.250 eV                                      
   RCLOC  =    2.212    cutoff for local pot                                    
   LCOR   =        T    correct aug charges                                     
   LPAW   =        T    paw PP                                                  
   EAUG   =  335.116                                                            
   DEXC   =    0.000                                                            
   RMAX   =    3.077    core radius for proj-oper                               
   RAUG   =    1.300    factor for augmentation sphere                          
   RDEP   =    3.047    radius for radial grids                                 
   RDEPT  =    2.344    core radius for aug-charge                              
                                                                                
   Atomic configuration                                                         
   16 entries                                                                   
     n  l   j            E        occ.                                          
     1  0  0.50    -65259.4397   2.0000                                         
     2  0  0.50    -11157.9882   2.0000                                         
     2  1  1.50     -9795.2113   6.0000                                         
     3  0  0.50     -2541.4058   2.0000                                         
     3  1  1.50     -2134.4770   6.0000                                         
     3  2  2.50     -1653.5418  10.0000                                         
     4  0  0.50      -510.9575   2.0000                                         
     4  1  1.50      -377.5023   6.0000                                         
     4  2  2.50      -205.2085  10.0000                                         
     4  3  3.50       -15.4905  14.0000                                         
     5  0  0.50       -65.6020   2.0000                                         
     5  1  1.50       -34.2798   6.0000                                         
     5  2  2.50        -1.9877   3.0000                                         
     6  0  0.50        -4.7357   1.0000                                         
     6  1  1.50        -1.3606   0.0000                                         
     5  3  2.50        -1.3606   0.0000                                         
   Description                                                                  
     l       E           TYP  RCUT    TYP  RCUT                                 
     2     -1.9876627     23  2.500                                             
     2      0.0744703     23  2.500                                             
     0     -4.7356889     23  2.600                                             
     0      3.2364747     23  2.600                                             
     1     -1.3605826     23  3.000                                             
     1     27.2116520     23  3.000                                             
  local pseudopotential read in
  partial core-charges read in
  partial kinetic energy density read in
  atomic valenz-charges read in
  non local Contribution for L=           2  read in
    real space projection operators read in
  non local Contribution for L=           2  read in
    real space projection operators read in
  non local Contribution for L=           0  read in
    real space projection operators read in
  non local Contribution for L=           0  read in
    real space projection operators read in
  non local Contribution for L=           1  read in
    real space projection operators read in
  non local Contribution for L=           1  read in
    real space projection operators read in
    PAW grid and wavefunctions read in
 
   number of l-projection  operators is LMAX  =           6
   number of lm-projection operators is LMMAX =          18
 
 POTCAR:    PAW_PBE Nb_sv 25May2007               
   VRHFIN =Nb: 4p5s4d                                                           
   LEXCH  = PE                                                                  
   EATOM  =  1555.1913 eV,  114.3033 Ry                                         
                                                                                
   TITEL  = PAW_PBE Nb_sv 25May2007                                             
   LULTRA =        F    use ultrasoft PP ?                                      
   IUNSCR =        1    unscreen: 0-lin 1-nonlin 2-no                           
   RPACOR =    1.800    partial core radius                                     
   POMASS =   92.910; ZVAL   =   13.000    mass and valenz                      
   RCORE  =    2.400    outmost cutoff radius                                   
   RWIGS  =    2.400; RWIGS  =    1.270    wigner-seitz radius (au A)           
   ENMAX  =  293.235; ENMIN  =  219.927 eV                                      
   ICORE  =        3    local potential                                         
   LCOR   =        T    correct aug charges                                     
   LPAW   =        T    paw PP                                                  
   EAUG   =  455.659                                                            
   DEXC   =    0.000                                                            
   RMAX   =    2.456    core radius for proj-oper                               
   RAUG   =    1.300    factor for augmentation sphere                          
   RDEP   =    2.451    radius for radial grids                                 
   RDEPT  =    1.956    core radius for aug-charge                              
                                                                                
   Atomic configuration                                                         
   11 entries                                                                   
     n  l   j            E        occ.                                          
     1  0  0.50    -18805.2457   2.0000                                         
     2  0  0.50     -2630.2869   2.0000                                         
     2  1  1.50     -2348.4046   6.0000                                         
     3  0  0.50      -438.8757   2.0000                                         
     3  1  1.50      -346.7588   6.0000                                         
     3  2  2.50      -196.2560  10.0000                                         
     4  0  0.50       -58.3859   2.0000                                         
     5  0  0.50        -3.9816   1.0000                                         
     4  1  1.50       -34.5141   6.0000                                         
     4  2  2.50        -3.0408   4.0000                                         
     4  3  2.50        -1.3606   0.0000                                         
   Description                                                                  
     l       E           TYP  RCUT    TYP  RCUT                                 
     0    -58.3859094     23  2.200                                             
     0     -3.9816262     23  2.200                                             
     1    -34.5140738     23  2.200                                             
     1     13.6058260     23  2.200                                             
     2     -3.0408010     23  2.200                                             
     2     -0.1283038     23  2.200                                             
     3     -1.3605826     23  2.400                                             
  local pseudopotential read in
  partial core-charges read in
  partial kinetic energy density read in
  atomic valenz-charges read in
  non local Contribution for L=           0  read in
    real space projection operators read in
  non local Contribution for L=           0  read in
    real space projection operators read in
  non local Contribution for L=           1  read in
    real space projection operators read in
  non local Contribution for L=           1  read in
    real space projection operators read in
  non local Contribution for L=           2  read in
    real space projection operators read in
  non local Contribution for L=           2  read in
    real space projection operators read in
    PAW grid and wavefunctions read in
 
   number of l-projection  operators is LMAX  =           6
   number of lm-projection operators is LMMAX =          18
 
 POTCAR:    PAW_PBE Zr_sv 04Jan2005               
   VRHFIN =Zr: 4s4p5s4d                                                         
   LEXCH  = PE                                                                  
   EATOM  =  1284.2219 eV,   94.3876 Ry                                         
                                                                                
   TITEL  = PAW_PBE Zr_sv 04Jan2005                                             
   LULTRA =        F    use ultrasoft PP ?                                      
   IUNSCR =        1    unscreen: 0-lin 1-nonlin 2-no                           
   RPACOR =    2.200    partial core radius                                     
   POMASS =   91.224; ZVAL   =   12.000    mass and valenz                      
   RCORE  =    2.500    outmost cutoff radius                                   
   RWIGS  =    3.070; RWIGS  =    1.625    wigner-seitz radius (au A)           
   ENMAX  =  229.898; ENMIN  =  172.424 eV                                      
   ICORE  =        3    local potential                                         
   LCOR   =        T    correct aug charges                                     
   LPAW   =        T    paw PP                                                  
   EAUG   =  461.257                                                            
   DEXC   =    0.000                                                            
   RMAX   =    2.561    core radius for proj-oper                               
   RAUG   =    1.300    factor for augmentation sphere                          
   RDEP   =    2.597    radius for radial grids                                 
   RDEPT  =    2.007    core radius for aug-charge                              
                                                                                
   Atomic configuration                                                         
   11 entries                                                                   
     n  l   j            E        occ.                                          
     1  0  0.50    -17820.0161   2.0000                                         
     2  0  0.50     -2467.0882   2.0000                                         
     2  1  1.50     -2199.6095   6.0000                                         
     3  0  0.50      -402.4863   2.0000                                         
     3  1  1.50      -315.3675   6.0000                                         
     3  2  2.50      -172.4472  10.0000                                         
     4  0  0.50       -52.4146   2.0000                                         
     5  0  0.50        -3.8421   1.0000                                         
     4  1  1.50       -30.5054   6.0000                                         
     4  2  2.50        -2.3341   3.0000                                         
     4  3  2.50        -1.3606   0.0000                                         
   Description                                                                  
     l       E           TYP  RCUT    TYP  RCUT                                 
     0    -52.4145962     23  2.200                                             
     0     -3.8421270     23  2.500                                             
     1    -30.5053914     23  2.200                                             
     1     20.4087390     23  2.200                                             
     2     -2.3340816     23  2.500                                             
     2     -0.6120942     23  2.500                                             
     3     -4.0817478     23  2.500                                             
  local pseudopotential read in
  partial core-charges read in
  partial kinetic energy density read in
  atomic valenz-charges read in
  non local Contribution for L=           0  read in
    real space projection operators read in
  non local Contribution for L=           0  read in
    real space projection operators read in
  non local Contribution for L=           1  read in
    real space projection operators read in
  non local Contribution for L=           1  read in
    real space projection operators read in
  non local Contribution for L=           2  read in
    real space projection operators read in
  non local Contribution for L=           2  read in
    real space projection operators read in
    PAW grid and wavefunctions read in
 
   number of l-projection  operators is LMAX  =           6
   number of lm-projection operators is LMMAX =          18
 
 POTCAR:    PAW_PBE Ta 17Jan2003                  
   VRHFIN =Ta:  6s5d                                                            
   LEXCH  = PE                                                                  
   EATOM  =   130.6506 eV,    9.6025 Ry                                         
                                                                                
   TITEL  = PAW_PBE Ta 17Jan2003                                                
   LULTRA =        F    use ultrasoft PP ?                                      
   IUNSCR =        1    unscreen: 0-lin 1-nonlin 2-no                           
   RPACOR =    2.330    partial core radius                                     
   POMASS =  180.948; ZVAL   =    5.000    mass and valenz                      
   RCORE  =    2.900    outmost cutoff radius                                   
   RWIGS  =    2.840; RWIGS  =    1.503    wigner-seitz radius (au A)           
   ENMAX  =  223.667; ENMIN  =  167.750 eV                                      
   RCLOC  =    2.205    cutoff for local pot                                    
   LCOR   =        T    correct aug charges                                     
   LPAW   =        T    paw PP                                                  
   EAUG   =  332.075                                                            
   DEXC   =    0.000                                                            
   RMAX   =    2.970    core radius for proj-oper                               
   RAUG   =    1.300    factor for augmentation sphere                          
   RDEP   =    3.060    radius for radial grids                                 
   RDEPT  =    2.354    core radius for aug-charge                              
                                                                                
   Atomic configuration                                                         
   16 entries                                                                   
     n  l   j            E        occ.                                          
     1  0  0.50    -67341.2807   2.0000                                         
     2  0  0.50    -11566.9376   2.0000                                         
     2  1  1.50    -10134.1182   6.0000                                         
     3  0  0.50     -2648.5620   2.0000                                         
     3  1  1.50     -2222.6012   6.0000                                         
     3  2  2.50     -1726.3120  10.0000                                         
     4  0  0.50      -538.6961   2.0000                                         
     4  1  1.50      -399.0129   6.0000                                         
     4  2  2.50      -220.3959  10.0000                                         
     4  3  3.50       -23.0374  14.0000                                         
     5  0  0.50       -71.2901   2.0000                                         
     5  1  1.50       -37.8225   6.0000                                         
     5  2  2.50        -2.6455   4.0000                                         
     6  0  0.50        -4.9623   1.0000                                         
     6  1  1.50        -1.3606   0.0000                                         
     5  3  2.50        -1.3606   0.0000                                         
   Description                                                                  
     l       E           TYP  RCUT    TYP  RCUT                                 
     2     -2.6455043     23  2.500                                             
     2     -0.6258895     23  2.500                                             
     0     -4.9622780     23  2.500                                             
     0      4.7531321     23  2.500                                             
     1     -1.3605826     23  2.900                                             
     1     27.2116520     23  2.900                                             
  local pseudopotential read in
  partial core-charges read in
  partial kinetic energy density read in
  atomic valenz-charges read in
  non local Contribution for L=           2  read in
    real space projection operators read in
  non local Contribution for L=           2  read in
    real space projection operators read in
  non local Contribution for L=           0  read in
    real space projection operators read in
  non local Contribution for L=           0  read in
    real space projection operators read in
  non local Contribution for L=           1  read in
    real space projection operators read in
  non local Contribution for L=           1  read in
    real space projection operators read in
    PAW grid and wavefunctions read in
 
   number of l-projection  operators is LMAX  =           6
   number of lm-projection operators is LMMAX =          18
 
 Optimization of the real space projectors (new method)

 maximal supplied QI-value         = 12.47
 optimisation between [QCUT,QGAM] = [  8.86, 17.71] = [ 21.96, 87.83] Ry 
 Optimized for a Real-space Cutoff    1.90 Angstroem

   l    n(q)    QCUT    max X(q) W(low)/X(q) W(high)/X(q)  e(spline) 
   2      9     8.855    48.111    0.22E-03    0.80E-04    0.10E-05
   2      9     8.855    40.545    0.21E-03    0.76E-04    0.95E-06
   0     10     8.855   121.658    0.27E-04    0.12E-04    0.11E-06
   0     10     8.855    71.177    0.22E-04    0.11E-04    0.99E-07
   1     10     8.855    14.183    0.65E-04    0.10E-03    0.98E-07
   1     10     8.855     8.257    0.43E-04    0.73E-04    0.72E-07
 Optimization of the real space projectors (new method)

 maximal supplied QI-value         = 15.68
 optimisation between [QCUT,QGAM] = [  8.78, 17.72] = [ 21.60, 87.97] Ry 
 Optimized for a Real-space Cutoff    1.96 Angstroem

   l    n(q)    QCUT    max X(q) W(low)/X(q) W(high)/X(q)  e(spline) 
   0     10     8.783    10.201    0.29E-04    0.25E-05    0.69E-07
   0     10     8.783     8.174    0.45E-04    0.57E-05    0.14E-06
   1     10     8.783     3.488    0.76E-05    0.24E-04    0.95E-07
   1     10     8.783     4.917    0.78E-04    0.14E-03    0.46E-06
   2      9     8.783   153.744    0.22E-03    0.34E-04    0.15E-05
   2      9     8.783   126.342    0.22E-03    0.35E-04    0.15E-05
 Optimization of the real space projectors (new method)

 maximal supplied QI-value         = 15.12
 optimisation between [QCUT,QGAM] = [  8.77, 17.69] = [ 21.53, 87.61] Ry 
 Optimized for a Real-space Cutoff    1.74 Angstroem

   l    n(q)    QCUT    max X(q) W(low)/X(q) W(high)/X(q)  e(spline) 
   0      9     8.768    12.107    0.28E-04    0.53E-06    0.29E-07
   0      9     8.768     9.948    0.36E-04    0.50E-05    0.64E-07
   1      9     8.768     3.563    0.14E-04    0.16E-04    0.88E-07
   1      9     8.768     4.524    0.21E-03    0.33E-03    0.19E-06
   2      8     8.768    87.261    0.19E-03    0.25E-03    0.24E-06
   2      8     8.768    70.950    0.19E-03    0.24E-03    0.24E-06
 Optimization of the real space projectors (new method)

 maximal supplied QI-value         = 12.85
 optimisation between [QCUT,QGAM] = [  8.87, 17.73] = [ 22.01, 88.06] Ry 
 Optimized for a Real-space Cutoff    1.90 Angstroem

   l    n(q)    QCUT    max X(q) W(low)/X(q) W(high)/X(q)  e(spline) 
   2      9     8.867    62.315    0.23E-03    0.62E-04    0.11E-05
   2      9     8.867    52.185    0.23E-03    0.62E-04    0.11E-05
   0     10     8.867   103.837    0.15E-04    0.23E-04    0.98E-07
   0     10     8.867    59.728    0.12E-04    0.21E-04    0.89E-07
   1     10     8.867    13.958    0.50E-04    0.22E-04    0.14E-06
   1     10     8.867     8.441    0.36E-04    0.19E-04    0.98E-07
  PAW_PBE Hf 20Jan2003                  :
 energy of atom  1       EATOM=  -75.9011
 kinetic energy error for atom=    0.0071 (will be added to EATOM!!)
  PAW_PBE Nb_sv 25May2007               :
 energy of atom  2       EATOM=-1555.1913
 kinetic energy error for atom=    0.0655 (will be added to EATOM!!)
  PAW_PBE Zr_sv 04Jan2005               :
 energy of atom  3       EATOM=-1284.2219
 kinetic energy error for atom=    0.0483 (will be added to EATOM!!)
  PAW_PBE Ta 17Jan2003                  :
 energy of atom  4       EATOM= -130.6506
 kinetic energy error for atom=    0.0121 (will be added to EATOM!!)
 
 
 POSCAR: generated by pypospack                  
  positions in direct lattice
  No initial velocities read in
 exchange correlation table for  LEXCH =        8
   RHO(1)=    0.500       N(1)  =     2000
   RHO(2)=  100.500       N(2)  =     4000
 


--------------------------------------------------------------------------------------------------------


 ion  position               nearest neighbor table
   1  0.267  0.505  0.167-  16 2.96  20 2.96  17 2.98  13 2.99  32 3.01  34 3.04   5 3.05   6 3.06
                            30 3.21   3 3.28   7 3.29  28 3.30
   2  0.493  0.666  0.646-  33 2.96  19 2.98   9 3.00  28 3.02  10 3.03   3 3.03  32 3.06  29 3.11
                            27 3.14  12 3.30  26 3.41   8 3.42
   3  0.262  0.508  0.845-  20 2.98   5 3.01  18 3.02   2 3.03  13 3.05  26 3.06  12 3.06   6 3.13
                            10 3.20   1 3.28  29 3.43  29 3.54  28 3.63
   4  0.228  0.169  0.484-  31 2.91  14 2.96  36 2.97  18 2.97  16 2.98  17 3.01   8 3.02  26 3.06
                            11 3.13  23 3.21  28 3.35  19 3.43  23 3.74
   5  0.006  0.331  0.005-  21 2.92  11 3.00   3 3.01   1 3.05  25 3.05  24 3.07  29 3.07  30 3.10
                            17 3.17  18 3.29  22 3.34  20 3.34   6 3.43
   6  0.967  0.664  0.020-  30 2.89  15 2.91  13 2.97  29 3.02   7 3.05   1 3.06  27 3.07  34 3.12
                            10 3.12   3 3.13   5 3.43  22 3.51
   7  0.264  0.826  0.166-  36 2.93  14 2.93  35 2.96  13 2.96  32 3.00  34 3.01  22 3.04   6 3.05
                            10 3.24  19 3.26  15 3.26   1 3.29
   8  0.471  0.999  0.659-  21 2.92  19 2.95  10 3.01   4 3.02  31 3.02   9 3.08  27 3.09  24 3.11
                            23 3.11  36 3.26   2 3.42  26 3.43  35 3.48
   9  0.769  0.839  0.501-  14 2.89  34 2.90  12 2.93  32 2.98  36 2.98   2 3.00  31 3.04   8 3.08
                            19 3.24  15 3.27  27 3.28  23 3.33  33 3.44
  10  0.262  0.820  0.848-  35 2.96  13 3.00  31 3.00  12 3.01   8 3.01  22 3.03   2 3.03   6 3.12
                             3 3.20   7 3.24  27 3.45  27 3.53
  11  0.254  0.167  0.178-  35 2.84  20 2.86  14 2.90  17 2.94  22 2.96  36 2.96   5 3.00  16 3.02
                             4 3.13  25 3.32
  12  0.019  0.671  0.657-  19 2.83  28 2.86   9 2.93  33 2.97  27 3.00  10 3.01  29 3.06   3 3.06
                             2 3.30
  13  0.541  0.668  0.009-  30 2.80  15 2.82  29 2.95   7 2.96   6 2.97  27 2.98   1 2.99  10 3.00
                             3 3.05
  14  0.999  0.991  0.319-  15 2.82  19 2.87   9 2.89  11 2.90   7 2.93   4 2.96  25 3.00  23 3.01
                            22 3.20  34 3.32
  15  0.733  0.837  0.181-  36 2.78  14 2.82  13 2.82  32 2.85  34 2.87   6 2.91  22 3.13  35 3.14
                             7 3.26   9 3.27  25 3.39
  16  0.505  0.342  0.341-  30 2.75  28 2.90  25 2.92  33 2.94   1 2.96   4 2.98  11 3.02  23 3.04
                            26 3.21
  17  0.985  0.342  0.316-  30 2.77  33 2.87  25 2.91  28 2.91  11 2.94   1 2.98  23 3.01   4 3.01
                             5 3.17
  18  0.016  0.329  0.682-  21 2.79  29 2.89  24 2.91  28 2.96   4 2.97   3 3.02  23 3.07  33 3.14
                             5 3.29  26 3.31
  19  0.236  0.834  0.486-  36 2.83  12 2.83  14 2.87  31 2.88  32 2.93   8 2.95  34 2.96   2 2.98
                             9 3.24   7 3.26   4 3.43
  20  0.486  0.318  0.001-  21 2.83  11 2.86  25 2.90   1 2.96  24 2.98   3 2.98  30 3.08  35 3.11
                            29 3.17   5 3.34
  21  0.248  0.169  0.834-  18 2.79  31 2.83  20 2.83  35 2.84   8 2.92   5 2.92  22 2.93  26 2.98
                            24 3.47
  22  0.010  0.005  0.006-  21 2.93  11 2.96  10 3.03  24 3.04   7 3.04  25 3.06  27 3.09  15 3.13
                            14 3.20  35 3.27   5 3.34  31 3.39   6 3.51  35 3.69
  23  0.766  0.165  0.499-  17 3.01  14 3.01  26 3.03  16 3.04  18 3.07  36 3.07   8 3.11  31 3.12
                             4 3.21  25 3.32   9 3.33  24 3.36  33 3.48   4 3.74
  24  0.750  0.163  0.828-  18 2.91  20 2.98  35 2.98  22 3.04  31 3.04  26 3.07   5 3.07   8 3.11
                            27 3.33  23 3.36  29 3.43  21 3.47  25 3.52
  25  0.732  0.168  0.173-  20 2.90  17 2.91  16 2.92  35 2.95  36 2.96  14 3.00   5 3.05  22 3.06
                            11 3.32  23 3.32  30 3.36  15 3.39  24 3.52
  26  0.491  0.334  0.657-  21 2.98  28 3.02  23 3.03  29 3.03   3 3.06   4 3.06  24 3.07  33 3.07
                            16 3.21  18 3.31   2 3.41   8 3.43
  27  0.757  0.839  0.823-  31 2.96  13 2.98  12 3.00   6 3.07   8 3.09  22 3.09   2 3.14  35 3.18
                             9 3.28  24 3.33  10 3.45  29 3.49  10 3.53
  28  0.226  0.495  0.490-  12 2.86  16 2.90  17 2.91  18 2.96  34 2.98  26 3.02   2 3.02  32 3.03
                            33 3.18   1 3.30   4 3.35   3 3.63
  29  0.754  0.498  0.824-  18 2.89  13 2.95   6 3.02  26 3.03  12 3.06   5 3.07   2 3.11  20 3.17
                            33 3.36  24 3.43   3 3.43  27 3.49   3 3.54  30 3.61
  30  0.728  0.495  0.179-  16 2.75  17 2.77  13 2.80  32 2.86   6 2.89  34 2.92  20 3.08   5 3.10
                             1 3.21  33 3.23  25 3.36  29 3.61
  31  0.037  0.998  0.673-  21 2.83  19 2.88   4 2.91  27 2.96  10 3.00   8 3.02   9 3.04  24 3.04
                            23 3.12  22 3.39
  32  0.512  0.668  0.346-  15 2.85  30 2.86  33 2.89  19 2.93   9 2.98   7 3.00   1 3.01  28 3.03
                             2 3.06  34 3.27  36 3.32
  33  0.769  0.504  0.494-  34 2.81  17 2.87  32 2.89  16 2.94   2 2.96  12 2.97  26 3.07  18 3.14
                            28 3.18  30 3.23  29 3.36   9 3.44  23 3.48
  34  0.982  0.667  0.325-  33 2.81  15 2.87   9 2.90  30 2.92  19 2.96  28 2.98   7 3.01   1 3.04
                             6 3.12  32 3.27  14 3.32
  35  0.480  0.015  0.001-  11 2.84  21 2.84  25 2.95  10 2.96   7 2.96  24 2.98  20 3.11  15 3.14
                            27 3.18  22 3.27  36 3.45   8 3.48  22 3.69
  36  0.494  0.991  0.339-  15 2.78  19 2.83   7 2.93  25 2.96  11 2.96   4 2.97   9 2.98  23 3.07
                             8 3.26  32 3.32  35 3.45
 
  LATTYP: Found a triclinic cell.
 ALAT       =    19.9724888205
 B/A-ratio  =     0.3479958955
 C/A-ratio  =     0.5133258706
 COS(alpha) =     0.0008114000
 COS(beta)  =     0.5142954496
 COS(gamma) =     0.6900286012
  
  Lattice vectors:
  
 A1 = ( -13.8409889324, -10.2625698824,  10.0998512102)
 A2 = (  -6.9502073347,  -0.0027834770,  -0.0435180164)
 A3 = (  -0.0042350752, -10.2523937300,   0.0035267352)


Analysis of symmetry for initial positions (statically):
=====================================================================
 Subroutine PRICEL returns:
 Original cell was already a primitive cell.
 

 Routine SETGRP: Setting up the symmetry group for a 
 triclinic supercell.


 Subroutine GETGRP returns: Found  1 space group operations
 (whereof  1 operations were pure point group operations)
 out of a pool of  2 trial point group operations.


The static configuration has the point symmetry C_1 .


Analysis of symmetry for dynamics (positions and initial velocities):
=====================================================================
 Subroutine PRICEL returns:
 Original cell was already a primitive cell.
 

 Routine SETGRP: Setting up the symmetry group for a 
 triclinic supercell.


 Subroutine GETGRP returns: Found  1 space group operations
 (whereof  1 operations were pure point group operations)
 out of a pool of  2 trial point group operations.


The dynamic configuration has the point symmetry C_1 .


 Subroutine INISYM returns: Found  1 space group operations
 (whereof  1 operations are pure point group operations),
 and found     1 'primitive' translations

 
 
 KPOINTS: k-points                                

Automatic generation of k-mesh.
Space group operators:
 irot       det(A)        alpha          n_x          n_y          n_z        tau_x        tau_y        tau_z
    1     1.000000     0.000001     1.000000     0.000000     0.000000     0.000000     0.000000     0.000000
 
 Subroutine IBZKPT returns following result:
 ===========================================
 
 Found     14 irreducible k-points:
 
 Following reciprocal coordinates:
            Coordinates               Weight
  0.000000  0.000000  0.000000      1.000000
  0.333333 -0.000000 -0.000000      2.000000
 -0.000000  0.333333 -0.000000      2.000000
  0.333333  0.333333 -0.000000      2.000000
 -0.333333  0.333333 -0.000000      2.000000
  0.000000 -0.000000  0.333333      2.000000
  0.333333 -0.000000  0.333333      2.000000
 -0.333333  0.000000  0.333333      2.000000
  0.000000  0.333333  0.333333      2.000000
  0.333333  0.333333  0.333333      2.000000
 -0.333333  0.333333  0.333333      2.000000
  0.000000 -0.333333  0.333333      2.000000
  0.333333 -0.333333  0.333333      2.000000
 -0.333333 -0.333333  0.333333      2.000000
 
 Following cartesian coordinates:
            Coordinates               Weight
  0.000000  0.000000  0.000000      1.000000
  0.239250 -0.000099 -0.001496      2.000000
 -0.000065  0.162184  0.000074      2.000000
  0.239184  0.162084 -0.001422      2.000000
 -0.239315  0.162283  0.001570      2.000000
 -0.001022  0.000057  0.163289      2.000000
  0.238227 -0.000043  0.161794      2.000000
 -0.240272  0.000156  0.164785      2.000000
 -0.001088  0.162240  0.163363      2.000000
  0.238162  0.162141  0.161868      2.000000
 -0.240338  0.162340  0.164859      2.000000
 -0.000957 -0.162127  0.163216      2.000000
  0.238293 -0.162226  0.161720      2.000000
 -0.240207 -0.162028  0.164711      2.000000
 


--------------------------------------------------------------------------------------------------------




 Dimension of arrays:
   k-points           NKPTS =     14   k-points in BZ     NKDIM =     14   number of bands    NBANDS=    188
   number of dos      NEDOS =    301   number of ions     NIONS =     36
   non local maximal  LDIM  =      6   non local SUM 2l+1 LMDIM =     18
   total plane-waves  NPLWV = 144000
   max r-space proj   IRMAX =   6314   max aug-charges    IRDMAX=  13707
   dimension x,y,z NGX =    40 NGY =   60 NGZ =   60
   dimension x,y,z NGXF=    80 NGYF=  120 NGZF=  120
   support grid    NGXF=    80 NGYF=  120 NGZF=  120
   ions per type =              10  11   8   7
 NGX,Y,Z   is equivalent  to a cutoff of   9.57,  9.73,  9.79 a.u.
 NGXF,Y,Z  is equivalent  to a cutoff of  19.14, 19.46, 19.59 a.u.


 I would recommend the setting:
   dimension x,y,z NGX =    39 NGY =   58 NGZ =   58
 SYSTEM =  automatically generated by mexm         
 POSCAR =  generated by pypospack                  

 Startparameter for this run:
   NWRITE =      2    write-flag & timer
   PREC   = accura    normal or accurate (medium, high low for compatibility)
   ISTART =      0    job   : 0-new  1-cont  2-samecut
   ICHARG =      2    charge: 1-file 2-atom 10-const
   ISPIN  =      1    spin polarized calculation?
   LNONCOLLINEAR =      F non collinear calculations
   LSORBIT =      F    spin-orbit coupling
   INIWAV =      1    electr: 0-lowe 1-rand  2-diag
   LASPH  =      F    aspherical Exc in radial PAW
   METAGGA=      F    non-selfconsistent MetaGGA calc.

 Electronic Relaxation 1
   ENCUT  =  300.0 eV  22.05 Ry    4.70 a.u.   9.82 14.48 14.38*2*pi/ulx,y,z
   ENINI  =  300.0     initial cutoff
   ENAUG  =  461.3 eV  augmentation charge cutoff
   NELM   =     70;   NELMIN=  2; NELMDL= -5     # of ELM steps 
   EDIFF  = 0.1E-04   stopping-criterion for ELM
   LREAL  =      T    real-space projection
   NLSPLINE    = F    spline interpolate recip. space projectors
   LCOMPAT=      F    compatible to vasp.4.4
   GGA_COMPAT  = T    GGA compatible to vasp.4.4-vasp.4.6
   LMAXPAW     = -100 max onsite density
   LMAXMIX     =    2 max onsite mixed and CHGCAR
   VOSKOWN=      0    Vosko Wilk Nusair interpolation
   ROPT   =   -0.00025  -0.00025  -0.00025  -0.00025
 Ionic relaxation
   EDIFFG = -.1E-01   stopping-criterion for IOM
   NSW    =    300    number of steps for IOM
   NBLOCK =      1;   KBLOCK =    300    inner block; outer block 
   IBRION =      2    ionic relax: 0-MD 1-quasi-New 2-CG
   NFREE  =      1    steps in history (QN), initial steepest desc. (CG)
   ISIF   =      3    stress and relaxation
   IWAVPR =     11    prediction:  0-non 1-charg 2-wave 3-comb
   ISYM   =      1    0-nonsym 1-usesym 2-fastsym
   LCORR  =      T    Harris-Foulkes like correction to forces

   POTIM  = 0.1500    time-step for ionic-motion
   TEIN   =    0.0    initial temperature
   TEBEG  =    0.0;   TEEND  =   0.0 temperature during run
   SMASS  =  -3.00    Nose mass-parameter (am)
   estimated Nose-frequenzy (Omega)   =  0.10E-29 period in steps =****** mass=  -0.110E-26a.u.
   SCALEE = 1.0000    scale energy and forces
   NPACO  =    256;   APACO  = 16.0  distance and # of slots for P.C.
   PSTRESS=    0.0 pullay stress

  Mass of Ions in am
   POMASS = 178.49 92.91 91.22180.95
  Ionic Valenz
   ZVAL   =   4.00 13.00 12.00  5.00
  Atomic Wigner-Seitz radii
   RWIGS  =  -1.00 -1.00 -1.00 -1.00
  virtual crystal weights 
   VCA    =   1.00  1.00  1.00  1.00
   NELECT =     314.0000    total number of electrons
   NUPDOWN=      -1.0000    fix difference up-down

 DOS related values:
   EMIN   =  10.00;   EMAX   =-10.00  energy-range for DOS
   EFERMI =   0.00
   ISMEAR =     1;   SIGMA  =   0.15  broadening in eV -4-tet -1-fermi 0-gaus

 Electronic relaxation 2 (details)
   IALGO  =     68    algorithm
   LDIAG  =      T    sub-space diagonalisation (order eigenvalues)
   LSUBROT=      F    optimize rotation matrix (better conditioning)
   TURBO    =      0    0=normal 1=particle mesh
   IRESTART =      0    0=no restart 2=restart with 2 vectors
   NREBOOT  =      0    no. of reboots
   NMIN     =      0    reboot dimension
   EREF     =   0.00    reference energy to select bands
   IMIX   =      4    mixing-type and parameters
     AMIX     =   0.40;   BMIX     =  1.00
     AMIX_MAG =   1.60;   BMIX_MAG =  1.00
     AMIN     =   0.10
     WC   =   100.;   INIMIX=   1;  MIXPRE=   1;  MAXMIX= -45

 Intra band minimization:
   WEIMIN = 0.0010     energy-eigenvalue tresh-hold
   EBREAK =  0.13E-07  absolut break condition
   DEPER  =   0.30     relativ break condition  

   TIME   =   0.40     timestep for ELM

  volume/ion in A,a.u.               =      20.16       136.02
  Fermi-wavevector in a.u.,A,eV,Ry     =   1.238281  2.340011 20.862339  1.533339
  Thomas-Fermi vector in A             =   2.372812
 
 Write flags
   LWAVE  =      F    write WAVECAR
   LCHARG =      F    write CHGCAR
   LVTOT  =      F    write LOCPOT, total local potential
   LVHAR  =      F    write LOCPOT, Hartree potential only
   LELF   =      F    write electronic localiz. function (ELF)
   LORBIT =      0    0 simple, 1 ext, 2 COOP (PROOUT)


 Dipole corrections
   LMONO  =      F    monopole corrections only (constant potential shift)
   LDIPOL =      F    correct potential (dipole corrections)
   IDIPOL =      0    1-x, 2-y, 3-z, 4-all directions 
   EPSILON=  1.0000000 bulk dielectric constant

 Exchange correlation treatment:
   GGA     =    --    GGA type
   LEXCH   =     8    internal setting for exchange type
   VOSKOWN=      0    Vosko Wilk Nusair interpolation
   LHFCALC =     F    Hartree Fock is set to
   LHFONE  =     F    Hartree Fock one center treatment
   AEXX    =    0.0000 exact exchange contribution

 Linear response parameters
   LEPSILON=     F    determine dielectric tensor
   LRPA    =     F    only Hartree local field effects (RPA)
   LNABLA  =     F    use nabla operator in PAW spheres
   LVEL    =     F    velocity operator in full k-point grid
   LINTERFAST=   F  fast interpolation
   KINTER  =     0    interpolate to denser k-point grid
   CSHIFT  =0.1000    complex shift for real part using Kramers Kronig
   OMEGAMAX=  -1.0    maximum frequency
   DEG_THRESHOLD= 0.2000000E-02 threshold for treating states as degnerate
   RTIME   =    0.100 relaxation time in fs

 Orbital magnetization related:
   ORBITALMAG=     F  switch on orbital magnetization
   LCHIMAG   =     F  perturbation theory with respect to B field
   DQ        =  0.001000  dq finite difference perturbation B field



--------------------------------------------------------------------------------------------------------


 conjugate gradient relaxation of ions
 charge density and potential will be updated during run
 non-spin polarized calculation
 RMM-DIIS sequential band-by-band and
  variant of blocked Davidson during initial phase
 perform sub-space diagonalisation
    before iterative eigenvector-optimisation
 modified Broyden-mixing scheme, WC =      100.0
 initial mixing is a Kerker type mixing with AMIX =  0.4000 and BMIX =      1.0000
 Hartree-type preconditioning will be used
 using additional bands           31
 real space projection scheme for non local part
 use partial core corrections
 calculate Harris-corrections to forces 
   (improved forces if not selfconsistent)
 use gradient corrections 
 use of overlap-Matrix (Vanderbilt PP)
 Methfessel and Paxton  Order N= 1 SIGMA  =   0.15


--------------------------------------------------------------------------------------------------------


  energy-cutoff  :      300.00
  volume of cell :      725.60
      direct lattice vectors                 reciprocal lattice vectors
     6.950207335  0.002783477  0.043518016     0.143886256 -0.000059746 -0.000899525
     0.004235075 10.252393730 -0.003526735    -0.000039341  0.097538229  0.000044394
     0.063660812 -0.004609198 10.183360508    -0.000614903  0.000034035  0.098203270

  length of vectors
     6.950344133 10.252395211 10.183560535     0.143889080  0.097538247  0.098205201


 
 k-points in units of 2pi/SCALE and weight: k-points                                
   0.00000000  0.00000000  0.00000000       0.037
   0.23924975 -0.00009934 -0.00149570       0.074
  -0.00006541  0.16218364  0.00007382       0.074
   0.23918434  0.16208430 -0.00142189       0.074
  -0.23931516  0.16228298  0.00156952       0.074
  -0.00102244  0.00005659  0.16328945       0.074
   0.23822731 -0.00004275  0.16179375       0.074
  -0.24027219  0.00015594  0.16478516       0.074
  -0.00108786  0.16224023  0.16336327       0.074
   0.23816189  0.16214089  0.16186756       0.074
  -0.24033761  0.16233958  0.16485897       0.074
  -0.00095703 -0.16212705  0.16321563       0.074
   0.23829272 -0.16222639  0.16171993       0.074
  -0.24020678 -0.16202770  0.16471134       0.074
 
 k-points in reciprocal lattice and weights: k-points                                
   0.00000000  0.00000000  0.00000000       0.037
   0.33333333 -0.00000000 -0.00000000       0.074
  -0.00000000  0.33333333 -0.00000000       0.074
   0.33333333  0.33333333 -0.00000000       0.074
  -0.33333333  0.33333333 -0.00000000       0.074
   0.00000000 -0.00000000  0.33333333       0.074
   0.33333333 -0.00000000  0.33333333       0.074
  -0.33333333  0.00000000  0.33333333       0.074
   0.00000000  0.33333333  0.33333333       0.074
   0.33333333  0.33333333  0.33333333       0.074
  -0.33333333  0.33333333  0.33333333       0.074
   0.00000000 -0.33333333  0.33333333       0.074
   0.33333333 -0.33333333  0.33333333       0.074
  -0.33333333 -0.33333333  0.33333333       0.074
 
 position of ions in fractional coordinates (direct lattice) 
   0.26723100  0.50483000  0.16692700
   0.49263000  0.66578400  0.64600800
   0.26162700  0.50849100  0.84469700
   0.22832500  0.16850800  0.48440900
   0.00603400  0.33091300  0.00463000
   0.96738200  0.66425400  0.01955400
   0.26441200  0.82618500  0.16610900
   0.47070300  0.99918100  0.65912500
   0.76920100  0.83933500  0.50106400
   0.26246200  0.82027000  0.84760500
   0.25421800  0.16692000  0.17752200
   0.01867400  0.67135500  0.65746600
   0.54066200  0.66776000  0.00926900
   0.99906000  0.99077400  0.31902500
   0.73300500  0.83734700  0.18130900
   0.50459800  0.34185900  0.34131200
   0.98502100  0.34205100  0.31550800
   0.01642800  0.32929900  0.68158200
   0.23560300  0.83394000  0.48623400
   0.48642700  0.31753700  0.00102100
   0.24847600  0.16927000  0.83377800
   0.00995700  0.00538800  0.00559700
   0.76605900  0.16460200  0.49862100
   0.75016400  0.16340100  0.82822700
   0.73155400  0.16790200  0.17347600
   0.49110000  0.33361000  0.65665300
   0.75662500  0.83859400  0.82316900
   0.22594100  0.49509800  0.48967600
   0.75446100  0.49789900  0.82413800
   0.72769700  0.49521300  0.17862500
   0.03699300  0.99782800  0.67293100
   0.51233900  0.66774300  0.34555300
   0.76918400  0.50361200  0.49404300
   0.98195500  0.66727100  0.32546500
   0.47985600  0.01453200  0.00084500
   0.49393000  0.99145200  0.33882100
 
 position of ions in cartesian coordinates  (Angst):
   1.87007556  5.17569036  1.70972678
   3.46782568  6.82427335  6.59762259
   1.87428949  5.21008480  8.61144625
   1.61845760  1.72601316  4.94225345
   0.04363374  3.39264582  0.04624450
   6.72756346  6.81279610  0.23888133
   1.85179181  8.47034427  1.70014078
   3.31767548 10.24226917  6.72906771
   5.38155922  8.60502444  5.13302934
   1.88159845  8.40655478  8.63999623
   1.77887592  1.71121894  1.81824490
   0.17448623  6.88001738  6.69365826
   3.76113108  6.84760063  0.11556309
   6.96817953 10.15911556  3.28872950
   5.10962523  8.58601575  1.87528073
   3.53023672  3.50470443  3.49645660
   6.86763429  3.50812907  3.25459154
   0.15896268  3.37300718  6.94034879
   1.67197555  8.54829587  4.95880800
   3.38217829  3.25686360  0.03044568
   1.78075557  1.73227127  8.50087817
   0.06958234  0.05524181  0.05741058
   5.35670860  1.68739858  5.11039426
   5.26721295  1.67352199  8.46620350
   5.09620668  1.72263409  1.79781228
   3.45646275  3.41864139  6.70712937
   5.31465574  8.59590777  8.41259601
   1.60360674  5.07431152  4.99463366
   5.29823431  5.10295800  8.42357105
   5.07111370  5.07832087  1.84892422
   0.30417423 10.22712683  6.85078976
   3.58568840  6.84579751  3.53883180
   5.37957229  5.16309237  5.06271523
   6.84833615  6.84235813  3.35470687
   3.33521403  0.15031956  0.02943607
   3.45868440 10.16456942  3.46833466
 


--------------------------------------------------------------------------------------------------------


 k-point  1 :   0.0000 0.0000 0.0000  plane waves:    8603
 k-point  2 :   0.3333-0.0000-0.0000  plane waves:    8572
 k-point  3 :  -0.0000 0.3333-0.0000  plane waves:    8559
 k-point  4 :   0.3333 0.3333-0.0000  plane waves:    8567
 k-point  5 :  -0.3333 0.3333-0.0000  plane waves:    8566
 k-point  6 :   0.0000-0.0000 0.3333  plane waves:    8558
 k-point  7 :   0.3333-0.0000 0.3333  plane waves:    8569
 k-point  8 :  -0.3333 0.0000 0.3333  plane waves:    8548
 k-point  9 :   0.0000 0.3333 0.3333  plane waves:    8557
 k-point 10 :   0.3333 0.3333 0.3333  plane waves:    8571
 k-point 11 :  -0.3333 0.3333 0.3333  plane waves:    8569
 k-point 12 :   0.0000-0.3333 0.3333  plane waves:    8555
 k-point 13 :   0.3333-0.3333 0.3333  plane waves:    8570
 k-point 14 :  -0.3333-0.3333 0.3333  plane waves:    8573

 maximum and minimum number of plane-waves per node :      1735     1694

 maximum number of plane-waves:      8603
 maximum index in each direction: 
   IXMAX=   10   IYMAX=   14   IZMAX=   14
   IXMIN=  -10   IYMIN=  -14   IZMIN=  -14

 WARNING: aliasing errors must be expected set NGX to  42 to avoid them
 NGY is ok and might be reduce to  58
 NGZ is ok and might be reduce to  58
 aliasing errors are usually negligible using standard VASP settings
 and one can safely disregard these warnings

 real space projection operators:
  total allocation   :      27496.69 KBytes
  max/ min on nodes  :       5543.86       5444.30


 parallel 3D FFT for wavefunctions:
    minimum data exchange during FFTs selected (reduces bandwidth)
 parallel 3D FFT for charge:
    minimum data exchange during FFTs selected (reduces bandwidth)


 total amount of memory used by VASP on root node    68473. kBytes
========================================================================

   base      :      30000. kBytes
   nonlr-proj:      10551. kBytes
   fftplans  :       2814. kBytes
   grid      :       5360. kBytes
   one-center:        124. kBytes
   wavefun   :      19624. kBytes
 
     INWAV:  cpu time    0.0000: real time    0.0000
 Broyden mixing: mesh for mixing (old mesh)
   NGX = 19   NGY = 29   NGZ = 29
  (NGX  = 80   NGY  =120   NGZ  =120)
  gives a total of  15979 points

 initial charge density was supplied:
 charge density of overlapping atoms calculated
 number of electron     314.0000000 magnetization 
 keeping initial charge density in first step


--------------------------------------------------------------------------------------------------------


 Maximum index for non-local projection operator         1228
 Maximum index for augmentation-charges          684 (set IRDMAX)


--------------------------------------------------------------------------------------------------------


 First call to EWALD:  gamma=   0.197
 Maximum number of real-space cells 3x 2x 2
 Maximum number of reciprocal cells 2x 3x 3

 FEWALD executed in parallel
    FEWALD:  cpu time    0.0838: real time    0.0854


----------------------------------------- Iteration    1(   1)  ---------------------------------------


    POTLOK:  cpu time    0.0402: real time    0.1292
    SETDIJ:  cpu time    0.0592: real time    0.0606
     EDDAV:  cpu time    1.1039: real time    1.1644
       DOS:  cpu time    0.0014: real time    0.0014
    --------------------------------------------
      LOOP:  cpu time    1.2127: real time    1.7138

 eigenvalue-minimisations  :  5808
 total energy-change (2. order) : 0.2147075E+04  (-0.1210409E+05)
 number of electron     314.0000000 magnetization 
 augmentation part      314.0000000 magnetization 

 Free energy of the ion-electron system (eV)
  ---------------------------------------------------
  alpha Z        PSCENC =      1622.25541310
  Ewald energy   TEWEN  =    -22091.17858861
  -Hartree energ DENC   =     -7671.21584374
  -exchange      EXHF   =         0.00000000
  -V(xc)+E(xc)   XCENC  =        26.95425265
  PAW double counting   =     24164.74020641   -22699.02332369
  entropy T*S    EENTRO =        -0.01358902
  eigenvalues    EBANDS =      -258.62600970
  atomic energy  EATOM  =     29053.18212688
  Solvation  Ediel_sol  =         0.00000000
  ---------------------------------------------------
  free energy    TOTEN  =      2147.07464428 eV

  energy without entropy =     2147.08823330  energy(sigma->0) =     2147.07917395


--------------------------------------------------------------------------------------------------------




----------------------------------------- Iteration    1(   2)  ---------------------------------------


     EDDAV:  cpu time    1.2268: real time    1.2597
       DOS:  cpu time    0.0009: real time    0.0009
    --------------------------------------------
      LOOP:  cpu time    1.2286: real time    1.4328

 eigenvalue-minimisations  :  6016
 total energy-change (2. order) :-0.2212715E+04  (-0.2144905E+04)
 number of electron     314.0000000 magnetization 
 augmentation part      314.0000000 magnetization 

 Free energy of the ion-electron system (eV)
  ---------------------------------------------------
  alpha Z        PSCENC =      1622.25541310
  Ewald energy   TEWEN  =    -22091.17858861
  -Hartree energ DENC   =     -7671.21584374
  -exchange      EXHF   =         0.00000000
  -V(xc)+E(xc)   XCENC  =        26.95425265
  PAW double counting   =     24164.74020641   -22699.02332369
  entropy T*S    EENTRO =        -0.01800868
  eigenvalues    EBANDS =     -2471.33640199
  atomic energy  EATOM  =     29053.18212688
  Solvation  Ediel_sol  =         0.00000000
  ---------------------------------------------------
  free energy    TOTEN  =       -65.64016768 eV

  energy without entropy =      -65.62215899  energy(sigma->0) =      -65.63416478


--------------------------------------------------------------------------------------------------------




----------------------------------------- Iteration    1(   3)  ---------------------------------------


     EDDAV:  cpu time    1.5358: real time    1.7037
       DOS:  cpu time    0.0009: real time    0.0009
    --------------------------------------------
      LOOP:  cpu time    1.5370: real time    1.7403

 eigenvalue-minimisations  :  8968
 total energy-change (2. order) :-0.2728751E+03  (-0.2600486E+03)
 number of electron     314.0000000 magnetization 
 augmentation part      314.0000000 magnetization 

 Free energy of the ion-electron system (eV)
  ---------------------------------------------------
  alpha Z        PSCENC =      1622.25541310
  Ewald energy   TEWEN  =    -22091.17858861
  -Hartree energ DENC   =     -7671.21584374
  -exchange      EXHF   =         0.00000000
  -V(xc)+E(xc)   XCENC  =        26.95425265
  PAW double counting   =     24164.74020641   -22699.02332369
  entropy T*S    EENTRO =        -0.00816033
  eigenvalues    EBANDS =     -2744.22133904
  atomic energy  EATOM  =     29053.18212688
  Solvation  Ediel_sol  =         0.00000000
  ---------------------------------------------------
  free energy    TOTEN  =      -338.51525637 eV

  energy without entropy =     -338.50709604  energy(sigma->0) =     -338.51253626


--------------------------------------------------------------------------------------------------------




----------------------------------------- Iteration    1(   4)  ---------------------------------------


     EDDAV:  cpu time    1.5647: real time    1.5905
       DOS:  cpu time    0.0008: real time    0.0008
    --------------------------------------------
      LOOP:  cpu time    1.5659: real time    1.6260

 eigenvalue-minimisations  :  8840
 total energy-change (2. order) :-0.3231462E+02  (-0.3069428E+02)
 number of electron     314.0000000 magnetization 
 augmentation part      314.0000000 magnetization 

 Free energy of the ion-electron system (eV)
  ---------------------------------------------------
  alpha Z        PSCENC =      1622.25541310
  Ewald energy   TEWEN  =    -22091.17858861
  -Hartree energ DENC   =     -7671.21584374
  -exchange      EXHF   =         0.00000000
  -V(xc)+E(xc)   XCENC  =        26.95425265
  PAW double counting   =     24164.74020641   -22699.02332369
  entropy T*S    EENTRO =        -0.00148313
  eigenvalues    EBANDS =     -2776.54263748
  atomic energy  EATOM  =     29053.18212688
  Solvation  Ediel_sol  =         0.00000000
  ---------------------------------------------------
  free energy    TOTEN  =      -370.82987761 eV

  energy without entropy =     -370.82839448  energy(sigma->0) =     -370.82938323


--------------------------------------------------------------------------------------------------------




----------------------------------------- Iteration    1(   5)  ---------------------------------------


     EDDAV:  cpu time    1.5220: real time    1.5659
       DOS:  cpu time    0.0008: real time    0.0008
    CHARGE:  cpu time    0.0481: real time    0.0483
    MIXING:  cpu time    0.0016: real time    0.0017
    --------------------------------------------
      LOOP:  cpu time    1.5730: real time    1.6479

 eigenvalue-minimisations  :  8544
 total energy-change (2. order) :-0.3351043E+01  (-0.3276685E+01)
 number of electron     313.9999991 magnetization 
 augmentation part       18.9481814 magnetization 

 Broyden mixing:
  rms(total) = 0.62146E+01    rms(broyden)= 0.62141E+01
  rms(prec ) = 0.64761E+01
  weight for this iteration     100.00

 Free energy of the ion-electron system (eV)
  ---------------------------------------------------
  alpha Z        PSCENC =      1622.25541310
  Ewald energy   TEWEN  =    -22091.17858861
  -Hartree energ DENC   =     -7671.21584374
  -exchange      EXHF   =         0.00000000
  -V(xc)+E(xc)   XCENC  =        26.95425265
  PAW double counting   =     24164.74020641   -22699.02332369
  entropy T*S    EENTRO =        -0.00059292
  eigenvalues    EBANDS =     -2779.89457100
  atomic energy  EATOM  =     29053.18212688
  Solvation  Ediel_sol  =         0.00000000
  ---------------------------------------------------
  free energy    TOTEN  =      -374.18092093 eV

  energy without entropy =     -374.18032801  energy(sigma->0) =     -374.18072329


--------------------------------------------------------------------------------------------------------




----------------------------------------- Iteration    1(   6)  ---------------------------------------


    POTLOK:  cpu time    0.0299: real time    0.0309
    SETDIJ:  cpu time    0.0036: real time    0.0037
    EDDIAG:  cpu time    0.1756: real time    0.1801
  RMM-DIIS:  cpu time    1.2500: real time    1.2945
    ORTHCH:  cpu time    0.0136: real time    0.0141
       DOS:  cpu time    0.0299: real time    0.0304
    CHARGE:  cpu time    0.0509: real time    0.0522
    MIXING:  cpu time    0.0016: real time    0.0029
    --------------------------------------------
      LOOP:  cpu time    1.5558: real time    1.6385

 eigenvalue-minimisations  :  7136
 total energy-change (2. order) : 0.1061499E+02  (-0.2291360E+01)
 number of electron     313.9999990 magnetization 
 augmentation part       19.7400530 magnetization 

 Broyden mixing:
  rms(total) = 0.29083E+01    rms(broyden)= 0.29082E+01
  rms(prec ) = 0.30875E+01
  weight for this iteration     100.00

 eigenvalues of (default mixing * dielectric matrix)
  average eigenvalue GAMMA=   1.8051
  1.8051

 Free energy of the ion-electron system (eV)
  ---------------------------------------------------
  alpha Z        PSCENC =      1622.25541310
  Ewald energy   TEWEN  =    -22091.17858861
  -Hartree energ DENC   =     -7477.30337784
  -exchange      EXHF   =         0.00000000
  -V(xc)+E(xc)   XCENC  =        21.47232808
  PAW double counting   =     29619.33837589   -28159.53398567
  entropy T*S    EENTRO =        -0.00260974
  eigenvalues    EBANDS =     -2951.79561329
  atomic energy  EATOM  =     29053.18212688
  Solvation  Ediel_sol  =         0.00000000
  ---------------------------------------------------
  free energy    TOTEN  =      -363.56593120 eV

  energy without entropy =     -363.56332146  energy(sigma->0) =     -363.56506128


--------------------------------------------------------------------------------------------------------




----------------------------------------- Iteration    1(   7)  ---------------------------------------


    POTLOK:  cpu time    0.0407: real time    0.0421
    SETDIJ:  cpu time    0.0050: real time    0.0051
    EDDIAG:  cpu time    0.1395: real time    0.1432
  RMM-DIIS:  cpu time    0.6757: real time    0.8466
    ORTHCH:  cpu time    0.0130: real time    0.0135
       DOS:  cpu time    0.0026: real time    0.0026
    CHARGE:  cpu time    0.0339: real time    0.0349
    MIXING:  cpu time    0.0012: real time    0.0013
    --------------------------------------------
      LOOP:  cpu time    0.9127: real time    1.1660

 eigenvalue-minimisations  :  7122
 total energy-change (2. order) : 0.1680377E+01  (-0.2069597E+01)
 number of electron     313.9999991 magnetization 
 augmentation part       20.2050326 magnetization 

 Broyden mixing:
  rms(total) = 0.75713E+00    rms(broyden)= 0.75685E+00
  rms(prec ) = 0.16652E+01
  weight for this iteration     100.00

 eigenvalues of (default mixing * dielectric matrix)
  average eigenvalue GAMMA=   1.2662
  0.7094  1.8231

 Free energy of the ion-electron system (eV)
  ---------------------------------------------------
  alpha Z        PSCENC =      1622.25541310
  Ewald energy   TEWEN  =    -22091.17858861
  -Hartree energ DENC   =     -7395.47063249
  -exchange      EXHF   =         0.00000000
  -V(xc)+E(xc)   XCENC  =        21.27956843
  PAW double counting   =     35162.44696810   -33693.18973377
  entropy T*S    EENTRO =         0.00795112
  eigenvalues    EBANDS =     -3041.21862706
  atomic energy  EATOM  =     29053.18212688
  Solvation  Ediel_sol  =         0.00000000
  ---------------------------------------------------
  free energy    TOTEN  =      -361.88555429 eV

  energy without entropy =     -361.89350542  energy(sigma->0) =     -361.88820467


--------------------------------------------------------------------------------------------------------




----------------------------------------- Iteration    1(   8)  ---------------------------------------


    POTLOK:  cpu time    0.0281: real time    0.0292
    SETDIJ:  cpu time    0.0035: real time    0.0036
    EDDIAG:  cpu time    0.1131: real time    0.1166
  RMM-DIIS:  cpu time    0.8233: real time    0.8632
    ORTHCH:  cpu time    0.0132: real time    0.0138
       DOS:  cpu time    0.0023: real time    0.0023
    CHARGE:  cpu time    0.0322: real time    0.0331
    MIXING:  cpu time    0.0012: real time    0.0013
    --------------------------------------------
      LOOP:  cpu time    1.0176: real time    1.1022

 eigenvalue-minimisations  :  8029
 total energy-change (2. order) : 0.1983488E+01  (-0.3818796E+00)
 number of electron     313.9999991 magnetization 
 augmentation part       19.9861831 magnetization 

 Broyden mixing:
  rms(total) = 0.43199E+00    rms(broyden)= 0.43165E+00
  rms(prec ) = 0.78092E+00
  weight for this iteration     100.00

 eigenvalues of (default mixing * dielectric matrix)
  average eigenvalue GAMMA=   1.2341
  1.6277  1.6277  0.4467

 Free energy of the ion-electron system (eV)
  ---------------------------------------------------
  alpha Z        PSCENC =      1622.25541310
  Ewald energy   TEWEN  =    -22091.17858861
  -Hartree energ DENC   =     -7377.70918079
  -exchange      EXHF   =         0.00000000
  -V(xc)+E(xc)   XCENC  =        21.20481395
  PAW double counting   =     35666.20003382   -34193.97434867
  entropy T*S    EENTRO =         0.00597959
  eigenvalues    EBANDS =     -3059.88831543
  atomic energy  EATOM  =     29053.18212688
  Solvation  Ediel_sol  =         0.00000000
  ---------------------------------------------------
  free energy    TOTEN  =      -359.90206616 eV

  energy without entropy =     -359.90804576  energy(sigma->0) =     -359.90405936


--------------------------------------------------------------------------------------------------------




----------------------------------------- Iteration    1(   9)  ---------------------------------------


    POTLOK:  cpu time    0.0283: real time    0.0294
    SETDIJ:  cpu time    0.0036: real time    0.0036
    EDDIAG:  cpu time    0.0864: real time    0.0891
  RMM-DIIS:  cpu time    0.8654: real time    0.9082
    ORTHCH:  cpu time    0.0131: real time    0.0136
       DOS:  cpu time    0.0019: real time    0.0019
    CHARGE:  cpu time    0.0314: real time    0.0322
    MIXING:  cpu time    0.0013: real time    0.0014
    --------------------------------------------
      LOOP:  cpu time    1.0319: real time    1.1165

 eigenvalue-minimisations  :  7889
 total energy-change (2. order) : 0.1651388E+00  (-0.1395375E+00)
 number of electron     313.9999991 magnetization 
 augmentation part       19.8607694 magnetization 

 Broyden mixing:
  rms(total) = 0.30113E+00    rms(broyden)= 0.30101E+00
  rms(prec ) = 0.41427E+00
  weight for this iteration     100.00

 eigenvalues of (default mixing * dielectric matrix)
  average eigenvalue GAMMA=   1.1801
  1.9340  1.9340  0.4870  0.3655

 Free energy of the ion-electron system (eV)
  ---------------------------------------------------
  alpha Z        PSCENC =      1622.25541310
  Ewald energy   TEWEN  =    -22091.17858861
  -Hartree energ DENC   =     -7383.73637424
  -exchange      EXHF   =         0.00000000
  -V(xc)+E(xc)   XCENC  =        21.79151230
  PAW double counting   =     35765.02303678   -34288.36052384
  entropy T*S    EENTRO =         0.00799721
  eigenvalues    EBANDS =     -3058.72152692
  atomic energy  EATOM  =     29053.18212688
  Solvation  Ediel_sol  =         0.00000000
  ---------------------------------------------------
  free energy    TOTEN  =      -359.73692734 eV

  energy without entropy =     -359.74492455  energy(sigma->0) =     -359.73959308


--------------------------------------------------------------------------------------------------------




----------------------------------------- Iteration    1(  10)  ---------------------------------------


    POTLOK:  cpu time    0.0288: real time    0.0298
    SETDIJ:  cpu time    0.0037: real time    0.0037
    EDDIAG:  cpu time    0.0975: real time    0.1007
  RMM-DIIS:  cpu time    0.8579: real time    0.9038
    ORTHCH:  cpu time    0.0132: real time    0.0136
       DOS:  cpu time    0.0032: real time    0.0033
    CHARGE:  cpu time    0.0317: real time    0.0326
    MIXING:  cpu time    0.0013: real time    0.0014
    --------------------------------------------
      LOOP:  cpu time    1.0378: real time    1.1270

 eigenvalue-minimisations  :  7805
 total energy-change (2. order) : 0.6253898E-01  (-0.3939979E-01)
 number of electron     313.9999991 magnetization 
 augmentation part       19.7427864 magnetization 

 Broyden mixing:
  rms(total) = 0.11711E+00    rms(broyden)= 0.11701E+00
  rms(prec ) = 0.19712E+00
  weight for this iteration     100.00

 eigenvalues of (default mixing * dielectric matrix)
  average eigenvalue GAMMA=   1.1232
  2.0330  1.9198  0.8063  0.4929  0.3639

 Free energy of the ion-electron system (eV)
  ---------------------------------------------------
  alpha Z        PSCENC =      1622.25541310
  Ewald energy   TEWEN  =    -22091.17858861
  -Hartree energ DENC   =     -7405.71556744
  -exchange      EXHF   =         0.00000000
  -V(xc)+E(xc)   XCENC  =        23.19485524
  PAW double counting   =     35980.92520497   -34494.07907339
  entropy T*S    EENTRO =         0.00965384
  eigenvalues    EBANDS =     -3048.26841294
  atomic energy  EATOM  =     29053.18212688
  Solvation  Ediel_sol  =         0.00000000
  ---------------------------------------------------
  free energy    TOTEN  =      -359.67438836 eV

  energy without entropy =     -359.68404220  energy(sigma->0) =     -359.67760630


--------------------------------------------------------------------------------------------------------




----------------------------------------- Iteration    1(  11)  ---------------------------------------


    POTLOK:  cpu time    0.0279: real time    0.0289
    SETDIJ:  cpu time    0.0167: real time    0.0171
    EDDIAG:  cpu time    0.0990: real time    0.1028
  RMM-DIIS:  cpu time    0.8568: real time    0.8890
    ORTHCH:  cpu time    0.0135: real time    0.0136
       DOS:  cpu time    0.0043: real time    0.0043
    CHARGE:  cpu time    0.0316: real time    0.0318
    MIXING:  cpu time    0.0014: real time    0.0014
    --------------------------------------------
      LOOP:  cpu time    1.0518: real time    1.1298

 eigenvalue-minimisations  :  7877
 total energy-change (2. order) : 0.2400146E-01  (-0.1113769E-01)
 number of electron     313.9999991 magnetization 
 augmentation part       19.7212324 magnetization 

 Broyden mixing:
  rms(total) = 0.56845E-01    rms(broyden)= 0.56791E-01
  rms(prec ) = 0.86405E-01
  weight for this iteration     100.00

 eigenvalues of (default mixing * dielectric matrix)
  average eigenvalue GAMMA=   1.1010
  2.2513  1.7287  1.2729  0.3585  0.5399  0.4548

 Free energy of the ion-electron system (eV)
  ---------------------------------------------------
  alpha Z        PSCENC =      1622.25541310
  Ewald energy   TEWEN  =    -22091.17858861
  -Hartree energ DENC   =     -7407.44522333
  -exchange      EXHF   =         0.00000000
  -V(xc)+E(xc)   XCENC  =        23.43820097
  PAW double counting   =     36134.20004743   -34644.36030541
  entropy T*S    EENTRO =         0.00858601
  eigenvalues    EBANDS =     -3049.75064393
  atomic energy  EATOM  =     29053.18212688
  Solvation  Ediel_sol  =         0.00000000
  ---------------------------------------------------
  free energy    TOTEN  =      -359.65038690 eV

  energy without entropy =     -359.65897290  energy(sigma->0) =     -359.65324890


--------------------------------------------------------------------------------------------------------




----------------------------------------- Iteration    1(  12)  ---------------------------------------


    POTLOK:  cpu time    0.0288: real time    0.0294
    SETDIJ:  cpu time    0.0037: real time    0.0037
    EDDIAG:  cpu time    0.1063: real time    0.1081
  RMM-DIIS:  cpu time    0.9832: real time    1.0160
    ORTHCH:  cpu time    0.0132: real time    0.0135
       DOS:  cpu time    0.0087: real time    0.0087
    CHARGE:  cpu time    0.0536: real time    0.0538
    MIXING:  cpu time    0.0015: real time    0.0015
    --------------------------------------------
      LOOP:  cpu time    1.1995: real time    1.2672

 eigenvalue-minimisations  :  7935
 total energy-change (2. order) : 0.1363554E-02  (-0.3648636E-02)
 number of electron     313.9999991 magnetization 
 augmentation part       19.7229335 magnetization 

 Broyden mixing:
  rms(total) = 0.35081E-01    rms(broyden)= 0.35068E-01
  rms(prec ) = 0.53893E-01
  weight for this iteration     100.00

 eigenvalues of (default mixing * dielectric matrix)
  average eigenvalue GAMMA=   1.1049
  2.2940  1.6792  1.6792  0.7638  0.4939  0.4747  0.3498

 Free energy of the ion-electron system (eV)
  ---------------------------------------------------
  alpha Z        PSCENC =      1622.25541310
  Ewald energy   TEWEN  =    -22091.17858861
  -Hartree energ DENC   =     -7407.40616062
  -exchange      EXHF   =         0.00000000
  -V(xc)+E(xc)   XCENC  =        23.48436236
  PAW double counting   =     36252.34707731   -34761.07525484
  entropy T*S    EENTRO =         0.00907997
  eigenvalues    EBANDS =     -3051.26707888
  atomic energy  EATOM  =     29053.18212688
  Solvation  Ediel_sol  =         0.00000000
  ---------------------------------------------------
  free energy    TOTEN  =      -359.64902334 eV

  energy without entropy =     -359.65810332  energy(sigma->0) =     -359.65205000


--------------------------------------------------------------------------------------------------------




----------------------------------------- Iteration    1(  13)  ---------------------------------------


    POTLOK:  cpu time    0.0283: real time    0.0293
    SETDIJ:  cpu time    0.0035: real time    0.0036
    EDDIAG:  cpu time    0.1241: real time    0.1280
  RMM-DIIS:  cpu time    0.9690: real time    1.0173
    ORTHCH:  cpu time    0.0132: real time    0.0137
       DOS:  cpu time    0.0054: real time    0.0055
    CHARGE:  cpu time    0.0330: real time    0.0339
    MIXING:  cpu time    0.0015: real time    0.0015
    --------------------------------------------
      LOOP:  cpu time    1.1786: real time    1.2675

 eigenvalue-minimisations  :  8186
 total energy-change (2. order) :-0.2936143E-04  (-0.1446087E-02)
 number of electron     313.9999991 magnetization 
 augmentation part       19.7203848 magnetization 

 Broyden mixing:
  rms(total) = 0.21771E-01    rms(broyden)= 0.21765E-01
  rms(prec ) = 0.33631E-01
  weight for this iteration     100.00

 eigenvalues of (default mixing * dielectric matrix)
  average eigenvalue GAMMA=   1.1144
  2.4559  1.9935  1.6393  1.0010  0.5286  0.5286  0.3535  0.4146

 Free energy of the ion-electron system (eV)
  ---------------------------------------------------
  alpha Z        PSCENC =      1622.25541310
  Ewald energy   TEWEN  =    -22091.17858861
  -Hartree energ DENC   =     -7407.94426671
  -exchange      EXHF   =         0.00000000
  -V(xc)+E(xc)   XCENC  =        23.49226460
  PAW double counting   =     36294.47189258   -34802.54844616
  entropy T*S    EENTRO =         0.00901161
  eigenvalues    EBANDS =     -3051.38845998
  atomic energy  EATOM  =     29053.18212688
  Solvation  Ediel_sol  =         0.00000000
  ---------------------------------------------------
  free energy    TOTEN  =      -359.64905271 eV

  energy without entropy =     -359.65806431  energy(sigma->0) =     -359.65205657


--------------------------------------------------------------------------------------------------------




----------------------------------------- Iteration    1(  14)  ---------------------------------------


    POTLOK:  cpu time    0.0282: real time    0.0293
    SETDIJ:  cpu time    0.0044: real time    0.0044
    EDDIAG:  cpu time    0.1068: real time    0.1103
  RMM-DIIS:  cpu time    0.9147: real time    0.9822
    ORTHCH:  cpu time    0.0149: real time    0.0164
       DOS:  cpu time    0.0011: real time    0.0012
    CHARGE:  cpu time    0.0339: real time    0.0348
    MIXING:  cpu time    0.0019: real time    0.0020
    --------------------------------------------
      LOOP:  cpu time    1.1065: real time    1.2094

 eigenvalue-minimisations  :  8138
 total energy-change (2. order) :-0.2707746E-03  (-0.6320903E-03)
 number of electron     313.9999991 magnetization 
 augmentation part       19.7187600 magnetization 

 Broyden mixing:
  rms(total) = 0.11880E-01    rms(broyden)= 0.11875E-01
  rms(prec ) = 0.18958E-01
  weight for this iteration     100.00

 eigenvalues of (default mixing * dielectric matrix)
  average eigenvalue GAMMA=   1.0993
  2.6528  2.1117  1.5411  1.2075  0.6514  0.5457  0.4635  0.3569  0.3632

 Free energy of the ion-electron system (eV)
  ---------------------------------------------------
  alpha Z        PSCENC =      1622.25541310
  Ewald energy   TEWEN  =    -22091.17858861
  -Hartree energ DENC   =     -7408.01939875
  -exchange      EXHF   =         0.00000000
  -V(xc)+E(xc)   XCENC  =        23.49548396
  PAW double counting   =     36323.32793825   -34830.77683885
  entropy T*S    EENTRO =         0.00901121
  eigenvalues    EBANDS =     -3051.94447066
  atomic energy  EATOM  =     29053.18212688
  Solvation  Ediel_sol  =         0.00000000
  ---------------------------------------------------
  free energy    TOTEN  =      -359.64932348 eV

  energy without entropy =     -359.65833469  energy(sigma->0) =     -359.65232722


--------------------------------------------------------------------------------------------------------




----------------------------------------- Iteration    1(  15)  ---------------------------------------


    POTLOK:  cpu time    0.0291: real time    0.0316
    SETDIJ:  cpu time    0.0038: real time    0.0039
    EDDIAG:  cpu time    0.0939: real time    0.0953
  RMM-DIIS:  cpu time    0.8956: real time    0.9021
    ORTHCH:  cpu time    0.0134: real time    0.0135
       DOS:  cpu time    0.0039: real time    0.0039
    CHARGE:  cpu time    0.0345: real time    0.0346
    MIXING:  cpu time    0.0020: real time    0.0020
    --------------------------------------------
      LOOP:  cpu time    1.0769: real time    1.1239

 eigenvalue-minimisations  :  7915
 total energy-change (2. order) :-0.1002686E-03  (-0.2791857E-03)
 number of electron     313.9999991 magnetization 
 augmentation part       19.7171495 magnetization 

 Broyden mixing:
  rms(total) = 0.44981E-02    rms(broyden)= 0.44944E-02
  rms(prec ) = 0.84301E-02
  weight for this iteration     100.00

 eigenvalues of (default mixing * dielectric matrix)
  average eigenvalue GAMMA=   1.0683
  2.6483  2.1076  1.6295  1.1702  0.8961  0.5659  0.5080  0.4478  0.3550  0.3550

 Free energy of the ion-electron system (eV)
  ---------------------------------------------------
  alpha Z        PSCENC =      1622.25541310
  Ewald energy   TEWEN  =    -22091.17858861
  -Hartree energ DENC   =     -7408.80396047
  -exchange      EXHF   =         0.00000000
  -V(xc)+E(xc)   XCENC  =        23.52132164
  PAW double counting   =     36337.54296043   -34844.56985541
  entropy T*S    EENTRO =         0.00910114
  eigenvalues    EBANDS =     -3051.60794244
  atomic energy  EATOM  =     29053.18212688
  Solvation  Ediel_sol  =         0.00000000
  ---------------------------------------------------
  free energy    TOTEN  =      -359.64942375 eV

  energy without entropy =     -359.65852489  energy(sigma->0) =     -359.65245746


--------------------------------------------------------------------------------------------------------




----------------------------------------- Iteration    1(  16)  ---------------------------------------


    POTLOK:  cpu time    0.0300: real time    0.0309
    SETDIJ:  cpu time    0.1326: real time    0.1349
    EDDIAG:  cpu time    0.0878: real time    0.0898
  RMM-DIIS:  cpu time    0.7375: real time    0.7446
    ORTHCH:  cpu time    0.0137: real time    0.0137
       DOS:  cpu time    0.0036: real time    0.0036
    CHARGE:  cpu time    0.0359: real time    0.0362
    MIXING:  cpu time    0.0020: real time    0.0020
    --------------------------------------------
      LOOP:  cpu time    1.0438: real time    1.0995

 eigenvalue-minimisations  :  6751
 total energy-change (2. order) :-0.8176535E-04  (-0.1345482E-03)
 number of electron     313.9999991 magnetization 
 augmentation part       19.7169205 magnetization 

 Broyden mixing:
  rms(total) = 0.27225E-02    rms(broyden)= 0.27199E-02
  rms(prec ) = 0.55603E-02
  weight for this iteration     100.00

 eigenvalues of (default mixing * dielectric matrix)
  average eigenvalue GAMMA=   1.0321
  2.6494  2.0984  1.6528  1.1999  1.0248  0.6165  0.4872  0.4872  0.4316  0.3525
  0.3525

 Free energy of the ion-electron system (eV)
  ---------------------------------------------------
  alpha Z        PSCENC =      1622.25541310
  Ewald energy   TEWEN  =    -22091.17858861
  -Hartree energ DENC   =     -7408.91681018
  -exchange      EXHF   =         0.00000000
  -V(xc)+E(xc)   XCENC  =        23.52325808
  PAW double counting   =     36344.41409314   -34851.32888726
  entropy T*S    EENTRO =         0.00915316
  eigenvalues    EBANDS =     -3051.60926382
  atomic energy  EATOM  =     29053.18212688
[...]
     98       5.2526      2.00000
     99       5.3345      2.00000
    100       5.3712      2.00000
    101       5.4322      2.00000
    102       5.4559      2.00000
    103       5.5294      2.00000
    104       5.5483      2.00000
    105       5.6060      2.00000
    106       5.6535      2.00000
    107       5.6980      2.00000
    108       5.7363      2.00000
    109       5.7864      2.00000
    110       5.8534      2.00000
    111       5.8902      2.00000
    112       5.9360      2.00000
    113       5.9941      2.00000
    114       6.0299      2.00000
    115       6.0646      2.00000
    116       6.1218      2.00000
    117       6.2022      2.00000
    118       6.3346      2.00000
    119       6.3995      2.00000
    120       6.4462      2.00000
    121       6.4812      2.00000
    122       6.5034      2.00000
    123       6.5337      2.00000
    124       6.5827      2.00000
    125       6.6636      2.00000
    126       6.6866      2.00000
    127       6.7136      2.00000
    128       6.7397      2.00000
    129       6.7844      2.00000
    130       6.8026      2.00000
    131       6.8423      2.00000
    132       6.8778      2.00000
    133       6.9014      2.00000
    134       6.9510      2.00000
    135       6.9548      2.00000
    136       6.9994      2.00000
    137       7.0605      2.00000
    138       7.0722      2.00000
    139       7.1256      2.00000
    140       7.1477      2.00000
    141       7.2140      2.00000
    142       7.2449      2.00000
    143       7.3148      2.00000
    144       7.3451      2.00001
    145       7.3727      2.00002
    146       7.4126      2.00010
    147       7.4735      2.00088
    148       7.4858      2.00130
    149       7.5287      2.00463
    150       7.5598      2.01022
    151       7.5970      2.02289
    152       7.6109      2.02960
    153       7.6544      2.05525
    154       7.6840      2.06922
    155       7.7195      2.06144
    156       7.7363      2.03940
    157       7.8426      1.40246
    158       7.8635      1.17874
    159       7.8735      1.06722
    160       7.9393      0.38100
    161       7.9715      0.14823
    162       8.0147     -0.02323
    163       8.0236     -0.04118
    164       8.0771     -0.06858
    165       8.0967     -0.05977
    166       8.1291     -0.04025
    167       8.1904     -0.01255
    168       8.2221     -0.00575
    169       8.2732     -0.00130
    170       8.3078     -0.00041
    171       8.3375     -0.00014
    172       8.3886     -0.00002
    173       8.4278     -0.00000
    174       8.4737     -0.00000
    175       8.5226     -0.00000
    176       8.5947     -0.00000
    177       8.6485     -0.00000
    178       8.6930     -0.00000
    179       8.7402     -0.00000
    180       8.8096     -0.00000
    181       8.9764     -0.00000
    182       9.0890     -0.00000
    183       9.2088     -0.00000
    184       9.6459     -0.00000
    185       9.7617     -0.00000
    186       9.7972     -0.00000
    187       9.8348     -0.00000
    188       9.9453     -0.00000


--------------------------------------------------------------------------------------------------------


 soft charge-density along one line, spin component           1
         0         1         2         3         4         5         6         7         8         9
 total charge-density along one line
 
 pseudopotential strength for first ion, spin component:           1
 -5.017  -0.002  -0.000   0.001   0.000  -6.254  -0.003  -0.000
 -0.002  -5.020   0.002   0.000  -0.004  -0.003  -6.258   0.002
 -0.000   0.002  -5.018   0.001   0.001  -0.000   0.002  -6.256
  0.001   0.000   0.001  -5.019  -0.000   0.001   0.000   0.001
  0.000  -0.004   0.001  -0.000  -5.020   0.000  -0.004   0.001
 -6.254  -0.003  -0.000   0.001   0.000  -7.776  -0.004  -0.000
 -0.003  -6.258   0.002   0.000  -0.004  -0.004  -7.782   0.003
 -0.000   0.002  -6.256   0.001   0.001  -0.000   0.003  -7.778
  0.001   0.000   0.001  -6.257  -0.001   0.001   0.000   0.001
  0.000  -0.004   0.001  -0.001  -6.258   0.000  -0.006   0.001
  0.000  -0.002  -0.000   0.001   0.001   0.000  -0.003  -0.000
  0.000  -0.004  -0.000   0.002   0.001   0.001  -0.005  -0.000
 -0.005  -0.006   0.001   0.000  -0.002  -0.006  -0.008   0.001
  0.000   0.000  -0.003  -0.007  -0.000   0.000   0.000  -0.004
 -0.002   0.000   0.004  -0.007  -0.009  -0.003   0.000   0.005
  0.006   0.009  -0.001  -0.000   0.002   0.008   0.011  -0.002
 -0.000  -0.001   0.004   0.010   0.000  -0.000  -0.001   0.005
  0.004  -0.000  -0.005   0.009   0.012   0.005  -0.000  -0.006
 total augmentation occupancy for first ion, spin component:           1
  4.222  -0.132   0.003  -0.058   0.018  -2.202   0.064  -0.001   0.014  -0.007  -0.006   0.002  -0.014  -0.004   0.037   0.002
 -0.132   3.813   0.075   0.018  -0.176   0.063  -2.003  -0.036  -0.011   0.084   0.097  -0.037   0.036  -0.055  -0.014   0.003
  0.003   0.075   4.167   0.110   0.026  -0.001  -0.036  -2.226  -0.048   0.000   0.041   0.001  -0.043  -0.003  -0.008  -0.000
 -0.058   0.018   0.110   4.064   0.065   0.014  -0.011  -0.049  -2.139  -0.029  -0.030   0.018  -0.014   0.043   0.073  -0.000
  0.018  -0.176   0.026   0.065   4.047  -0.007   0.083   0.000  -0.029  -2.192   0.016  -0.001   0.021   0.009   0.074   0.001
 -2.202   0.063  -0.001   0.014  -0.007   1.160  -0.031  -0.000   0.001   0.003   0.002  -0.001   0.005   0.002  -0.021  -0.001
  0.064  -2.003  -0.036  -0.011   0.083  -0.031   1.062   0.017   0.006  -0.039  -0.057   0.020  -0.017   0.023   0.007  -0.002
 -0.001  -0.036  -2.226  -0.049   0.000  -0.000   0.017   1.197   0.021  -0.008  -0.014  -0.001   0.020   0.003   0.006   0.000
  0.014  -0.011  -0.048  -2.139  -0.029   0.001   0.006   0.021   1.136   0.013   0.013  -0.009   0.006  -0.022  -0.039   0.000
 -0.007   0.084   0.000  -0.029  -2.192   0.003  -0.039  -0.008   0.013   1.195  -0.018   0.002  -0.011  -0.007  -0.038  -0.001
 -0.006   0.097   0.041  -0.030   0.016   0.002  -0.057  -0.014   0.013  -0.018   2.406  -0.309   0.005   0.006   0.023   0.000
  0.002  -0.037   0.001   0.018  -0.001  -0.001   0.020  -0.001  -0.009   0.002  -0.309   0.042  -0.001   0.002   0.002  -0.000
 -0.014   0.036  -0.043  -0.014   0.021   0.005  -0.017   0.020   0.006  -0.011   0.005  -0.001   0.302   0.014   0.003   0.005
 -0.004  -0.055  -0.003   0.043   0.009   0.002   0.023   0.003  -0.022  -0.007   0.006   0.002   0.014   0.305  -0.009   0.000
  0.037  -0.014  -0.008   0.073   0.074  -0.021   0.007   0.006  -0.039  -0.038   0.023   0.002   0.003  -0.009   0.309   0.000
  0.002   0.003  -0.000  -0.000   0.001  -0.001  -0.002   0.000   0.000  -0.001   0.000  -0.000   0.005   0.000   0.000   0.000
 -0.000  -0.001   0.002   0.004   0.000   0.000   0.000  -0.001  -0.002  -0.000   0.002  -0.000   0.000   0.005  -0.000  -0.000
  0.001  -0.001  -0.002   0.004   0.005  -0.001   0.000   0.001  -0.002  -0.002   0.002  -0.000   0.000  -0.000   0.006   0.000


------------------------ aborting loop because EDIFF is reached ----------------------------------------


    CHARGE:  cpu time    0.0300: real time    0.0328
    FORLOC:  cpu time    0.0134: real time    0.0136
    FORNL :  cpu time    0.3238: real time    0.3386
    STRESS:  cpu time    1.0008: real time    1.0462
    FORCOR:  cpu time    0.0426: real time    0.0439
    FORHAR:  cpu time    0.0182: real time    0.0187
    MIXING:  cpu time    0.0012: real time    0.0013
    OFIELD:  cpu time    0.0000: real time    0.0000

  FORCE on cell =-STRESS in cart. coord.  units (eV):
  Direction    XX          YY          ZZ          XY          YZ          ZX
  --------------------------------------------------------------------------------------
  Alpha Z  1622.77055  1622.77055  1622.77055
  Ewald   -6985.13123 -8348.92116 -6758.30281   266.30311    39.26019  -341.32073
  Hartree  2831.89378  1539.11395  3038.45241   237.80562    30.36226  -284.29248
  E(xc)   -1376.12582 -1376.33698 -1376.75440    -0.29763     0.45904     0.66601
  Local   -1477.29185  1172.62158 -1913.11350  -503.46424   -69.65607   627.31337
  n-local  -294.64064  -292.74962  -293.51783     1.63750    -1.89847     1.70183
  augment   256.16556   256.59365   256.18140    -0.35254     0.31599    -0.24661
  Kinetic  5422.48205  5427.03713  5424.41094    -1.61671     1.17356    -3.84150
  Fock        0.00000     0.00000     0.00000     0.00000     0.00000     0.00000
  -------------------------------------------------------------------------------------
  Total       0.12239     0.12909     0.12677     0.01512     0.01650    -0.02013
  in kB       0.27033     0.28514     0.28000     0.03341     0.03645    -0.04446
  external pressure =        0.28 kB  Pullay stress =        0.00 kB


 VOLUME and BASIS-vectors are now :
 -----------------------------------------------------------------------------
  energy-cutoff  :      300.00
  volume of cell :      725.37
      direct lattice vectors                 reciprocal lattice vectors
     6.953925774  0.001414507  0.043006477     0.143809170 -0.000030955 -0.000889347
     0.002204526 10.246659092 -0.000168207    -0.000019928  0.097592790  0.000012411
     0.062957303 -0.001281746 10.180366719    -0.000607515  0.000001743  0.098232046

  length of vectors
     6.954058903 10.246659331 10.180561467     0.143811923  0.097592793  0.098233924


 FORCES acting on ions
    electron-ion (+dipol)            ewald-force                    non-local-force                 convergence-correction
 -----------------------------------------------------------------------------------------------
   0.428E+02 -.111E+03 0.376E+02   -.422E+02 0.111E+03 -.372E+02   -.544E+00 0.573E-01 -.448E+00   0.227E-02 0.108E-01 0.614E-03
   -.143E+02 -.530E+02 -.758E+01   0.141E+02 0.530E+02 0.698E+01   0.173E+00 -.171E-01 0.606E+00   -.126E-02 0.113E-01 0.104E-02
   0.185E+02 -.991E+02 -.455E+02   -.187E+02 0.989E+02 0.455E+02   0.149E+00 0.179E+00 0.399E-01   0.364E-03 0.150E-01 0.435E-03
   -.344E+02 0.700E+02 -.399E+02   0.340E+02 -.701E+02 0.397E+02   0.400E+00 0.716E-01 0.265E+00   -.272E-02 -.100E-01 -.599E-02
   -.567E+01 -.116E+03 -.919E+01   0.625E+01 0.116E+03 0.922E+01   -.584E+00 0.150E+00 -.382E-01   0.656E-03 -.209E-02 0.331E-02
   -.900E+02 0.220E+02 -.126E+02   0.892E+02 -.221E+02 0.133E+02   0.802E+00 0.732E-01 -.681E+00   -.303E-02 0.147E-01 -.781E-03
   -.366E+01 0.858E+02 0.232E+02   0.421E+01 -.856E+02 -.227E+02   -.546E+00 -.162E+00 -.474E+00   -.127E-02 0.141E-02 -.911E-03
   -.288E+01 0.845E+02 0.131E+02   0.184E+01 -.846E+02 -.133E+02   0.104E+01 0.916E-01 0.236E+00   -.134E-02 -.141E-01 0.137E-02
   0.645E+02 0.354E+02 -.299E+02   -.640E+02 -.356E+02 0.294E+02   -.529E+00 0.152E+00 0.564E+00   0.502E-02 -.425E-02 -.679E-03
   -.152E+02 0.378E+02 0.261E+01   0.151E+02 -.376E+02 -.248E+01   0.956E-01 -.185E+00 -.126E+00   -.867E-04 -.198E-02 0.208E-02
   -.335E+02 0.749E+02 -.915E+01   0.341E+02 -.753E+02 0.954E+01   -.615E+00 0.356E+00 -.386E+00   -.991E-02 -.413E-01 -.841E-03
   0.433E+01 -.123E+03 -.110E+03   -.396E+01 0.124E+03 0.110E+03   -.348E+00 -.436E+00 0.341E+00   -.127E-01 0.307E-01 -.115E-01
   0.218E+03 -.152E+02 0.139E+01   -.217E+03 0.151E+02 -.944E+00   -.115E+01 -.149E-01 -.446E+00   0.117E-02 0.483E-01 -.152E-03
   -.571E+02 0.247E+03 -.145E+03   0.574E+02 -.248E+03 0.144E+03   -.327E+00 0.429E+00 0.437E+00   -.374E-03 -.289E-01 -.199E-01
   0.635E+02 0.224E+03 -.491E+02   -.641E+02 -.224E+03 0.504E+02   0.596E+00 0.195E+00 -.136E+01   0.212E-01 0.493E-02 -.168E-01
   0.315E+02 -.209E+03 -.213E+02   -.308E+02 0.209E+03 0.214E+02   -.707E+00 -.639E+00 -.230E-01   -.245E-02 0.240E-02 -.133E-01
   -.346E+02 -.283E+03 0.733E+02   0.341E+02 0.284E+03 -.738E+02   0.515E+00 -.610E+00 0.542E+00   0.314E-03 -.510E-02 -.114E-01
   -.340E+02 -.989E+02 0.279E+01   0.348E+02 0.986E+02 -.195E+01   -.730E+00 0.342E+00 -.833E+00   -.491E-02 0.111E-01 -.791E-02
   -.180E+03 0.402E+02 -.481E+02   0.179E+03 -.399E+02 0.476E+02   0.614E+00 -.226E+00 0.543E+00   -.179E-01 -.293E-01 0.737E-02
   0.303E+02 -.300E+03 0.259E+01   -.311E+02 0.300E+03 -.264E+01   0.806E+00 0.962E+00 0.455E-01   -.647E-02 -.753E-02 0.963E-02
   -.223E+02 0.199E+03 0.873E+02   0.222E+02 -.199E+03 -.874E+02   0.756E-01 0.788E-01 0.130E+00   -.642E-03 -.357E-01 0.174E-01
   -.756E+02 0.292E+03 0.105E+03   0.766E+02 -.292E+03 -.105E+03   -.101E+01 -.263E+00 -.117E+00   -.599E-02 -.386E-01 0.196E-01
   0.706E+02 0.228E+03 -.119E+03   -.700E+02 -.228E+03 0.118E+03   -.604E+00 0.255E+00 0.565E+00   0.118E-01 -.298E-01 -.200E-01
   0.230E+02 0.175E+03 0.510E+02   -.229E+02 -.175E+03 -.510E+02   -.556E-01 -.119E+00 0.643E-02   0.284E-02 -.389E-01 0.168E-01
   0.213E+02 0.553E+02 0.621E+02   -.220E+02 -.551E+02 -.618E+02   0.603E+00 -.147E+00 -.328E+00   0.112E-01 -.407E-01 0.255E-02
   0.221E+02 -.107E+03 0.233E+02   -.226E+02 0.107E+03 -.235E+02   0.455E+00 -.127E+00 0.192E+00   -.232E-02 0.965E-02 -.279E-02
   0.756E+02 0.531E+02 0.118E+03   -.756E+02 -.531E+02 -.118E+03   -.440E-02 0.518E-01 0.545E+00   0.435E-02 -.184E-01 0.135E-01
   -.771E+02 -.252E+03 0.537E+02   0.765E+02 0.251E+03 -.542E+02   0.679E+00 0.137E+00 0.556E+00   -.101E-01 0.458E-01 -.256E-02
   -.170E+02 -.219E+03 -.764E+02   0.170E+02 0.219E+03 0.762E+02   0.219E-01 0.360E-01 0.251E+00   0.142E-02 0.540E-01 0.344E-02
   -.433E+02 -.115E+03 0.207E+02   0.427E+02 0.115E+03 -.199E+02   0.560E+00 0.942E-01 -.743E+00   -.292E-02 0.145E-01 -.103E-02
   -.160E+02 0.840E+02 0.198E+02   0.169E+02 -.841E+02 -.195E+02   -.895E+00 0.127E+00 -.338E+00   0.428E-03 -.203E-01 0.694E-03
   -.255E+01 -.191E+02 -.108E+02   0.338E+01 0.191E+02 0.111E+02   -.833E+00 -.640E-02 -.257E+00   -.141E-02 0.123E-01 -.362E-02
   0.429E+02 -.135E+03 0.113E+02   -.426E+02 0.135E+03 -.120E+02   -.308E+00 -.309E+00 0.636E+00   0.487E-02 0.168E-01 0.630E-03
   -.210E+01 0.528E+01 0.517E+02   0.143E+01 -.538E+01 -.522E+02   0.664E+00 0.837E-01 0.444E+00   0.994E-03 0.156E-01 0.202E-02
   0.173E+02 0.150E+03 0.389E+02   -.179E+02 -.150E+03 -.388E+02   0.650E+00 -.489E+00 -.588E-01   0.742E-03 -.173E-01 0.509E-02
   0.149E+02 0.905E+02 -.662E+02   -.150E+02 -.910E+02 0.661E+02   0.156E+00 0.452E+00 0.493E-01   -.148E-03 -.131E-01 -.631E-02
 -----------------------------------------------------------------------------------------------
   0.749E+00 -.546E+00 -.322E+00   -.153E-12 -.256E-12 -.711E-13   -.731E+00 0.621E+00 0.338E+00   -.182E-01 -.784E-01 -.188E-01
 
 
 POSITION                                       TOTAL-FORCE (eV/Angst)
 -----------------------------------------------------------------------------------
      1.87601      5.17357      1.71234        -0.001276     -0.000047     -0.001244
      3.45761      6.81834      6.59889        -0.004422     -0.000358     -0.000577
      1.87941      5.21002      8.61322         0.004314     -0.003984     -0.004393
      1.60267      1.73360      4.94827         0.000807     -0.002200     -0.000001
      0.04947      3.39076      0.04066        -0.003665      0.002822     -0.004667
      6.73131      6.80120      0.23142         0.002427      0.001453     -0.004410
      1.83906      8.45851      1.69778         0.002960     -0.001537      0.003559
      3.32067     10.23641      6.68565        -0.002072      0.003681      0.004334
      5.39127      8.60059      5.13695        -0.001614      0.001425     -0.005801
      1.89719      8.41956      8.63895         0.001210     -0.003000      0.005683
      1.77760      1.70487      1.82714         0.000310      0.003019      0.000336
      0.19023      6.87938      6.69554         0.004331      0.007208      0.004929
      3.76550      6.83884      0.11354         0.002691      0.000142      0.000126
      6.96874     10.15796      3.29121        -0.003428     -0.001604      0.000670
      5.12581      8.57845      1.86919        -0.002421     -0.004147     -0.003079
      3.52792      3.49278      3.50014        -0.002527     -0.000398     -0.000325
      6.86884      3.51565      3.25196        -0.001034     -0.003180      0.004343
      0.15353      3.37359      6.94650         0.002757     -0.000299      0.001041
      1.65293      8.54106      4.96620         0.002421      0.001909     -0.002093
      3.38303      3.25409      0.02341         0.004714      0.003701      0.002531
      1.79084      1.72700      8.49738        -0.001600     -0.003564      0.001001
      0.07833      0.05857      0.04173        -0.003141     -0.002486     -0.001544
      5.35711      1.68765      5.10592        -0.002480      0.000671      0.000355
      5.25849      1.66704      8.46916         0.002508     -0.001567     -0.001403
      5.11002      1.73039      1.79796        -0.000840      0.005051     -0.003216
      3.45731      3.41663      6.70848        -0.006008     -0.005211      0.003807
      5.30685      8.59349      8.41589         0.003648      0.000089     -0.003495
      1.60739      5.07032      4.98566        -0.001873     -0.000057      0.003422
      5.30480      5.10152      8.41368        -0.003021      0.004896     -0.002617
      5.06769      5.07474      1.84828         0.006596     -0.000339     -0.000047
      0.29403     10.22679      6.87294         0.000199     -0.003258     -0.001348
      3.58720      6.86840      3.53509        -0.005721     -0.000539     -0.001856
      5.36879      5.16346      5.05994         0.002067     -0.002418      0.003905
      6.84430      6.82844      3.35316        -0.003216      0.000796      0.000524
      3.34196      0.14702      0.08395         0.002635      0.000013     -0.000507
      3.44600     10.15143      3.47669         0.003764      0.003317      0.002056
 -----------------------------------------------------------------------------------
    total drift:                                0.000059     -0.003479     -0.002469


--------------------------------------------------------------------------------------------------------



  FREE ENERGIE OF THE ION-ELECTRON SYSTEM (eV)
  ---------------------------------------------------
  free  energy   TOTEN  =      -359.66180059 eV

  energy  without entropy=     -359.67144931  energy(sigma->0) =     -359.66501683
 
 d Force = 0.5143221E-04[ 0.384E-04, 0.645E-04]  d Energy = 0.1589336E-04 0.355E-04
 d Force = 0.2931577E+00[ 0.293E+00, 0.293E+00]  d Ewald  = 0.1893937E+01-0.160E+01


--------------------------------------------------------------------------------------------------------


    POTLOK:  cpu time    0.0516: real time    0.0530


--------------------------------------------------------------------------------------------------------




--------------------------------------------------------------------------------------------------------


  
 reached required accuracy - stopping structural energy minimisation
     LOOP+:  cpu time    5.4549: real time    6.1907
    4ORBIT:  cpu time    0.0000: real time    0.0000

 total amount of memory used by VASP on root node    68473. kBytes
========================================================================

   base      :      30000. kBytes
   nonlr-proj:      10551. kBytes
   fftplans  :       2814. kBytes
   grid      :       5360. kBytes
   one-center:        124. kBytes
   wavefun   :      19624. kBytes
 
  
  
 General timing and accounting informations for this job:
 ========================================================
  
                  Total CPU time used (sec):      154.498
                            User time (sec):      153.180
                          System time (sec):        1.318
                         Elapsed time (sec):      179.092
  
                   Maximum memory used (kb):      267096.
                   Average memory used (kb):           0.
  
                          Minor page faults:       118186
                          Major page faults:           35
                 Voluntary context switches:         6482
