<?xml version="1.0" encoding="ISO-8859-1"?>
<modeling>
 <generator>
  <i name="program" type="string">vasp </i>
  <i name="version" type="string">5.4.1  </i>
  <i name="subversion" type="string">05Feb16 (build Jan 29 2020 16:04:39) complex                          parallel </i>
  <i name="platform" type="string">IFC91_ompi </i>
  <i name="date" type="string">2020 06 15 </i>
  <i name="time" type="string">12:03:36 </i>
 </generator>
 <incar>
  <i type="string" name="SYSTEM"> automatically generated by mexm</i>
  <i type="int" name="ISTART">     0</i>
  <i type="string" name="PREC">accurate               ! avoid wrap aro</i>
  <i type="string" name="ALGO"> Fast                   ! blocked Davids</i>
  <i type="int" name="ISPIN">     1</i>
  <i type="int" name="ICHARG">     2</i>
  <i type="int" name="NELM">    70</i>
  <i type="int" name="IBRION">     2</i>
  <i name="EDIFF">      0.00001000</i>
  <i name="EDIFFG">     -0.01000000</i>
  <i type="int" name="NSW">   300</i>
  <i type="int" name="ISIF">     3</i>
  <i type="int" name="ISYM">     1</i>
  <i name="ENCUT">    300.00000000</i>
  <i name="POTIM">      0.15000000</i>
  <i type="string" name="LREAL"> Auto                  ! unpublished met</i>
  <i type="int" name="ISMEAR">     1</i>
  <i name="SIGMA">      0.15000000</i>
  <i type="logical" name="LWAVE"> F  </i>
  <i type="logical" name="LCHARG"> F  </i>
  <i type="logical" name="LVTOT"> F  </i>
  <v type="int" name="KPOINT_BSE">    -1     0     0     0</v>
  <i type="int" name="NELM">    70</i>
 </incar>
 <kpoints>
  <generation param="Gamma">
   <v type="int" name="divisions">       3        3        3 </v>
   <v name="usershift">      0.00000000       0.00000000       0.00000000 </v>
   <v name="genvec1">      0.33333333       0.00000000      -0.00000000 </v>
   <v name="genvec2">     -0.00000000       0.33333333       0.00000000 </v>
   <v name="genvec3">      0.00000000       0.00000000       0.33333333 </v>
   <v name="shift">      0.00000000       0.00000000       0.00000000 </v>
  </generation>
  <varray name="kpointlist" >
   <v>       0.00000000       0.00000000       0.00000000 </v>
   <v>       0.33333333      -0.00000000      -0.00000000 </v>
   <v>      -0.00000000       0.33333333      -0.00000000 </v>
   <v>       0.33333333       0.33333333      -0.00000000 </v>
   <v>      -0.33333333       0.33333333      -0.00000000 </v>
   <v>       0.00000000      -0.00000000       0.33333333 </v>
   <v>       0.33333333      -0.00000000       0.33333333 </v>
   <v>      -0.33333333       0.00000000       0.33333333 </v>
   <v>       0.00000000       0.33333333       0.33333333 </v>
   <v>       0.33333333       0.33333333       0.33333333 </v>
   <v>      -0.33333333       0.33333333       0.33333333 </v>
   <v>       0.00000000      -0.33333333       0.33333333 </v>
   <v>       0.33333333      -0.33333333       0.33333333 </v>
   <v>      -0.33333333      -0.33333333       0.33333333 </v>
  </varray>
  <varray name="weights" >
   <v>       0.03703704 </v>
   <v>       0.07407407 </v>
   <v>       0.07407407 </v>
   <v>       0.07407407 </v>
   <v>       0.07407407 </v>
   <v>       0.07407407 </v>
   <v>       0.07407407 </v>
   <v>       0.07407407 </v>
   <v>       0.07407407 </v>
   <v>       0.07407407 </v>
   <v>       0.07407407 </v>
   <v>       0.07407407 </v>
   <v>       0.07407407 </v>
   <v>       0.07407407 </v>
  </varray>
 </kpoints>
 <parameters>
  <separator name="general" >
   <i type="string" name="SYSTEM">automatically generated by mexm</i>
   <i type="logical" name="LCOMPAT"> F  </i>
  </separator>
  <separator name="electronic" >
   <i type="string" name="PREC">accura</i>
   <i name="ENMAX">    300.00000000</i>
   <i name="ENAUG">    461.25700000</i>
   <i name="EDIFF">      0.00001000</i>
   <i type="int" name="IALGO">    68</i>
   <i type="int" name="IWAVPR">    11</i>
   <i type="int" name="NBANDS">   188</i>
   <i name="NELECT">    314.00000000</i>
   <i type="int" name="TURBO">     0</i>
   <i type="int" name="IRESTART">     0</i>
   <i type="int" name="NREBOOT">     0</i>
   <i type="int" name="NMIN">     0</i>
   <i name="EREF">      0.00000000</i>
   <separator name="electronic smearing" >
    <i type="int" name="ISMEAR">     1</i>
    <i name="SIGMA">      0.15000000</i>
    <i name="KSPACING">      0.50000000</i>
    <i type="logical" name="KGAMMA"> T  </i>
   </separator>
   <separator name="electronic projectors" >
    <i type="logical" name="LREAL"> T  </i>
    <v name="ROPT">     -0.00025000     -0.00025000     -0.00025000     -0.00025000</v>
    <i type="int" name="LMAXPAW">  -100</i>
    <i type="int" name="LMAXMIX">     2</i>
    <i type="logical" name="NLSPLINE"> F  </i>
   </separator>
   <separator name="electronic startup" >
    <i type="int" name="ISTART">     0</i>
    <i type="int" name="ICHARG">     2</i>
    <i type="int" name="INIWAV">     1</i>
   </separator>
   <separator name="electronic spin" >
    <i type="int" name="ISPIN">     1</i>
    <i type="logical" name="LNONCOLLINEAR"> F  </i>
    <v name="MAGMOM">      1.00000000      1.00000000      1.00000000      1.00000000      1.00000000      1.00000000      1.00000000      1.00000000      1.00000000      1.00000000      1.00000000      1.00000000      1.00000000      1.00000000      1.00000000      1.00000000      1.00000000      1.00000000      1.00000000      1.00000000
      1.00000000      1.00000000      1.00000000      1.00000000      1.00000000      1.00000000      1.00000000      1.00000000      1.00000000      1.00000000      1.00000000      1.00000000      1.00000000      1.00000000      1.00000000      1.00000000</v>
    <i name="NUPDOWN">     -1.00000000</i>
    <i type="logical" name="LSORBIT"> F  </i>
    <v name="SAXIS">      0.00000000      0.00000000      1.00000000</v>
    <i type="logical" name="LSPIRAL"> F  </i>
    <v name="QSPIRAL">      0.00000000      0.00000000      0.00000000</v>
    <i type="logical" name="LZEROZ"> F  </i>
   </separator>
   <separator name="electronic exchange-correlation" >
    <i type="logical" name="LASPH"> F  </i>
    <i type="logical" name="LMETAGGA"> F  </i>
   </separator>
   <separator name="electronic convergence" >
    <i type="int" name="NELM">    70</i>
    <i type="int" name="NELMDL">    -5</i>
    <i type="int" name="NELMIN">     2</i>
    <i name="ENINI">    300.00000000</i>
    <separator name="electronic convergence detail" >
     <i type="logical" name="LDIAG"> T  </i>
     <i type="logical" name="LSUBROT"> F  </i>
     <i name="WEIMIN">      0.00100000</i>
     <i name="EBREAK">      0.00000001</i>
     <i name="DEPER">      0.30000000</i>
     <i type="int" name="NRMM">     4</i>
     <i name="TIME">      0.40000000</i>
    </separator>
   </separator>
   <separator name="electronic mixer" >
    <i name="AMIX">      0.40000000</i>
    <i name="BMIX">      1.00000000</i>
    <i name="AMIN">      0.10000000</i>
    <i name="AMIX_MAG">      1.60000000</i>
    <i name="BMIX_MAG">      1.00000000</i>
    <separator name="electronic mixer details" >
     <i type="int" name="IMIX">     4</i>
     <i type="logical" name="MIXFIRST"> F  </i>
     <i type="int" name="MAXMIX">   -45</i>
     <i name="WC">    100.00000000</i>
     <i type="int" name="INIMIX">     1</i>
     <i type="int" name="MIXPRE">     1</i>
     <i type="int" name="MREMOVE">     5</i>
    </separator>
   </separator>
   <separator name="electronic dipolcorrection" >
    <i type="logical" name="LDIPOL"> F  </i>
    <i type="logical" name="LMONO"> F  </i>
    <i type="int" name="IDIPOL">     0</i>
    <i name="EPSILON">      1.00000000</i>
    <v name="DIPOL">   -100.00000000   -100.00000000   -100.00000000</v>
    <i name="EFIELD">      0.00000000</i>
   </separator>
  </separator>
  <separator name="grids" >
   <i type="int" name="NGX">    40</i>
   <i type="int" name="NGY">    60</i>
   <i type="int" name="NGZ">    60</i>
   <i type="int" name="NGXF">    80</i>
   <i type="int" name="NGYF">   120</i>
   <i type="int" name="NGZF">   120</i>
   <i type="logical" name="ADDGRID"> F  </i>
  </separator>
  <separator name="ionic" >
   <i type="int" name="NSW">   300</i>
   <i type="int" name="IBRION">     2</i>
   <i type="int" name="ISIF">     3</i>
   <i name="PSTRESS">      0.00000000</i>
   <i name="EDIFFG">     -0.01000000</i>
   <i type="int" name="NFREE">     1</i>
   <i name="POTIM">      0.15000000</i>
   <i name="SMASS">     -3.00000000</i>
   <i name="SCALEE">      1.00000000</i>
  </separator>
  <separator name="ionic md" >
   <i name="TEBEG">      0.00010000</i>
   <i name="TEEND">      0.00010000</i>
   <i type="int" name="NBLOCK">     1</i>
   <i type="int" name="KBLOCK">   300</i>
   <i type="int" name="NPACO">   256</i>
   <i name="APACO">     16.00000000</i>
  </separator>
  <separator name="symmetry" >
   <i type="int" name="ISYM">     1</i>
   <i name="SYMPREC">      0.00001000</i>
  </separator>
  <separator name="dos" >
   <i type="logical" name="LORBIT"> F  </i>
   <v name="RWIGS">     -1.00000000     -1.00000000     -1.00000000     -1.00000000</v>
   <i type="int" name="NEDOS">   301</i>
   <i name="EMIN">     10.00000000</i>
   <i name="EMAX">    -10.00000000</i>
   <i name="EFERMI">      0.00000000</i>
  </separator>
  <separator name="writing" >
   <i type="int" name="NWRITE">     2</i>
   <i type="logical" name="LWAVE"> F  </i>
   <i type="logical" name="LCHARG"> F  </i>
   <i type="logical" name="LPARD"> F  </i>
   <i type="logical" name="LVTOT"> F  </i>
   <i type="logical" name="LVHAR"> F  </i>
   <i type="logical" name="LELF"> F  </i>
   <i type="logical" name="LOPTICS"> F  </i>
   <v name="STM">      0.00000000      0.00000000      0.00000000      0.00000000      0.00000000      0.00000000      0.00000000</v>
  </separator>
  <separator name="performance" >
   <i type="int" name="NPAR">     4</i>
   <i type="int" name="NSIM">     4</i>
   <i type="int" name="NBLK">    -1</i>
   <i type="logical" name="LPLANE"> T  </i>
   <i type="logical" name="LSCALAPACK"> T  </i>
   <i type="logical" name="LSCAAWARE"> F  </i>
   <i type="logical" name="LSCALU"> F  </i>
   <i type="logical" name="LASYNC"> F  </i>
   <i type="logical" name="LORBITALREAL"> F  </i>
  </separator>
  <separator name="miscellaneous" >
   <i type="int" name="IDIOT">     3</i>
   <i type="logical" name="LMUSIC"> F  </i>
   <v name="POMASS">    178.49000000     92.91000000     91.22400000    180.94800000</v>
   <v name="DARWINR">      0.00000000      0.00000000      0.00000000      0.00000000</v>
   <v name="DARWINV">      1.00000000      1.00000000      1.00000000      1.00000000</v>
   <i type="logical" name="LCORR"> T  </i>
  </separator>
  <i type="logical" name="GGA_COMPAT"> T  </i>
  <i type="logical" name="LBERRY"> F  </i>
  <i type="int" name="ICORELEVEL">     0</i>
  <i type="logical" name="LDAU"> F  </i>
  <i type="int" name="I_CONSTRAINED_M">     0</i>
  <separator name="electronic exchange-correlation" >
   <i type="string" name="GGA">--</i>
   <i type="int" name="VOSKOWN">     0</i>
   <i type="logical" name="LHFCALC"> F  </i>
   <i type="string" name="PRECFOCK"></i>
   <i type="logical" name="LSYMGRAD"> F  </i>
   <i type="logical" name="LHFONE"> F  </i>
   <i type="logical" name="LRHFCALC"> F  </i>
   <i type="logical" name="LTHOMAS"> F  </i>
   <i type="logical" name="LMODELHF"> F  </i>
   <i name="ENCUT4O">     -1.00000000</i>
   <i type="int" name="EXXOEP">     0</i>
   <i type="int" name="FOURORBIT">     0</i>
   <i name="AEXX">      0.00000000</i>
   <i name="HFALPHA">      0.00000000</i>
   <i name="MCALPHA">      0.00000000</i>
   <i name="ALDAX">      1.00000000</i>
   <i name="AGGAX">      1.00000000</i>
   <i name="ALDAC">      1.00000000</i>
   <i name="AGGAC">      1.00000000</i>
   <i type="int" name="NKREDX">     1</i>
   <i type="int" name="NKREDY">     1</i>
   <i type="int" name="NKREDZ">     1</i>
   <i type="logical" name="SHIFTRED"> F  </i>
   <i type="logical" name="ODDONLY"> F  </i>
   <i type="logical" name="EVENONLY"> F  </i>
   <i type="int" name="LMAXFOCK">     0</i>
   <i type="int" name="NMAXFOCKAE">     0</i>
   <i type="logical" name="LFOCKAEDFT"> F  </i>
   <i name="HFSCREEN">      0.00000000</i>
   <i name="HFSCREENC">      0.00000000</i>
   <i type="int" name="NBANDSGWLOW">     0</i>
  </separator>
  <separator name="vdW DFT" >
   <i type="logical" name="LUSE_VDW"> F  </i>
   <i name="Zab_VDW">     -0.84910000</i>
   <i name="PARAM1">      0.12340000</i>
   <i name="PARAM2">      1.00000000</i>
   <i name="PARAM3">      0.00000000</i>
  </separator>
  <separator name="model GW" >
   <i type="int" name="MODEL_GW">     0</i>
   <i name="MODEL_EPS0">     12.09332613</i>
   <i name="MODEL_ALPHA">      1.00000000</i>
  </separator>
  <separator name="linear response parameters" >
   <i type="logical" name="LEPSILON"> F  </i>
   <i type="logical" name="LRPA"> F  </i>
   <i type="logical" name="LNABLA"> F  </i>
   <i type="logical" name="LVEL"> F  </i>
   <i type="int" name="KINTER">     0</i>
   <i name="CSHIFT">      0.10000000</i>
   <i name="OMEGAMAX">     -1.00000000</i>
   <i name="DEG_THRESHOLD">      0.00200000</i>
  </separator>
  <separator name="orbital magnetization" >
   <i type="logical" name="NUCIND"> F  </i>
   <v name="MAGPOS">      0.00000000      0.00000000      0.00000000</v>
   <i type="logical" name="LNICSALL"> T  </i>
   <i type="logical" name="ORBITALMAG"> F  </i>
   <i type="logical" name="LMAGBLOCH"> F  </i>
   <i type="logical" name="LCHIMAG"> F  </i>
   <i type="logical" name="LGAUGE"> T  </i>
   <i type="int" name="MAGATOM">     0</i>
   <v name="MAGDIPOL">      0.00000000      0.00000000      0.00000000</v>
   <v name="AVECCONST">      0.00000000      0.00000000      0.00000000</v>
  </separator>
  <separator name="response functions" >
   <i type="logical" name="LADDER"> F  </i>
   <i type="logical" name="LFXC"> F  </i>
   <i type="logical" name="LHARTREE"> T  </i>
   <i type="int" name="IBSE">     0</i>
   <v type="int" name="KPOINT">    -1     0     0     0</v>
   <i type="logical" name="LTCTE"> F  </i>
   <i type="logical" name="LTETE"> F  </i>
   <i type="logical" name="LTRIPLET"> F  </i>
   <i type="logical" name="LFXCEPS"> F  </i>
   <i type="logical" name="LFXHEG"> F  </i>
   <i type="int" name="NATURALO">     0</i>
   <i type="logical" name="L2ORDER"> F  </i>
   <i type="logical" name="LUSEW"> F  </i>
   <i name="ENCUTGW">     -2.00000000</i>
   <i name="ENCUTGWSOFT">     -2.00000000</i>
   <i name="ENCUTLF">     -1.00000000</i>
   <i type="int" name="LMAXMP2">    -1</i>
   <i name="SCISSOR">      0.00000000</i>
   <i type="int" name="NOMEGA">     0</i>
   <i type="int" name="NOMEGAR">     0</i>
   <i type="int" name="NBANDSGW">    -1</i>
   <i type="int" name="NBANDSO">    -1</i>
   <i type="int" name="NBANDSV">    -1</i>
   <i type="int" name="NELM">    70</i>
   <i type="int" name="NELMHF">     1</i>
   <i type="int" name="DIM">     3</i>
   <i type="int" name="ANTIRES">     0</i>
   <i name="OMEGAMAX">    -30.00000000</i>
   <i name="OMEGAMIN">    -30.00000000</i>
   <i name="OMEGATL">   -200.00000000</i>
   <i type="int" name="OMEGAGRID">     0</i>
   <i name="CSHIFT">     -0.10000000</i>
   <i type="logical" name="SELFENERGY"> F  </i>
   <i type="logical" name="LSPECTRAL"> F  </i>
   <i type="logical" name="LSPECTRALGW"> F  </i>
   <i type="logical" name="LSINGLES"> F  </i>
   <i type="logical" name="LFERMIGW"> F  </i>
   <i type="logical" name="ODDONLYGW"> F  </i>
   <i type="logical" name="EVENONLYGW"> F  </i>
   <i type="int" name="NKREDLFX">     1</i>
   <i type="int" name="NKREDLFY">     1</i>
   <i type="int" name="NKREDLFZ">     1</i>
   <i type="int" name="MAXMEM">  1800</i>
   <i type="int" name="TELESCOPE">     0</i>
   <i type="int" name="TAUPAR">     1</i>
   <i type="int" name="OMEGAPAR">    -1</i>
   <i name="LAMBDA">      1.00000000</i>
  </separator>
  <separator name="External order field" >
   <i name="OFIELD_KAPPA">      0.00000000</i>
   <v name="OFIELD_K">      0.00000000      0.00000000      0.00000000</v>
   <i name="OFIELD_Q6_NEAR">      0.00000000</i>
   <i name="OFIELD_Q6_FAR">      0.00000000</i>
   <i name="OFIELD_A">      0.00000000</i>
  </separator>
 </parameters>
 <atominfo>
  <atoms>      36 </atoms>
  <types>       4 </types>
  <array name="atoms" >
   <dimension dim="1">ion</dimension>
   <field type="string">element</field>
   <field type="int">atomtype</field>
   <set>
    <rc><c>Hf</c><c>   1</c></rc>
    <rc><c>Hf</c><c>   1</c></rc>
    <rc><c>Hf</c><c>   1</c></rc>
    <rc><c>Hf</c><c>   1</c></rc>
    <rc><c>Hf</c><c>   1</c></rc>
    <rc><c>Hf</c><c>   1</c></rc>
    <rc><c>Hf</c><c>   1</c></rc>
    <rc><c>Hf</c><c>   1</c></rc>
    <rc><c>Hf</c><c>   1</c></rc>
    <rc><c>Hf</c><c>   1</c></rc>
    <rc><c>Nb</c><c>   2</c></rc>
    <rc><c>Nb</c><c>   2</c></rc>
    <rc><c>Nb</c><c>   2</c></rc>
    <rc><c>Nb</c><c>   2</c></rc>
    <rc><c>Nb</c><c>   2</c></rc>
    <rc><c>Nb</c><c>   2</c></rc>
    <rc><c>Nb</c><c>   2</c></rc>
    <rc><c>Nb</c><c>   2</c></rc>
    <rc><c>Nb</c><c>   2</c></rc>
    <rc><c>Nb</c><c>   2</c></rc>
    <rc><c>Nb</c><c>   2</c></rc>
    <rc><c>Zr</c><c>   3</c></rc>
    <rc><c>Zr</c><c>   3</c></rc>
    <rc><c>Zr</c><c>   3</c></rc>
    <rc><c>Zr</c><c>   3</c></rc>
    <rc><c>Zr</c><c>   3</c></rc>
    <rc><c>Zr</c><c>   3</c></rc>
    <rc><c>Zr</c><c>   3</c></rc>
    <rc><c>Zr</c><c>   3</c></rc>
    <rc><c>Ta</c><c>   4</c></rc>
    <rc><c>Ta</c><c>   4</c></rc>
    <rc><c>Ta</c><c>   4</c></rc>
    <rc><c>Ta</c><c>   4</c></rc>
    <rc><c>Ta</c><c>   4</c></rc>
    <rc><c>Ta</c><c>   4</c></rc>
    <rc><c>Ta</c><c>   4</c></rc>
   </set>
  </array>
  <array name="atomtypes" >
   <dimension dim="1">type</dimension>
   <field type="int">atomspertype</field>
   <field type="string">element</field>
   <field>mass</field>
   <field>valence</field>
   <field type="string">pseudopotential</field>
   <set>
    <rc><c>  10</c><c>Hf</c><c>    178.49000000</c><c>      4.00000000</c><c>  PAW_PBE Hf 20Jan2003                  </c></rc>
    <rc><c>  11</c><c>Nb</c><c>     92.91000000</c><c>     13.00000000</c><c>  PAW_PBE Nb_sv 25May2007               </c></rc>
    <rc><c>   8</c><c>Zr</c><c>     91.22400000</c><c>     12.00000000</c><c>  PAW_PBE Zr_sv 04Jan2005               </c></rc>
    <rc><c>   7</c><c>Ta</c><c>    180.94800000</c><c>      5.00000000</c><c>  PAW_PBE Ta 17Jan2003                  </c></rc>
   </set>
  </array>
 </atominfo>
 <structure name="initialpos" >
  <crystal>
   <varray name="basis" >
    <v>       6.95020733       0.00278348       0.04351802 </v>
    <v>       0.00423508      10.25239373      -0.00352674 </v>
    <v>       0.06366081      -0.00460920      10.18336051 </v>
   </varray>
   <i name="volume">    725.59956777 </i>
   <varray name="rec_basis" >
    <v>       0.14388626      -0.00005975      -0.00089953 </v>
    <v>      -0.00003934       0.09753823       0.00004439 </v>
    <v>      -0.00061490       0.00003404       0.09820327 </v>
   </varray>
  </crystal>
  <varray name="positions" >
   <v>       0.26723100       0.50483000       0.16692700 </v>
   <v>       0.49263000       0.66578400       0.64600800 </v>
   <v>       0.26162700       0.50849100       0.84469700 </v>
   <v>       0.22832500       0.16850800       0.48440900 </v>
   <v>       0.00603400       0.33091300       0.00463000 </v>
   <v>       0.96738200       0.66425400       0.01955400 </v>
   <v>       0.26441200       0.82618500       0.16610900 </v>
   <v>       0.47070300       0.99918100       0.65912500 </v>
   <v>       0.76920100       0.83933500       0.50106400 </v>
   <v>       0.26246200       0.82027000       0.84760500 </v>
   <v>       0.25421800       0.16692000       0.17752200 </v>
   <v>       0.01867400       0.67135500       0.65746600 </v>
   <v>       0.54066200       0.66776000       0.00926900 </v>
   <v>       0.99906000       0.99077400       0.31902500 </v>
   <v>       0.73300500       0.83734700       0.18130900 </v>
   <v>       0.50459800       0.34185900       0.34131200 </v>
   <v>       0.98502100       0.34205100       0.31550800 </v>
   <v>       0.01642800       0.32929900       0.68158200 </v>
   <v>       0.23560300       0.83394000       0.48623400 </v>
   <v>       0.48642700       0.31753700       0.00102100 </v>
   <v>       0.24847600       0.16927000       0.83377800 </v>
   <v>       0.00995700       0.00538800       0.00559700 </v>
   <v>       0.76605900       0.16460200       0.49862100 </v>
   <v>       0.75016400       0.16340100       0.82822700 </v>
   <v>       0.73155400       0.16790200       0.17347600 </v>
   <v>       0.49110000       0.33361000       0.65665300 </v>
   <v>       0.75662500       0.83859400       0.82316900 </v>
   <v>       0.22594100       0.49509800       0.48967600 </v>
   <v>       0.75446100       0.49789900       0.82413800 </v>
   <v>       0.72769700       0.49521300       0.17862500 </v>
   <v>       0.03699300       0.99782800       0.67293100 </v>
   <v>       0.51233900       0.66774300       0.34555300 </v>
   <v>       0.76918400       0.50361200       0.49404300 </v>
   <v>       0.98195500       0.66727100       0.32546500 </v>
   <v>       0.47985600       0.01453200       0.00084500 </v>
   <v>       0.49393000       0.99145200       0.33882100 </v>
  </varray>
 </structure>
 <calculation>
  <scstep>
   <time name="dav">    1.10    1.16</time>
   <time name="total">    1.21    1.71</time>
   <energy>
    <i name="alphaZ">   1622.25541310 </i>
    <i name="ewald"> -22091.17858861 </i>
    <i name="hartreedc">  -7671.21584374 </i>
    <i name="XCdc">     26.95425265 </i>
    <i name="pawpsdc">  24164.74020641 </i>
    <i name="pawaedc"> -22699.02332369 </i>
    <i name="eentropy">     -0.01358902 </i>
    <i name="bandstr">   -258.62600970 </i>
    <i name="atom">  29053.18212688 </i>
    <i name="e_fr_energy">   2147.07464428 </i>
    <i name="e_wo_entrp">   2147.08823330 </i>
    <i name="e_0_energy">   2147.07917395 </i>
   </energy>
  </scstep>
  <scstep>
   <time name="dav">    1.23    1.26</time>
   <time name="total">    1.23    1.43</time>
   <energy>
    <i name="e_fr_energy">    -65.64016768 </i>
    <i name="e_wo_entrp">    -65.62215899 </i>
    <i name="e_0_energy">    -65.63416478 </i>
   </energy>
  </scstep>
  <scstep>
   <time name="dav">    1.54    1.70</time>
   <time name="total">    1.54    1.74</time>
   <energy>
    <i name="e_fr_energy">   -338.51525637 </i>
    <i name="e_wo_entrp">   -338.50709604 </i>
    <i name="e_0_energy">   -338.51253626 </i>
   </energy>
  </scstep>
  <scstep>
   <time name="dav">    1.56    1.59</time>
   <time name="total">    1.57    1.63</time>
   <energy>
    <i name="e_fr_energy">   -370.82987761 </i>
    <i name="e_wo_entrp">   -370.82839448 </i>
    <i name="e_0_energy">   -370.82938323 </i>
   </energy>
  </scstep>
  <scstep>
   <time name="dav">    1.52    1.57</time>
   <time name="total">    1.57    1.65</time>
   <energy>
    <i name="e_fr_energy">   -374.18092093 </i>
    <i name="e_wo_entrp">   -374.18032801 </i>
    <i name="e_0_energy">   -374.18072329 </i>
   </energy>
  </scstep>
  <scstep>
   <time name="diag">    0.18    0.18</time>
   <time name="diis">    1.25    1.29</time>
   <time name="orth">    0.01    0.01</time>
   <time name="total">    1.56    1.64</time>
   <energy>
    <i name="e_fr_energy">   -363.56593120 </i>
    <i name="e_wo_entrp">   -363.56332146 </i>
    <i name="e_0_energy">   -363.56506128 </i>
   </energy>
  </scstep>
  <scstep>
   <time name="diag">    0.14    0.14</time>
   <time name="diis">    0.68    0.85</time>
   <time name="orth">    0.01    0.01</time>
   <time name="total">    0.91    1.17</time>
   <energy>
    <i name="e_fr_energy">   -361.88555429 </i>
    <i name="e_wo_entrp">   -361.89350542 </i>
    <i name="e_0_energy">   -361.88820467 </i>
   </energy>
  </scstep>
  <scstep>
   <time name="diag">    0.11    0.12</time>
   <time name="diis">    0.82    0.86</time>
   <time name="orth">    0.01    0.01</time>
   <time name="total">    1.02    1.10</time>
   <energy>
    <i name="e_fr_energy">   -359.90206616 </i>
    <i name="e_wo_entrp">   -359.90804576 </i>
    <i name="e_0_energy">   -359.90405936 </i>
   </energy>
  </scstep>
  <scstep>
   <time name="diag">    0.09    0.09</time>
   <time name="diis">    0.87    0.91</time>
   <time name="orth">    0.01    0.01</time>
   <time name="total">    1.03    1.12</time>
   <energy>
    <i name="e_fr_energy">   -359.73692734 </i>
    <i name="e_wo_entrp">   -359.74492455 </i>
    <i name="e_0_energy">   -359.73959308 </i>
   </energy>
  </scstep>
  <scstep>
   <time name="diag">    0.10    0.10</time>
   <time name="diis">    0.86    0.90</time>
   <time name="orth">    0.01    0.01</time>
   <time name="total">    1.04    1.13</time>
   <energy>
    <i name="e_fr_energy">   -359.67438836 </i>
    <i name="e_wo_entrp">   -359.68404220 </i>
    <i name="e_0_energy">   -359.67760630 </i>
   </energy>
  </scstep>
  <scstep>
   <time name="diag">    0.10    0.10</time>
   <time name="diis">    0.86    0.89</time>
   <time name="orth">    0.01    0.01</time>
   <time name="total">    1.05    1.13</time>
   <energy>
    <i name="e_fr_energy">   -359.65038690 </i>
    <i name="e_wo_entrp">   -359.65897290 </i>
    <i name="e_0_energy">   -359.65324890 </i>
   </energy>
  </scstep>
  <scstep>
   <time name="diag">    0.11    0.11</time>
   <time name="diis">    0.98    1.02</time>
   <time name="orth">    0.01    0.01</time>
   <time name="total">    1.20    1.27</time>
   <energy>
    <i name="e_fr_energy">   -359.64902334 </i>
    <i name="e_wo_entrp">   -359.65810332 </i>
    <i name="e_0_energy">   -359.65205000 </i>
   </energy>
  </scstep>
  <scstep>
   <time name="diag">    0.12    0.13</time>
   <time name="diis">    0.97    1.02</time>
   <time name="orth">    0.01    0.01</time>
   <time name="total">    1.18    1.27</time>
   <energy>
    <i name="e_fr_energy">   -359.64905271 </i>
    <i name="e_wo_entrp">   -359.65806431 </i>
    <i name="e_0_energy">   -359.65205657 </i>
   </energy>
  </scstep>
  <scstep>
   <time name="diag">    0.11    0.11</time>
   <time name="diis">    0.91    0.98</time>
   <time name="orth">    0.01    0.02</time>
   <time name="total">    1.11    1.21</time>
   <energy>
    <i name="e_fr_energy">   -359.64932348 </i>
    <i name="e_wo_entrp">   -359.65833469 </i>
    <i name="e_0_energy">   -359.65232722 </i>
   </energy>
  </scstep>
  <scstep>
   <time name="diag">    0.09    0.10</time>
   <time name="diis">    0.90    0.90</time>
   <time name="orth">    0.01    0.01</time>
   <time name="total">    1.08    1.12</time>
   <energy>
    <i name="e_fr_energy">   -359.64942375 </i>
    <i name="e_wo_entrp">   -359.65852489 </i>
    <i name="e_0_energy">   -359.65245746 </i>
   </energy>
  </scstep>
  <scstep>
   <time name="diag">    0.09    0.09</time>
   <time name="diis">    0.74    0.74</time>
   <time name="orth">    0.01    0.01</time>
   <time name="total">    1.04    1.10</time>
   <energy>
    <i name="e_fr_energy">   -359.64950551 </i>
    <i name="e_wo_entrp">   -359.65865868 </i>
    <i name="e_0_energy">   -359.65255657 </i>
   </energy>
  </scstep>
  <scstep>
   <time name="diag">    0.10    0.10</time>
   <time name="diis">    0.67    0.68</time>
   <time name="orth">    0.01    0.01</time>
   <time name="total">    1.04    1.09</time>
   <energy>
    <i name="e_fr_energy">   -359.64953079 </i>
    <i name="e_wo_entrp">   -359.65863435 </i>
    <i name="e_0_energy">   -359.65256531 </i>
   </energy>
  </scstep>
  <scstep>
   <time name="diag">    0.11    0.11</time>
   <time name="diis">    0.63    0.66</time>
   <time name="orth">    0.01    0.01</time>
   <time name="total">    0.84    0.90</time>
   <energy>
    <i name="e_fr_energy">   -359.64954978 </i>
    <i name="e_wo_entrp">   -359.65867239 </i>
    <i name="e_0_energy">   -359.65259065 </i>
   </energy>
  </scstep>
  <scstep>
   <time name="diag">    0.10    0.10</time>
   <time name="diis">    0.52    0.54</time>
   <time name="orth">    0.01    0.01</time>
   <time name="total">    0.70    0.76</time>
   <energy>
    <i name="e_fr_energy">   -359.64955833 </i>
    <i name="e_wo_entrp">   -359.65868202 </i>
    <i name="e_0_energy">   -359.65259956 </i>
   </energy>
  </scstep>
  <scstep>
   <time name="diag">    0.09    0.09</time>
   <time name="diis">    0.45    0.48</time>
   <time name="orth">    0.01    0.01</time>
   <time name="total">    0.59    0.65</time>
   <energy>
    <i name="alphaZ">   1622.25541310 </i>
    <i name="ewald"> -22091.17858861 </i>
    <i name="hartreedc">  -7408.91827742 </i>
    <i name="XCdc">     23.51914194 </i>
    <i name="pawpsdc">  36349.52120817 </i>
    <i name="pawaedc"> -34856.36628491 </i>
    <i name="eentropy">      0.00912648 </i>
    <i name="bandstr">  -3051.67342675 </i>
    <i name="atom">  29053.18212688 </i>
    <i name="e_fr_energy">   -359.64956112 </i>
    <i name="e_wo_entrp">   -359.65868760 </i>
    <i name="e_0_energy">   -359.65260328 </i>
   </energy>
  </scstep>
  <structure>
   <crystal>
    <varray name="basis" >
     <v>       6.95020733       0.00278348       0.04351802 </v>
     <v>       0.00423508      10.25239373      -0.00352674 </v>
     <v>       0.06366081      -0.00460920      10.18336051 </v>
    </varray>
    <i name="volume">    725.59956777 </i>
    <varray name="rec_basis" >
     <v>       0.14388626      -0.00005975      -0.00089953 </v>
     <v>      -0.00003934       0.09753823       0.00004439 </v>
     <v>      -0.00061490       0.00003404       0.09820327 </v>
    </varray>
   </crystal>
   <varray name="positions" >
    <v>       0.26723100       0.50483000       0.16692700 </v>
    <v>       0.49263000       0.66578400       0.64600800 </v>
    <v>       0.26162700       0.50849100       0.84469700 </v>
    <v>       0.22832500       0.16850800       0.48440900 </v>
    <v>       0.00603400       0.33091300       0.00463000 </v>
    <v>       0.96738200       0.66425400       0.01955400 </v>
    <v>       0.26441200       0.82618500       0.16610900 </v>
    <v>       0.47070300       0.99918100       0.65912500 </v>
    <v>       0.76920100       0.83933500       0.50106400 </v>
    <v>       0.26246200       0.82027000       0.84760500 </v>
    <v>       0.25421800       0.16692000       0.17752200 </v>
    <v>       0.01867400       0.67135500       0.65746600 </v>
    <v>       0.54066200       0.66776000       0.00926900 </v>
    <v>       0.99906000       0.99077400       0.31902500 </v>
    <v>       0.73300500       0.83734700       0.18130900 </v>
    <v>       0.50459800       0.34185900       0.34131200 </v>
    <v>       0.98502100       0.34205100       0.31550800 </v>
    <v>       0.01642800       0.32929900       0.68158200 </v>
    <v>       0.23560300       0.83394000       0.48623400 </v>
    <v>       0.48642700       0.31753700       0.00102100 </v>
    <v>       0.24847600       0.16927000       0.83377800 </v>
    <v>       0.00995700       0.00538800       0.00559700 </v>
    <v>       0.76605900       0.16460200       0.49862100 </v>
    <v>       0.75016400       0.16340100       0.82822700 </v>
    <v>       0.73155400       0.16790200       0.17347600 </v>
    <v>       0.49110000       0.33361000       0.65665300 </v>
    <v>       0.75662500       0.83859400       0.82316900 </v>
    <v>       0.22594100       0.49509800       0.48967600 </v>
    <v>       0.75446100       0.49789900       0.82413800 </v>
    <v>       0.72769700       0.49521300       0.17862500 </v>
    <v>       0.03699300       0.99782800       0.67293100 </v>
    <v>       0.51233900       0.66774300       0.34555300 </v>
    <v>       0.76918400       0.50361200       0.49404300 </v>
    <v>       0.98195500       0.66727100       0.32546500 </v>
    <v>       0.47985600       0.01453200       0.00084500 </v>
    <v>       0.49393000       0.99145200       0.33882100 </v>
   </varray>
  </structure>
  <varray name="forces" >
   <v>       0.00621047       0.00187346       0.00196003 </v>
   <v>      -0.01743591      -0.02492329       0.01745417 </v>
   <v>       0.01204635       0.00440980      -0.00488405 </v>
   <v>      -0.00778210       0.00755325       0.00745943 </v>
   <v>       0.00317523       0.00468773      -0.00152590 </v>
   <v>      -0.02057485       0.00047326       0.00195533 </v>
   <v>      -0.00965909      -0.02185914      -0.01941259 </v>
   <v>       0.01799677      -0.00838000      -0.12260779 </v>
   <v>       0.00979208       0.01113536       0.00512006 </v>
   <v>      -0.00239615       0.01067919       0.00535270 </v>
   <v>       0.01007164      -0.01776919       0.02267922 </v>
   <v>       0.03279417       0.00218442       0.00508059 </v>
   <v>      -0.00209616      -0.01719223      -0.01202373 </v>
   <v>       0.00279962       0.01244611       0.00077565 </v>
   <v>       0.06069579      -0.04899620      -0.04474094 </v>
   <v>       0.00351396      -0.05069979      -0.00282811 </v>
   <v>      -0.00213493       0.01015433      -0.00553580 </v>
   <v>       0.00061633       0.00317399       0.01896958 </v>
   <v>      -0.02777574      -0.00253929       0.02941082 </v>
   <v>      -0.00486363       0.01355113      -0.00925378 </v>
   <v>      -0.00196262      -0.01239095      -0.00399228 </v>
   <v>       0.00567746       0.01092944      -0.02626570 </v>
   <v>      -0.00638303      -0.01015148      -0.00687110 </v>
   <v>      -0.00251849      -0.00261299       0.00294596 </v>
   <v>       0.04354552       0.04784001      -0.02998153 </v>
   <v>      -0.00217665       0.00680136       0.01347151 </v>
   <v>      -0.00178189       0.00850018      -0.00624490 </v>
   <v>       0.00246786      -0.01487045      -0.01670022 </v>
   <v>      -0.00389276       0.00201150       0.00562315 </v>
   <v>      -0.00015319      -0.00533290       0.00789782 </v>
   <v>      -0.01848944       0.00287754       0.02694583 </v>
   <v>      -0.01043568       0.13622504      -0.01611488 </v>
   <v>      -0.01097437       0.00232190      -0.01801283 </v>
   <v>       0.00210187      -0.02174678       0.00278215 </v>
   <v>       0.00389423      -0.00446046       0.10796571 </v>
   <v>      -0.06391266      -0.03590386       0.06314641 </v>
  </varray>
  <varray name="stress" >
   <v>       0.49156429      -0.04132024      -0.41829748 </v>
   <v>      -0.04132021      -0.19535398       0.00614425 </v>
   <v>      -0.41829750       0.00614433      -0.27281157 </v>
  </varray>
  <energy>
   <i name="e_fr_energy">   -359.64956112 </i>
   <i name="e_wo_entrp">   -359.65260328 </i>
   <i name="e_0_energy">      0.00912648 </i>
  </energy>
  <time name="totalsc">   24.31   26.80</time>
 </calculation>
 <calculation>
  <scstep>
   <time name="dav">    1.97    2.01</time>
   <time name="total">    2.12    2.32</time>
   <energy>
    <i name="alphaZ">   1622.24852103 </i>
    <i name="ewald"> -22091.36104691 </i>
    <i name="hartreedc">  -7408.69900979 </i>
    <i name="XCdc">     23.51702407 </i>
    <i name="pawpsdc">  36349.58566581 </i>
    <i name="pawaedc"> -34856.43098310 </i>
    <i name="eentropy">      0.00913150 </i>
    <i name="bandstr">  -3051.70211188 </i>
    <i name="atom">  29053.18212688 </i>
    <i name="e_fr_energy">   -359.65068240 </i>
    <i name="e_wo_entrp">   -359.65981390 </i>
    <i name="e_0_energy">   -359.65372624 </i>
   </energy>
  </scstep>
  <scstep>
   <time name="diag">    0.11    0.11</time>
   <time name="diis">    0.83    0.87</time>
   <time name="orth">    0.01    0.01</time>
   <time name="total">    1.03    1.11</time>
   <energy>
    <i name="e_fr_energy">   -359.65079221 </i>
    <i name="e_wo_entrp">   -359.65996678 </i>
    <i name="e_0_energy">   -359.65385040 </i>
   </energy>
  </scstep>
  <scstep>
   <time name="diag">    0.13    0.13</time>
   <time name="diis">    0.72    0.76</time>
   <time name="orth">    0.01    0.01</time>
   <time name="total">    0.93    1.02</time>
   <energy>
    <i name="e_fr_energy">   -359.65079060 </i>
    <i name="e_wo_entrp">   -359.65995713 </i>
    <i name="e_0_energy">   -359.65384611 </i>
   </energy>
  </scstep>
  <scstep>
   <time name="diag">    0.09    0.09</time>
   <time name="diis">    0.46    0.61</time>
   <time name="orth">    0.01    0.01</time>
   <time name="total">    0.62    0.80</time>
   <energy>
    <i name="alphaZ">   1622.24852103 </i>
    <i name="ewald"> -22091.36104691 </i>
    <i name="hartreedc">  -7408.71437095 </i>
    <i name="XCdc">     23.51815225 </i>
    <i name="pawpsdc">  36349.11514758 </i>
    <i name="pawaedc"> -34855.95843577 </i>
    <i name="eentropy">      0.00915063 </i>
    <i name="bandstr">  -3051.69003332 </i>
    <i name="atom">  29053.18212688 </i>
    <i name="e_fr_energy">   -359.65078860 </i>
    <i name="e_wo_entrp">   -359.65993922 </i>
    <i name="e_0_energy">   -359.65383881 </i>
   </energy>
  </scstep>
  <structure>
   <crystal>
    <varray name="basis" >
     <v>       6.95082603       0.00273114       0.04298654 </v>
     <v>       0.00415859      10.25202904      -0.00351541 </v>
     <v>       0.06289099      -0.00459812      10.18284984 </v>
    </varray>
    <i name="volume">    725.60265046 </i>
    <varray name="rec_basis" >
     <v>       0.14387331      -0.00005866      -0.00088861 </v>
     <v>      -0.00003860       0.09754170       0.00004428 </v>
     <v>      -0.00060737       0.00003392       0.09820810 </v>
    </varray>
   </crystal>
   <varray name="positions" >
    <v>       0.26724391       0.50483264       0.16692973 </v>
    <v>       0.49259349       0.66574884       0.64603295 </v>
    <v>       0.26165215       0.50849722       0.84468995 </v>
    <v>       0.22830869       0.16851867       0.48441967 </v>
    <v>       0.00604063       0.33091961       0.00462781 </v>
    <v>       0.96733913       0.66425468       0.01955696 </v>
    <v>       0.26439216       0.82615414       0.16608148 </v>
    <v>       0.47074208       0.99916908       0.65895058 </v>
    <v>       0.76922132       0.83935072       0.50107120 </v>
    <v>       0.26245693       0.82028508       0.84761263 </v>
    <v>       0.25423869       0.16689492       0.17755414 </v>
    <v>       0.01874222       0.67135807       0.65747293 </v>
    <v>       0.54065781       0.66773572       0.00925192 </v>
    <v>       0.99906581       0.99079157       0.31902608 </v>
    <v>       0.73313202       0.83727777       0.18124485 </v>
    <v>       0.50460540       0.34178743       0.34130792 </v>
    <v>       0.98501662       0.34206533       0.31550016 </v>
    <v>       0.01642903       0.32930349       0.68160896 </v>
    <v>       0.23554478       0.83393645       0.48627605 </v>
    <v>       0.48641698       0.31755613       0.00100790 </v>
    <v>       0.24847198       0.16925251       0.83377234 </v>
    <v>       0.00996916       0.00540341       0.00555962 </v>
    <v>       0.76604581       0.16458767       0.49861129 </v>
    <v>       0.75015872       0.16339731       0.82823121 </v>
    <v>       0.73164503       0.16796949       0.17343302 </v>
    <v>       0.49109529       0.33361961       0.65667217 </v>
    <v>       0.75662136       0.83860600       0.82316014 </v>
    <v>       0.22594637       0.49507700       0.48965224 </v>
    <v>       0.75445282       0.49790185       0.82414603 </v>
    <v>       0.72769658       0.49520548       0.17863622 </v>
    <v>       0.03695414       0.99783209       0.67296946 </v>
    <v>       0.51231736       0.66793530       0.34553026 </v>
    <v>       0.76916138       0.50361527       0.49401750 </v>
    <v>       0.98195936       0.66724030       0.32546892 </v>
    <v>       0.47986271       0.01452577       0.00099841 </v>
    <v>       0.49379611       0.99140139       0.33891130 </v>
   </varray>
  </structure>
  <varray name="forces" >
   <v>       0.00755009       0.00224645       0.00286575 </v>
   <v>      -0.01626756      -0.02324783       0.01583923 </v>
   <v>       0.01016884       0.00314971      -0.00417525 </v>
   <v>      -0.01074989       0.00898785       0.00873297 </v>
   <v>       0.00451023       0.00473710      -0.00318342 </v>
   <v>      -0.01660381      -0.00182810      -0.00086284 </v>
   <v>      -0.01140296      -0.01994542      -0.01882594 </v>
   <v>       0.01546539      -0.00791990      -0.11333786 </v>
   <v>       0.01109306       0.01048070       0.00529857 </v>
   <v>      -0.00042546       0.01315490       0.00339561 </v>
   <v>       0.00817449      -0.01637325       0.02195429 </v>
   <v>       0.03057349       0.00211593       0.00429017 </v>
   <v>      -0.00063340      -0.01614633      -0.01158291 </v>
   <v>       0.00448125       0.01073905       0.00064922 </v>
   <v>       0.05089692      -0.03997157      -0.03719262 </v>
   <v>       0.00279734      -0.04582464      -0.00203906 </v>
   <v>      -0.00114021       0.00982725      -0.00519872 </v>
   <v>      -0.00092569       0.00242009       0.01696705 </v>
   <v>      -0.02759384      -0.00280527       0.02740874 </v>
   <v>      -0.00259609       0.01162423      -0.00965738 </v>
   <v>      -0.00048510      -0.01216878      -0.00480197 </v>
   <v>       0.00672837       0.00997466      -0.02592570 </v>
   <v>      -0.00570079      -0.00937562      -0.00580706 </v>
   <v>      -0.00352165      -0.00373355       0.00270716 </v>
   <v>       0.03815824       0.04085796      -0.02568602 </v>
   <v>      -0.00100244       0.00662909       0.01251803 </v>
   <v>      -0.00194150       0.00867529      -0.00506278 </v>
   <v>       0.00384814      -0.01401984      -0.01572147 </v>
   <v>      -0.00356688       0.00092985       0.00385874 </v>
   <v>      -0.00286763      -0.00388824       0.00744190 </v>
   <v>      -0.01704483       0.00381385       0.02706409 </v>
   <v>      -0.00891498       0.12172913      -0.01460514 </v>
   <v>      -0.01239550       0.00268878      -0.01574477 </v>
   <v>       0.00136282      -0.02019132       0.00240129 </v>
   <v>       0.00463804      -0.00348810       0.10119997 </v>
   <v>      -0.05466652      -0.03385410       0.05481816 </v>
  </varray>
  <varray name="stress" >
   <v>       0.51193459      -0.05685732      -0.41175302 </v>
   <v>      -0.05685732      -0.19708167       0.02223040 </v>
   <v>      -0.41175305       0.02223035      -0.26977159 </v>
  </varray>
  <energy>
   <i name="e_fr_energy">   -359.65078860 </i>
   <i name="e_wo_entrp">   -359.65383881 </i>
   <i name="e_0_energy">      0.00915063 </i>
  </energy>
  <time name="totalsc">    6.47    7.27</time>
 </calculation>
 <calculation>
  <scstep>
   <time name="dav">    1.09    1.15</time>
   <time name="total">    1.22    1.44</time>
   <energy>
    <i name="alphaZ">   1622.22807327 </i>
    <i name="ewald"> -22091.89359414 </i>
    <i name="hartreedc">  -7408.09163838 </i>
    <i name="XCdc">     23.51387015 </i>
    <i name="pawpsdc">  36349.05189995 </i>
    <i name="pawaedc"> -34855.89333340 </i>
    <i name="eentropy">      0.00915908 </i>
    <i name="bandstr">  -3051.75946726 </i>
    <i name="atom">  29053.18212688 </i>
    <i name="e_fr_energy">   -359.65290385 </i>
    <i name="e_wo_entrp">   -359.66206293 </i>
    <i name="e_0_energy">   -359.65595688 </i>
   </energy>
  </scstep>
  <scstep>
   <time name="diag">    0.09    0.09</time>
   <time name="diis">    0.77    0.80</time>
   <time name="orth">    0.01    0.01</time>
   <time name="total">    0.94    1.00</time>
   <energy>
    <i name="e_fr_energy">   -359.65380916 </i>
    <i name="e_wo_entrp">   -359.66308167 </i>
    <i name="e_0_energy">   -359.65690000 </i>
   </energy>
  </scstep>
  <scstep>
   <time name="diag">    0.09    0.09</time>
   <time name="diis">    0.86    0.92</time>
   <time name="orth">    0.01    0.01</time>
   <time name="total">    1.04    1.13</time>
   <energy>
    <i name="e_fr_energy">   -359.65382121 </i>
    <i name="e_wo_entrp">   -359.66308173 </i>
    <i name="e_0_energy">   -359.65690805 </i>
   </energy>
  </scstep>
  <scstep>
   <time name="diag">    0.10    0.11</time>
   <time name="diis">    0.91    0.96</time>
   <time name="orth">    0.01    0.01</time>
   <time name="total">    1.09    1.18</time>
   <energy>
    <i name="e_fr_energy">   -359.65378475 </i>
    <i name="e_wo_entrp">   -359.66298683 </i>
    <i name="e_0_energy">   -359.65685211 </i>
   </energy>
  </scstep>
  <scstep>
   <time name="diag">    0.09    0.10</time>
   <time name="diis">    0.69    0.72</time>
   <time name="orth">    0.01    0.01</time>
   <time name="total">    0.86    0.94</time>
   <energy>
    <i name="e_fr_energy">   -359.65378268 </i>
    <i name="e_wo_entrp">   -359.66303832 </i>
    <i name="e_0_energy">   -359.65686790 </i>
   </energy>
  </scstep>
  <scstep>
   <time name="diag">    0.12    0.12</time>
   <time name="diis">    0.57    0.59</time>
   <time name="orth">    0.01    0.01</time>
   <time name="total">    0.74    0.80</time>
   <energy>
    <i name="alphaZ">   1622.22807327 </i>
    <i name="ewald"> -22091.89359414 </i>
    <i name="hartreedc">  -7408.15889300 </i>
    <i name="XCdc">     23.51824633 </i>
    <i name="pawpsdc">  36347.30846303 </i>
    <i name="pawaedc"> -34854.15635821 </i>
    <i name="eentropy">      0.00923428 </i>
    <i name="bandstr">  -3051.69108144 </i>
    <i name="atom">  29053.18212688 </i>
    <i name="e_fr_energy">   -359.65378300 </i>
    <i name="e_wo_entrp">   -359.66301729 </i>
    <i name="e_0_energy">   -359.65686110 </i>
   </energy>
  </scstep>
  <structure>
   <crystal>
    <varray name="basis" >
     <v>       6.95268213       0.00257413       0.04139210 </v>
     <v>       0.00392915      10.25093496      -0.00348145 </v>
     <v>       0.06058152      -0.00456489      10.18131784 </v>
    </varray>
    <i name="volume">    725.61179649 </i>
    <varray name="rec_basis" >
     <v>       0.14383450      -0.00005542      -0.00085588 </v>
     <v>      -0.00003638       0.09755211       0.00004395 </v>
     <v>      -0.00058477       0.00003358       0.09822261 </v>
    </varray>
   </crystal>
   <varray name="positions" >
    <v>       0.26728262       0.50484057       0.16693793 </v>
    <v>       0.49248396       0.66564335       0.64610780 </v>
    <v>       0.26172757       0.50851586       0.84466882 </v>
    <v>       0.22825977       0.16855069       0.48445170 </v>
    <v>       0.00606051       0.33093946       0.00462122 </v>
    <v>       0.96721053       0.66425672       0.01956584 </v>
    <v>       0.26433262       0.82606154       0.16599893 </v>
    <v>       0.47085925       0.99913333       0.65842729 </v>
    <v>       0.76928226       0.83939787       0.50109279 </v>
    <v>       0.26244173       0.82033032       0.84763554 </v>
    <v>       0.25430078       0.16681970       0.17765055 </v>
    <v>       0.01894688       0.67136727       0.65749373 </v>
    <v>       0.54064522       0.66766289       0.00920068 </v>
    <v>       0.99908324       0.99084428       0.31902934 </v>
    <v>       0.73351302       0.83707008       0.18105240 </v>
    <v>       0.50462759       0.34157270       0.34129570 </v>
    <v>       0.98500347       0.34210833       0.31547662 </v>
    <v>       0.01643214       0.32931697       0.68168983 </v>
    <v>       0.23537014       0.83392580       0.48640218 </v>
    <v>       0.48638692       0.31761351       0.00096859 </v>
    <v>       0.24845990       0.16920003       0.83375535 </v>
    <v>       0.01000561       0.00544964       0.00544749 </v>
    <v>       0.76600622       0.16454467       0.49858214 </v>
    <v>       0.75014288       0.16338626       0.82824383 </v>
    <v>       0.73191808       0.16817197       0.17330410 </v>
    <v>       0.49108115       0.33364845       0.65672968 </v>
    <v>       0.75661045       0.83864199       0.82313358 </v>
    <v>       0.22596247       0.49501398       0.48958094 </v>
    <v>       0.75442828       0.49791038       0.82417011 </v>
    <v>       0.72769533       0.49518291       0.17866990 </v>
    <v>       0.03683760       0.99784436       0.67308485 </v>
    <v>       0.51225245       0.66851221       0.34546202 </v>
    <v>       0.76909351       0.50362509       0.49394098 </v>
    <v>       0.98197244       0.66714820       0.32548070 </v>
    <v>       0.47988288       0.01450708       0.00145867 </v>
    <v>       0.49339452       0.99124957       0.33918219 </v>
   </varray>
  </structure>
  <varray name="forces" >
   <v>       0.01038995       0.00395659       0.00601793 </v>
   <v>      -0.01118686      -0.01904334       0.01057224 </v>
   <v>       0.00436180       0.00037335       0.00134348 </v>
   <v>      -0.01945731       0.01362633       0.00996624 </v>
   <v>       0.00947645       0.00699093      -0.00705706 </v>
   <v>      -0.00510792      -0.01007250      -0.00749253 </v>
   <v>      -0.01576431      -0.01607993      -0.01627687 </v>
   <v>       0.00879215      -0.00686707      -0.08809277 </v>
   <v>       0.01297661       0.00706401       0.00375818 </v>
   <v>       0.00623376       0.01892128      -0.00030501 </v>
   <v>       0.00511736      -0.01423090       0.02116965 </v>
   <v>       0.02622049       0.00102604       0.00226604 </v>
   <v>      -0.00018600      -0.01387643      -0.01010461 </v>
   <v>       0.00738152       0.00762782       0.00005934 </v>
   <v>       0.02818647      -0.01652983      -0.01868064 </v>
   <v>       0.00173309      -0.03389898      -0.00050235 </v>
   <v>       0.00102955       0.01029882      -0.00447573 </v>
   <v>      -0.00358220       0.00216569       0.01462982 </v>
   <v>      -0.02974293      -0.00615308       0.02188945 </v>
   <v>       0.00005438       0.00615919      -0.01189999 </v>
   <v>       0.00677591      -0.01557189      -0.00589221 </v>
   <v>       0.01187775       0.00870279      -0.02467515 </v>
   <v>      -0.00459239      -0.00693374      -0.00587553 </v>
   <v>      -0.00943393      -0.00692504       0.00419598 </v>
   <v>       0.02430083       0.02616816      -0.01506740 </v>
   <v>       0.00119047       0.00687559       0.00932897 </v>
   <v>      -0.00536748       0.00780812      -0.00147214 </v>
   <v>       0.00769409      -0.01071539      -0.01686500 </v>
   <v>      -0.00112692      -0.00022619       0.00002439 </v>
   <v>      -0.00918725       0.00133380       0.00558781 </v>
   <v>      -0.01283646       0.00668716       0.02930542 </v>
   <v>      -0.00457543       0.08237492      -0.01136906 </v>
   <v>      -0.01760929       0.00563363      -0.01166389 </v>
   <v>      -0.00063841      -0.01657864       0.00154198 </v>
   <v>       0.00540867      -0.00062609       0.08490138 </v>
   <v>      -0.02880619      -0.02946519       0.03120959 </v>
  </varray>
  <varray name="stress" >
   <v>       0.15833037      -0.04641618      -0.02314320 </v>
   <v>      -0.04641614      -0.19189128       0.06144916 </v>
   <v>      -0.02314323       0.06144914      -0.09135915 </v>
  </varray>
  <energy>
   <i name="e_fr_energy">   -359.65378300 </i>
   <i name="e_wo_entrp">   -359.65686110 </i>
   <i name="e_0_energy">      0.00923428 </i>
  </energy>
  <time name="totalsc">    7.53    8.33</time>
 </calculation>
 <calculation>
  <scstep>
   <time name="dav">    1.04    1.09</time>
   <time name="total">    1.19    1.39</time>
   <energy>
    <i name="alphaZ">   1622.18820544 </i>
    <i name="ewald"> -22092.89244628 </i>
    <i name="hartreedc">  -7406.92592622 </i>
    <i name="XCdc">     23.50895235 </i>
    <i name="pawpsdc">  36347.23550958 </i>
    <i name="pawaedc"> -34854.08431126 </i>
    <i name="eentropy">      0.00918752 </i>
    <i name="bandstr">  -3051.87466148 </i>
    <i name="atom">  29053.18212688 </i>
    <i name="e_fr_energy">   -359.65336347 </i>
    <i name="e_wo_entrp">   -359.66255100 </i>
    <i name="e_0_energy">   -359.65642598 </i>
   </energy>
  </scstep>
  <scstep>
   <time name="diag">    0.10    0.11</time>
   <time name="diis">    0.79    0.83</time>
   <time name="orth">    0.02    0.02</time>
   <time name="total">    0.98    1.06</time>
   <energy>
    <i name="e_fr_energy">   -359.65692750 </i>
    <i name="e_wo_entrp">   -359.66635483 </i>
    <i name="e_0_energy">   -359.66006994 </i>
   </energy>
  </scstep>
  <scstep>
   <time name="diag">    0.09    0.09</time>
   <time name="diis">    0.82    0.85</time>
   <time name="orth">    0.01    0.01</time>
   <time name="total">    0.99    1.07</time>
   <energy>
    <i name="e_fr_energy">   -359.65691757 </i>
    <i name="e_wo_entrp">   -359.66629364 </i>
    <i name="e_0_energy">   -359.66004293 </i>
   </energy>
  </scstep>
  <scstep>
   <time name="diag">    0.09    0.09</time>
   <time name="diis">    0.87    0.92</time>
   <time name="orth">    0.01    0.01</time>
   <time name="total">    1.04    1.12</time>
   <energy>
    <i name="e_fr_energy">   -359.65679764 </i>
    <i name="e_wo_entrp">   -359.66607117 </i>
    <i name="e_0_energy">   -359.65988881 </i>
   </energy>
  </scstep>
  <scstep>
   <time name="diag">    0.09    0.09</time>
   <time name="diis">    0.86    0.92</time>
   <time name="orth">    0.01    0.01</time>
   <time name="total">    1.07    1.16</time>
   <energy>
    <i name="e_fr_energy">   -359.65679638 </i>
    <i name="e_wo_entrp">   -359.66617332 </i>
    <i name="e_0_energy">   -359.65992203 </i>
   </energy>
  </scstep>
  <scstep>
   <time name="diag">    0.18    0.19</time>
   <time name="diis">    0.68    0.73</time>
   <time name="orth">    0.01    0.01</time>
   <time name="total">    0.94    1.03</time>
   <energy>
    <i name="e_fr_energy">   -359.65679435 </i>
    <i name="e_wo_entrp">   -359.66612628 </i>
    <i name="e_0_energy">   -359.65990499 </i>
   </energy>
  </scstep>
  <scstep>
   <time name="diag">    0.09    0.10</time>
   <time name="diis">    0.54    0.58</time>
   <time name="orth">    0.01    0.01</time>
   <time name="total">    0.72    0.79</time>
   <energy>
    <i name="e_fr_energy">   -359.65679732 </i>
    <i name="e_wo_entrp">   -359.66612484 </i>
    <i name="e_0_energy">   -359.65990649 </i>
   </energy>
  </scstep>
  <scstep>
   <time name="diag">    0.11    0.11</time>
   <time name="diis">    0.55    0.57</time>
   <time name="orth">    0.01    0.01</time>
   <time name="total">    0.71    0.76</time>
   <energy>
    <i name="alphaZ">   1622.18820544 </i>
    <i name="ewald"> -22092.89244628 </i>
    <i name="hartreedc">  -7407.04315307 </i>
    <i name="XCdc">     23.51746432 </i>
    <i name="pawpsdc">  36344.30310341 </i>
    <i name="pawaedc"> -34851.17034902 </i>
    <i name="eentropy">      0.00932793 </i>
    <i name="bandstr">  -3051.75108237 </i>
    <i name="atom">  29053.18212688 </i>
    <i name="e_fr_energy">   -359.65680276 </i>
    <i name="e_wo_entrp">   -359.66613069 </i>
    <i name="e_0_energy">   -359.65991207 </i>
   </energy>
  </scstep>
  <structure>
   <crystal>
    <varray name="basis" >
     <v>       6.95639433       0.00226010       0.03820322 </v>
     <v>       0.00347025      10.24874681      -0.00341352 </v>
     <v>       0.05596258      -0.00449843      10.17825384 </v>
    </varray>
    <i name="volume">    725.62962954 </i>
    <varray name="rec_basis" >
     <v>       0.14375699      -0.00004894      -0.00079043 </v>
     <v>      -0.00003194       0.09757293       0.00004330 </v>
     <v>      -0.00053959       0.00003291       0.09825166 </v>
    </varray>
   </crystal>
   <varray name="positions" >
    <v>       0.26736004       0.50485643       0.16695434 </v>
    <v>       0.49226500       0.66543234       0.64625748 </v>
    <v>       0.26187838       0.50855316       0.84462656 </v>
    <v>       0.22816198       0.16861473       0.48451574 </v>
    <v>       0.00610026       0.33097915       0.00460806 </v>
    <v>       0.96695340       0.66426081       0.01958357 </v>
    <v>       0.26421353       0.82587632       0.16583378 </v>
    <v>       0.47109319       0.99906181       0.65738058 </v>
    <v>       0.76940413       0.83949219       0.50113599 </v>
    <v>       0.26241135       0.82042081       0.84768135 </v>
    <v>       0.25442497       0.16666923       0.17784342 </v>
    <v>       0.01935609       0.67138569       0.65753541 </v>
    <v>       0.54062001       0.66751722       0.00909818 </v>
    <v>       0.99911809       0.99094970       0.31903585 </v>
    <v>       0.73427468       0.83665466       0.18066756 </v>
    <v>       0.50467193       0.34114319       0.34127125 </v>
    <v>       0.98497717       0.34219433       0.31542954 </v>
    <v>       0.01643842       0.32934393       0.68185161 </v>
    <v>       0.23502105       0.83390449       0.48665444 </v>
    <v>       0.48632680       0.31772828       0.00088995 </v>
    <v>       0.24843574       0.16909505       0.83372136 </v>
    <v>       0.01007842       0.00554210       0.00522321 </v>
    <v>       0.76592706       0.16445867       0.49852383 </v>
    <v>       0.75011122       0.16336414       0.82826908 </v>
    <v>       0.73246397       0.16857697       0.17304631 </v>
    <v>       0.49105293       0.33370612       0.65684471 </v>
    <v>       0.75658862       0.83871397       0.82308043 </v>
    <v>       0.22599460       0.49488794       0.48943833 </v>
    <v>       0.75437923       0.49792746       0.82421828 </v>
    <v>       0.72769286       0.49513776       0.17873725 </v>
    <v>       0.03660465       0.99786890       0.67331563 </v>
    <v>       0.51212265       0.66966616       0.34532550 </v>
    <v>       0.76895777       0.50364472       0.49378791 </v>
    <v>       0.98199859       0.66696399       0.32550426 </v>
    <v>       0.47992352       0.01446970       0.00237934 </v>
    <v>       0.49259173       0.99094586       0.33972393 </v>
   </varray>
  </structure>
  <varray name="forces" >
   <v>       0.01608946       0.00621318       0.01272672 </v>
   <v>      -0.00397698      -0.01110240       0.00012183 </v>
   <v>      -0.00718548      -0.00570876       0.00978945 </v>
   <v>      -0.03613124       0.02322533       0.01354880 </v>
   <v>       0.01938457       0.00864752      -0.01430765 </v>
   <v>       0.01846351      -0.02460079      -0.02071804 </v>
   <v>      -0.02594067      -0.00641823      -0.01327224 </v>
   <v>      -0.00486507      -0.00507757      -0.03942531 </v>
   <v>       0.01875425       0.00064629       0.00164021 </v>
   <v>       0.01830146       0.03309653      -0.00866305 </v>
   <v>      -0.00322412      -0.00830047       0.01647376 </v>
   <v>       0.01573397      -0.00075703      -0.00279758 </v>
   <v>       0.00450488      -0.00825278      -0.00583863 </v>
   <v>       0.01379495      -0.00033672      -0.00033187 </v>
   <v>      -0.01679535       0.03234792       0.01836523 </v>
   <v>      -0.00144803      -0.00686461       0.00261039 </v>
   <v>       0.00666802       0.00845724      -0.00252982 </v>
   <v>      -0.00871495      -0.00052372       0.00724790 </v>
   <v>      -0.03347314      -0.01145531       0.01123018 </v>
   <v>       0.00624503      -0.00581710      -0.01515656 </v>
   <v>       0.01960035      -0.02092385      -0.00881182 </v>
   <v>       0.02064013       0.00472269      -0.02122979 </v>
   <v>      -0.00068630      -0.00159187      -0.00382061 </v>
   <v>      -0.01952212      -0.01413043       0.00514049 </v>
   <v>      -0.00385069      -0.00612344       0.00841716 </v>
   <v>       0.00575386       0.00683725       0.00257064 </v>
   <v>      -0.01102522       0.00680309       0.00597378 </v>
   <v>       0.01551394      -0.00393020      -0.01681702 </v>
   <v>       0.00349283      -0.00371914      -0.00886102 </v>
   <v>      -0.02184744       0.00935164       0.00326454 </v>
   <v>      -0.00439650       0.01197346       0.03223239 </v>
   <v>       0.00376901       0.00695383      -0.00493017 </v>
   <v>      -0.02752877       0.00909419      -0.00307926 </v>
   <v>      -0.00426695      -0.00834702       0.00014803 </v>
   <v>       0.00838337       0.00430527       0.05471368 </v>
   <v>       0.01978541      -0.01869400      -0.01562476 </v>
  </varray>
  <varray name="stress" >
   <v>      -0.30462093      -0.06724329       0.50567789 </v>
   <v>      -0.06724327      -0.10588405       0.13843052 </v>
   <v>       0.50567794       0.13843050       0.27539465 </v>
  </varray>
  <energy>
   <i name="e_fr_energy">   -359.65680276 </i>
   <i name="e_wo_entrp">   -359.65991207 </i>
   <i name="e_0_energy">      0.00932793 </i>
  </energy>
  <time name="totalsc">    9.28   10.19</time>
 </calculation>
 <calculation>
  <scstep>
   <time name="dav">    1.05    1.11</time>
   <time name="total">    1.20    1.41</time>
   <energy>
    <i name="alphaZ">   1622.17942500 </i>
    <i name="ewald"> -22093.10520230 </i>
    <i name="hartreedc">  -7406.78125790 </i>
    <i name="XCdc">     23.51573144 </i>
    <i name="pawpsdc">  36344.25203644 </i>
    <i name="pawaedc"> -34851.11884609 </i>
    <i name="eentropy">      0.00931443 </i>
    <i name="bandstr">  -3051.79006826 </i>
    <i name="atom">  29053.18212688 </i>
    <i name="e_fr_energy">   -359.65674036 </i>
    <i name="e_wo_entrp">   -359.66605478 </i>
    <i name="e_0_energy">   -359.65984516 </i>
   </energy>
  </scstep>
  <scstep>
   <time name="diag">    0.13    0.13</time>
   <time name="diis">    0.77    0.82</time>
   <time name="orth">    0.01    0.01</time>
   <time name="total">    0.98    1.06</time>
   <energy>
    <i name="e_fr_energy">   -359.65693275 </i>
    <i name="e_wo_entrp">   -359.66629940 </i>
    <i name="e_0_energy">   -359.66005497 </i>
   </energy>
  </scstep>
  <scstep>
   <time name="diag">    0.09    0.09</time>
   <time name="diis">    0.72    0.76</time>
   <time name="orth">    0.01    0.01</time>
   <time name="total">    0.88    0.96</time>
   <energy>
    <i name="e_fr_energy">   -359.65693607 </i>
    <i name="e_wo_entrp">   -359.66629215 </i>
    <i name="e_0_energy">   -359.66005476 </i>
   </energy>
  </scstep>
  <scstep>
   <time name="diag">    0.09    0.10</time>
   <time name="diis">    0.68    0.70</time>
   <time name="orth">    0.01    0.01</time>
   <time name="total">    0.86    0.92</time>
   <energy>
    <i name="e_fr_energy">   -359.65693640 </i>
    <i name="e_wo_entrp">   -359.66626667 </i>
    <i name="e_0_energy">   -359.66004649 </i>
   </energy>
  </scstep>
  <scstep>
   <time name="diag">    0.08    0.09</time>
   <time name="diis">    0.55    0.56</time>
   <time name="orth">    0.01    0.01</time>
   <time name="total">    0.68    0.73</time>
   <energy>
    <i name="alphaZ">   1622.17942500 </i>
    <i name="ewald"> -22093.10520230 </i>
    <i name="hartreedc">  -7406.81582455 </i>
    <i name="XCdc">     23.51812118 </i>
    <i name="pawpsdc">  36343.77187041 </i>
    <i name="pawaedc"> -34850.64083253 </i>
    <i name="eentropy">      0.00935564 </i>
    <i name="bandstr">  -3051.75597594 </i>
    <i name="atom">  29053.18212688 </i>
    <i name="e_fr_energy">   -359.65693621 </i>
    <i name="e_wo_entrp">   -359.66629185 </i>
    <i name="e_0_energy">   -359.66005475 </i>
   </energy>
  </scstep>
  <structure>
   <crystal>
    <varray name="basis" >
     <v>       6.95722947       0.00218945       0.03748581 </v>
     <v>       0.00336701      10.24825453      -0.00339823 </v>
     <v>       0.05492345      -0.00448348      10.17756452 </v>
    </varray>
    <i name="volume">    725.63355719 </i>
    <varray name="rec_basis" >
     <v>       0.14373957      -0.00004748      -0.00077571 </v>
     <v>      -0.00003094       0.09757762       0.00004315 </v>
     <v>      -0.00052943       0.00003276       0.09825821 </v>
    </varray>
   </crystal>
   <varray name="positions" >
    <v>       0.26737744       0.50486000       0.16695803 </v>
    <v>       0.49221579       0.66538486       0.64629115 </v>
    <v>       0.26191228       0.50856155       0.84461706 </v>
    <v>       0.22814000       0.16862913       0.48453014 </v>
    <v>       0.00610920       0.33098809       0.00460510 </v>
    <v>       0.96689558       0.66426172       0.01958754 </v>
    <v>       0.26418672       0.82583465       0.16579661 </v>
    <v>       0.47114563       0.99904572       0.65714505 </v>
    <v>       0.76943154       0.83951341       0.50114572 </v>
    <v>       0.26240453       0.82044118       0.84769165 </v>
    <v>       0.25445293       0.16663537       0.17788684 </v>
    <v>       0.01944811       0.67138984       0.65754482 </v>
    <v>       0.54061433       0.66748444       0.00907512 </v>
    <v>       0.99912592       0.99097343       0.31903731 </v>
    <v>       0.73444588       0.83656119       0.18058101 </v>
    <v>       0.50468189       0.34104654       0.34126575 </v>
    <v>       0.98497125       0.34221369       0.31541895 </v>
    <v>       0.01643985       0.32934999       0.68188801 </v>
    <v>       0.23494259       0.83389969       0.48671119 </v>
    <v>       0.48631327       0.31775411       0.00087224 </v>
    <v>       0.24843031       0.16907143       0.83371371 </v>
    <v>       0.01009476       0.00556291       0.00517274 </v>
    <v>       0.76590925       0.16443932       0.49851070 </v>
    <v>       0.75010410       0.16335917       0.82827476 </v>
    <v>       0.73258668       0.16866811       0.17298833 </v>
    <v>       0.49104660       0.33371910       0.65687060 </v>
    <v>       0.75658370       0.83873017       0.82306846 </v>
    <v>       0.22600181       0.49485958       0.48940624 </v>
    <v>       0.75436821       0.49793130       0.82422911 </v>
    <v>       0.72769231       0.49512760       0.17875241 </v>
    <v>       0.03655230       0.99787442       0.67336755 </v>
    <v>       0.51209346       0.66992582       0.34529476 </v>
    <v>       0.76892723       0.50364914       0.49375345 </v>
    <v>       0.98200447       0.66692254       0.32550956 </v>
    <v>       0.47993279       0.01446128       0.00258653 </v>
    <v>       0.49241129       0.99087752       0.33984578 </v>
   </varray>
  </structure>
  <varray name="forces" >
   <v>       0.01751633       0.00660774       0.01423414 </v>
   <v>      -0.00194466      -0.00878284      -0.00246568 </v>
   <v>      -0.00968026      -0.00721815       0.01275225 </v>
   <v>      -0.03987333       0.02497915       0.01346425 </v>
   <v>       0.02158819       0.00831000      -0.01582773 </v>
   <v>       0.02377205      -0.02788809      -0.02360272 </v>
   <v>      -0.02795464      -0.00351068      -0.01232176 </v>
   <v>      -0.00757421      -0.00435093      -0.02766518 </v>
   <v>       0.01940666      -0.00037011       0.00053889 </v>
   <v>       0.02133133       0.03691836      -0.00958292 </v>
   <v>      -0.00482218      -0.00801461       0.01588859 </v>
   <v>       0.01460310      -0.00071455      -0.00418967 </v>
   <v>       0.00548188      -0.00684310      -0.00480454 </v>
   <v>       0.01544971      -0.00182939      -0.00044839 </v>
   <v>      -0.02599805       0.04316906       0.02609406 </v>
   <v>      -0.00184239      -0.00232228       0.00327679 </v>
   <v>       0.00754580       0.00842587      -0.00227851 </v>
   <v>      -0.00962416      -0.00122867       0.00611446 </v>
   <v>      -0.03470244      -0.01252481       0.00884079 </v>
   <v>       0.00771765      -0.00794399      -0.01608646 </v>
   <v>       0.02275056      -0.02274817      -0.00893122 </v>
   <v>       0.02251319       0.00416930      -0.02031065 </v>
   <v>      -0.00060951      -0.00049609      -0.00374649 </v>
   <v>      -0.02221231      -0.01597446       0.00590004 </v>
   <v>      -0.01045317      -0.01357994       0.01361338 </v>
   <v>       0.00663685       0.00643287       0.00064270 </v>
   <v>      -0.01266500       0.00713154       0.00790854 </v>
   <v>       0.01676934      -0.00230739      -0.01701320 </v>
   <v>       0.00425900      -0.00489343      -0.01104528 </v>
   <v>      -0.02499770       0.01089364       0.00270210 </v>
   <v>      -0.00287760       0.01352633       0.03311464 </v>
   <v>       0.00595554      -0.01008627      -0.00386621 </v>
   <v>      -0.03006190       0.00980452      -0.00157924 </v>
   <v>      -0.00525476      -0.00648361      -0.00035179 </v>
   <v>       0.00910425       0.00548776       0.04770741 </v>
   <v>       0.03074686      -0.01574455      -0.02667536 </v>
  </varray>
  <varray name="stress" >
   <v>      -0.36608852      -0.07861923       0.57200095 </v>
   <v>      -0.07861928      -0.10464811       0.15950202 </v>
   <v>       0.57200102       0.15950204       0.31992857 </v>
  </varray>
  <energy>
   <i name="e_fr_energy">   -359.65693621 </i>
   <i name="e_wo_entrp">   -359.66005475 </i>
   <i name="e_0_energy">      0.00935564 </i>
  </energy>
  <time name="totalsc">    6.32    6.95</time>
 </calculation>
 <calculation>
  <scstep>
   <time name="dav">    1.07    1.11</time>
   <time name="total">    1.20    1.37</time>
   <energy>
    <i name="alphaZ">   1622.30827401 </i>
    <i name="ewald"> -22093.57056045 </i>
    <i name="hartreedc">  -7407.10985420 </i>
    <i name="XCdc">     23.54491962 </i>
    <i name="pawpsdc">  36343.73437564 </i>
    <i name="pawaedc"> -34850.60382423 </i>
    <i name="eentropy">      0.00935290 </i>
    <i name="bandstr">  -3051.15269502 </i>
    <i name="atom">  29053.18212688 </i>
    <i name="e_fr_energy">   -359.65788487 </i>
    <i name="e_wo_entrp">   -359.66723777 </i>
    <i name="e_0_energy">   -359.66100250 </i>
   </energy>
  </scstep>
  <scstep>
   <time name="diag">    0.10    0.10</time>
   <time name="diis">    0.77    0.81</time>
   <time name="orth">    0.01    0.01</time>
   <time name="total">    0.95    1.02</time>
   <energy>
    <i name="e_fr_energy">   -359.65831856 </i>
    <i name="e_wo_entrp">   -359.66763805 </i>
    <i name="e_0_energy">   -359.66142506 </i>
   </energy>
  </scstep>
  <scstep>
   <time name="diag">    0.11    0.11</time>
   <time name="diis">    0.85    0.90</time>
   <time name="orth">    0.01    0.01</time>
   <time name="total">    1.05    1.13</time>
   <energy>
    <i name="e_fr_energy">   -359.65829956 </i>
    <i name="e_wo_entrp">   -359.66767406 </i>
    <i name="e_0_energy">   -359.66142440 </i>
   </energy>
  </scstep>
  <scstep>
   <time name="diag">    0.10    0.10</time>
   <time name="diis">    0.72    0.90</time>
   <time name="orth">    0.01    0.01</time>
   <time name="total">    0.90    1.11</time>
   <energy>
    <i name="e_fr_energy">   -359.65828212 </i>
    <i name="e_wo_entrp">   -359.66765805 </i>
    <i name="e_0_energy">   -359.66140743 </i>
   </energy>
  </scstep>
  <scstep>
   <time name="diag">    0.09    0.09</time>
   <time name="diis">    0.64    0.66</time>
   <time name="orth">    0.01    0.01</time>
   <time name="total">    0.81    0.86</time>
   <energy>
    <i name="e_fr_energy">   -359.65828015 </i>
    <i name="e_wo_entrp">   -359.66763447 </i>
    <i name="e_0_energy">   -359.66139826 </i>
   </energy>
  </scstep>
  <scstep>
   <time name="diag">    0.14    0.14</time>
   <time name="diis">    0.45    0.48</time>
   <time name="orth">    0.01    0.02</time>
   <time name="total">    0.64    0.70</time>
   <energy>
    <i name="alphaZ">   1622.30827401 </i>
    <i name="ewald"> -22093.57056045 </i>
    <i name="hartreedc">  -7406.73900157 </i>
    <i name="XCdc">     23.52886411 </i>
    <i name="pawpsdc">  36347.90491846 </i>
    <i name="pawaedc"> -34854.78263997 </i>
    <i name="eentropy">      0.00937999 </i>
    <i name="bandstr">  -3051.49964231 </i>
    <i name="atom">  29053.18212688 </i>
    <i name="e_fr_energy">   -359.65828085 </i>
    <i name="e_wo_entrp">   -359.66766084 </i>
    <i name="e_0_energy">   -359.66140751 </i>
   </energy>
  </scstep>
  <structure>
   <crystal>
    <varray name="basis" >
     <v>       6.95653825       0.00182603       0.03909898 </v>
     <v>       0.00282588      10.24723079      -0.00247083 </v>
     <v>       0.05727111      -0.00356528      10.17880915 </v>
    </varray>
    <i name="volume">    725.57592501 </i>
    <varray name="rec_basis" >
     <v>       0.14375422      -0.00003984      -0.00080885 </v>
     <v>      -0.00002581       0.09758736       0.00003433 </v>
     <v>      -0.00055220       0.00002384       0.09824643 </v>
    </varray>
   </crystal>
   <varray name="positions" >
    <v>       0.26750380       0.50489172       0.16702296 </v>
    <v>       0.49216110       0.66530588       0.64630942 </v>
    <v>       0.26187923       0.50853753       0.84466477 </v>
    <v>       0.22786591       0.16874992       0.48460231 </v>
    <v>       0.00625529       0.33103175       0.00453296 </v>
    <v>       0.96699849       0.66414152       0.01948731 </v>
    <v>       0.26398553       0.82578354       0.16571145 </v>
    <v>       0.47114336       0.99901296       0.65682157 </v>
    <v>       0.76957907       0.83953006       0.50115600 </v>
    <v>       0.26253514       0.82061873       0.84765824 </v>
    <v>       0.25444568       0.16657150       0.17799370 </v>
    <v>       0.01962077       0.67139029       0.65753429 </v>
    <v>       0.54064462       0.66742652       0.00903413 </v>
    <v>       0.99923136       0.99098591       0.31903625 </v>
    <v>       0.73442627       0.83666793       0.18062107 </v>
    <v>       0.50467859       0.34095324       0.34127536 </v>
    <v>       0.98501440       0.34226687       0.31539971 </v>
    <v>       0.01637942       0.32934992       0.68194629 </v>
    <v>       0.23465312       0.83384132       0.48679945 </v>
    <v>       0.48635147       0.31774187       0.00078657 </v>
    <v>       0.24857127       0.16895241       0.83366756 </v>
    <v>       0.01025330       0.00559884       0.00504008 </v>
    <v>       0.76589015       0.16442049       0.49848305 </v>
    <v>       0.74995595       0.16328566       0.82830591 </v>
    <v>       0.73262515       0.16868778       0.17299806 </v>
    <v>       0.49108351       0.33375816       0.65689555 </v>
    <v>       0.75649830       0.83877508       0.82309299 </v>
    <v>       0.22611569       0.49482509       0.48930392 </v>
    <v>       0.75438631       0.49791336       0.82419012 </v>
    <v>       0.72753208       0.49516612       0.17877787 </v>
    <v>       0.03648768       0.99793788       0.67355692 </v>
    <v>       0.51210651       0.67010573       0.34525125 </v>
    <v>       0.76870896       0.50369549       0.49371760 </v>
    <v>       0.98197600       0.66685873       0.32551271 </v>
    <v>       0.47999729       0.01447791       0.00297306 </v>
    <v>       0.49245324       0.99075029       0.33983353 </v>
   </varray>
  </structure>
  <varray name="forces" >
   <v>       0.01421296       0.00348186       0.00974212 </v>
   <v>      -0.00580698      -0.00356461      -0.00165267 </v>
   <v>      -0.00331734      -0.00353490       0.00920915 </v>
   <v>      -0.03000130       0.01816979       0.01251403 </v>
   <v>       0.01560585       0.00331086      -0.01204482 </v>
   <v>       0.01372832      -0.01978341      -0.01799956 </v>
   <v>      -0.02145785      -0.00402652      -0.00810662 </v>
   <v>      -0.00655519      -0.00169486      -0.02203262 </v>
   <v>       0.01845832      -0.00216590       0.00125436 </v>
   <v>       0.02443391       0.02947058      -0.00988083 </v>
   <v>      -0.00557435      -0.00496513       0.01062791 </v>
   <v>       0.01289681      -0.00047800      -0.00287546 </v>
   <v>       0.00540996      -0.00219859      -0.00350237 </v>
   <v>       0.00617948       0.00191396       0.00081242 </v>
   <v>      -0.01121542       0.03100468       0.01605870 </v>
   <v>      -0.00464940       0.00063918       0.00556182 </v>
   <v>       0.00182940       0.00895543      -0.00320071 </v>
   <v>      -0.01016665      -0.00141595       0.00460395 </v>
   <v>      -0.02653064      -0.01283478       0.00537931 </v>
   <v>       0.00475569      -0.00823756      -0.01379080 </v>
   <v>       0.02124556      -0.01444176      -0.00614294 </v>
   <v>       0.01719627       0.00316014      -0.01638262 </v>
   <v>       0.00110054       0.00233209      -0.00350715 </v>
   <v>      -0.01968962      -0.01216275       0.00608037 </v>
   <v>      -0.00493972      -0.01159584       0.01391492 </v>
   <v>       0.00554869       0.00150492      -0.00069060 </v>
   <v>      -0.01428354       0.00143068       0.00911053 </v>
   <v>       0.01461679      -0.00022267      -0.01348594 </v>
   <v>       0.00671582      -0.00366616      -0.01239725 </v>
   <v>      -0.01558651       0.00702322      -0.00123266 </v>
   <v>      -0.00345350       0.00927428       0.02770854 </v>
   <v>       0.00389834      -0.01347188      -0.00114257 </v>
   <v>      -0.02261015       0.00703812      -0.00081187 </v>
   <v>      -0.00888204      -0.00414725      -0.00095074 </v>
   <v>       0.00779798       0.00362846       0.04050816 </v>
   <v>       0.01908949      -0.00772972      -0.02125550 </v>
  </varray>
  <varray name="stress" >
   <v>      -0.18014789      -0.02730870       0.31985288 </v>
   <v>      -0.02730871       0.08048202       0.09132070 </v>
   <v>       0.31985291       0.09132072       0.32848981 </v>
  </varray>
  <energy>
   <i name="e_fr_energy">   -359.65828085 </i>
   <i name="e_wo_entrp">   -359.66140751 </i>
   <i name="e_0_energy">      0.00937999 </i>
  </energy>
  <time name="totalsc">    7.40    8.22</time>
 </calculation>
 <calculation>
  <scstep>
   <time name="dav">    1.02    1.07</time>
   <time name="total">    1.16    1.35</time>
   <energy>
    <i name="alphaZ">   1622.67905485 </i>
    <i name="ewald"> -22094.85071117 </i>
    <i name="hartreedc">  -7407.62673140 </i>
    <i name="XCdc">     23.60686815 </i>
    <i name="pawpsdc">  36347.90029789 </i>
    <i name="pawaedc"> -34854.77624667 </i>
    <i name="eentropy">      0.00937116 </i>
    <i name="bandstr">  -3049.78068874 </i>
    <i name="atom">  29053.18212688 </i>
    <i name="e_fr_energy">   -359.65665905 </i>
    <i name="e_wo_entrp">   -359.66603021 </i>
    <i name="e_0_energy">   -359.65978277 </i>
   </energy>
  </scstep>
  <scstep>
   <time name="diag">    0.09    0.09</time>
   <time name="diis">    0.81    0.82</time>
   <time name="orth">    0.01    0.01</time>
   <time name="total">    0.99    1.03</time>
   <energy>
    <i name="e_fr_energy">   -359.66028106 </i>
    <i name="e_wo_entrp">   -359.66956857 </i>
    <i name="e_0_energy">   -359.66337690 </i>
   </energy>
  </scstep>
  <scstep>
   <time name="diag">    0.13    0.13</time>
   <time name="diis">    0.85    0.88</time>
   <time name="orth">    0.01    0.01</time>
   <time name="total">    1.06    1.14</time>
   <energy>
    <i name="e_fr_energy">   -359.66016152 </i>
    <i name="e_wo_entrp">   -359.66961117 </i>
    <i name="e_0_energy">   -359.66331140 </i>
   </energy>
  </scstep>
  <scstep>
   <time name="diag">    0.10    0.10</time>
   <time name="diis">    0.90    0.91</time>
   <time name="orth">    0.01    0.01</time>
   <time name="total">    1.08    1.13</time>
   <energy>
    <i name="e_fr_energy">   -359.66001648 </i>
    <i name="e_wo_entrp">   -359.66946316 </i>
    <i name="e_0_energy">   -359.66316537 </i>
   </energy>
  </scstep>
  <scstep>
   <time name="diag">    0.10    0.10</time>
   <time name="diis">    0.87    0.92</time>
   <time name="orth">    0.01    0.01</time>
   <time name="total">    1.05    1.13</time>
   <energy>
    <i name="e_fr_energy">   -359.66001279 </i>
    <i name="e_wo_entrp">   -359.66940849 </i>
    <i name="e_0_energy">   -359.66314469 </i>
   </energy>
  </scstep>
  <scstep>
   <time name="diag">    0.10    0.11</time>
   <time name="diis">    0.78    0.82</time>
   <time name="orth">    0.01    0.01</time>
   <time name="total">    0.97    1.04</time>
   <energy>
    <i name="e_fr_energy">   -359.66001236 </i>
    <i name="e_wo_entrp">   -359.66947516 </i>
    <i name="e_0_energy">   -359.66316663 </i>
[...]
       <r>    7.1477    1.0000 </r>
       <r>    7.2140    1.0000 </r>
       <r>    7.2449    1.0000 </r>
       <r>    7.3148    1.0000 </r>
       <r>    7.3451    1.0000 </r>
       <r>    7.3727    1.0000 </r>
       <r>    7.4126    1.0000 </r>
       <r>    7.4735    1.0004 </r>
       <r>    7.4858    1.0007 </r>
       <r>    7.5287    1.0023 </r>
       <r>    7.5598    1.0051 </r>
       <r>    7.5970    1.0114 </r>
       <r>    7.6109    1.0148 </r>
       <r>    7.6544    1.0276 </r>
       <r>    7.6840    1.0346 </r>
       <r>    7.7195    1.0307 </r>
       <r>    7.7363    1.0197 </r>
       <r>    7.8426    0.7012 </r>
       <r>    7.8635    0.5894 </r>
       <r>    7.8735    0.5336 </r>
       <r>    7.9393    0.1905 </r>
       <r>    7.9715    0.0741 </r>
       <r>    8.0147   -0.0116 </r>
       <r>    8.0236   -0.0206 </r>
       <r>    8.0771   -0.0343 </r>
       <r>    8.0967   -0.0299 </r>
       <r>    8.1291   -0.0201 </r>
       <r>    8.1904   -0.0063 </r>
       <r>    8.2221   -0.0029 </r>
       <r>    8.2732   -0.0007 </r>
       <r>    8.3078   -0.0002 </r>
       <r>    8.3375   -0.0001 </r>
       <r>    8.3886   -0.0000 </r>
       <r>    8.4278   -0.0000 </r>
       <r>    8.4737   -0.0000 </r>
       <r>    8.5226   -0.0000 </r>
       <r>    8.5947   -0.0000 </r>
       <r>    8.6485   -0.0000 </r>
       <r>    8.6930   -0.0000 </r>
       <r>    8.7402   -0.0000 </r>
       <r>    8.8096   -0.0000 </r>
       <r>    8.9764   -0.0000 </r>
       <r>    9.0890   -0.0000 </r>
       <r>    9.2088   -0.0000 </r>
       <r>    9.6459   -0.0000 </r>
       <r>    9.7617   -0.0000 </r>
       <r>    9.7972   -0.0000 </r>
       <r>    9.8348   -0.0000 </r>
       <r>    9.9453   -0.0000 </r>
      </set>
     </set>
    </set>
   </array>
  </eigenvalues>
  <separator name="orbital magnetization" >
   <v name="MAGDIPOLOUT">      0.00000000      0.00000000      0.00000000</v>
  </separator>
  <dos>
   <i name="efermi">      7.87946857 </i>
   <total>
    <array>
     <dimension dim="1">gridpoints</dimension>
     <dimension dim="2">spin</dimension>
     <field>energy</field>
     <field>total</field>
     <field>integrated</field>
     <set>
      <set comment="spin 1">
       <r>   -49.2493     0.0000     0.0000 </r>
       <r>   -49.0426     0.0000     0.0000 </r>
       <r>   -48.8359     0.0000     0.0000 </r>
       <r>   -48.6292     0.0000     0.0000 </r>
       <r>   -48.4224     0.0000     0.0000 </r>
       <r>   -48.2157     0.0000     0.0000 </r>
       <r>   -48.0090     0.0000     0.0000 </r>
       <r>   -47.8023    -0.0000    -0.0000 </r>
       <r>   -47.5956    -0.0000    -0.0000 </r>
       <r>   -47.3889    -0.0000    -0.0000 </r>
       <r>   -47.1822    -0.0000    -0.0000 </r>
       <r>   -46.9755    -0.0000    -0.0000 </r>
       <r>   -46.7688    -0.0498    -0.0103 </r>
       <r>   -46.5620    -1.9335    -0.4100 </r>
       <r>   -46.3553    38.3338     7.5140 </r>
       <r>   -46.1486    63.1215    20.5619 </r>
       <r>   -45.9419     7.1453    22.0389 </r>
       <r>   -45.7352    -0.1540    22.0071 </r>
       <r>   -45.5285    -0.0344    22.0000 </r>
       <r>   -45.3218    -0.0000    22.0000 </r>
       <r>   -45.1151    -0.0000    22.0000 </r>
       <r>   -44.9083     0.0000    22.0000 </r>
       <r>   -44.7016     0.0000    22.0000 </r>
       <r>   -44.4949     0.0000    22.0000 </r>
       <r>   -44.2882     0.0000    22.0000 </r>
       <r>   -44.0815     0.0000    22.0000 </r>
       <r>   -43.8748     0.0000    22.0000 </r>
       <r>   -43.6681     0.0000    22.0000 </r>
       <r>   -43.4614     0.0000    22.0000 </r>
       <r>   -43.2547     0.0000    22.0000 </r>
       <r>   -43.0479     0.0000    22.0000 </r>
       <r>   -42.8412     0.0000    22.0000 </r>
       <r>   -42.6345     0.0000    22.0000 </r>
       <r>   -42.4278     0.0000    22.0000 </r>
       <r>   -42.2211     0.0000    22.0000 </r>
       <r>   -42.0144     0.0000    22.0000 </r>
       <r>   -41.8077     0.0000    22.0000 </r>
       <r>   -41.6010    -0.0000    22.0000 </r>
       <r>   -41.3943    -0.0000    22.0000 </r>
       <r>   -41.1875    -0.0000    22.0000 </r>
       <r>   -40.9808    -0.0000    22.0000 </r>
       <r>   -40.7741    -0.0091    21.9981 </r>
       <r>   -40.5674    -1.0975    21.7713 </r>
       <r>   -40.3607    15.9999    25.0786 </r>
       <r>   -40.1540    49.4654    35.3037 </r>
       <r>   -39.9473    13.9056    38.1781 </r>
       <r>   -39.7406    -0.8438    38.0037 </r>
       <r>   -39.5339    -0.0178    38.0000 </r>
       <r>   -39.3271    -0.0000    38.0000 </r>
       <r>   -39.1204    -0.0000    38.0000 </r>
       <r>   -38.9137     0.0000    38.0000 </r>
       <r>   -38.7070     0.0000    38.0000 </r>
       <r>   -38.5003     0.0000    38.0000 </r>
       <r>   -38.2936     0.0000    38.0000 </r>
       <r>   -38.0869     0.0000    38.0000 </r>
       <r>   -37.8802     0.0000    38.0000 </r>
       <r>   -37.6735     0.0000    38.0000 </r>
       <r>   -37.4667     0.0000    38.0000 </r>
       <r>   -37.2600     0.0000    38.0000 </r>
       <r>   -37.0533     0.0000    38.0000 </r>
       <r>   -36.8466     0.0000    38.0000 </r>
       <r>   -36.6399     0.0000    38.0000 </r>
       <r>   -36.4332     0.0000    38.0000 </r>
       <r>   -36.2265     0.0000    38.0000 </r>
       <r>   -36.0198     0.0000    38.0000 </r>
       <r>   -35.8131     0.0000    38.0000 </r>
       <r>   -35.6063     0.0000    38.0000 </r>
       <r>   -35.3996     0.0000    38.0000 </r>
       <r>   -35.1929     0.0000    38.0000 </r>
       <r>   -34.9862     0.0000    38.0000 </r>
       <r>   -34.7795     0.0000    38.0000 </r>
       <r>   -34.5728     0.0000    38.0000 </r>
       <r>   -34.3661     0.0000    38.0000 </r>
       <r>   -34.1594     0.0000    38.0000 </r>
       <r>   -33.9527     0.0000    38.0000 </r>
       <r>   -33.7459     0.0000    38.0000 </r>
       <r>   -33.5392     0.0000    38.0000 </r>
       <r>   -33.3325     0.0000    38.0000 </r>
       <r>   -33.1258     0.0000    38.0000 </r>
       <r>   -32.9191     0.0000    38.0000 </r>
       <r>   -32.7124     0.0000    38.0000 </r>
       <r>   -32.5057     0.0000    38.0000 </r>
       <r>   -32.2990     0.0000    38.0000 </r>
       <r>   -32.0923     0.0000    38.0000 </r>
       <r>   -31.8855     0.0000    38.0000 </r>
       <r>   -31.6788     0.0000    38.0000 </r>
       <r>   -31.4721     0.0000    38.0000 </r>
       <r>   -31.2654     0.0000    38.0000 </r>
       <r>   -31.0587     0.0000    38.0000 </r>
       <r>   -30.8520     0.0000    38.0000 </r>
       <r>   -30.6453     0.0000    38.0000 </r>
       <r>   -30.4386     0.0000    38.0000 </r>
       <r>   -30.2319     0.0000    38.0000 </r>
       <r>   -30.0251     0.0000    38.0000 </r>
       <r>   -29.8184     0.0000    38.0000 </r>
       <r>   -29.6117     0.0000    38.0000 </r>
       <r>   -29.4050     0.0000    38.0000 </r>
       <r>   -29.1983     0.0000    38.0000 </r>
       <r>   -28.9916     0.0000    38.0000 </r>
       <r>   -28.7849     0.0000    38.0000 </r>
       <r>   -28.5782     0.0000    38.0000 </r>
       <r>   -28.3715     0.0000    38.0000 </r>
       <r>   -28.1647     0.0000    38.0000 </r>
       <r>   -27.9580     0.0000    38.0000 </r>
       <r>   -27.7513     0.0000    38.0000 </r>
       <r>   -27.5446     0.0000    38.0000 </r>
       <r>   -27.3379     0.0000    38.0000 </r>
       <r>   -27.1312     0.0000    38.0000 </r>
       <r>   -26.9245     0.0000    38.0000 </r>
       <r>   -26.7178     0.0000    38.0000 </r>
       <r>   -26.5111     0.0000    38.0000 </r>
       <r>   -26.3043     0.0000    38.0000 </r>
       <r>   -26.0976     0.0000    38.0000 </r>
       <r>   -25.8909     0.0000    38.0000 </r>
       <r>   -25.6842     0.0000    38.0000 </r>
       <r>   -25.4775     0.0000    38.0000 </r>
       <r>   -25.2708     0.0000    38.0000 </r>
       <r>   -25.0641     0.0000    38.0000 </r>
       <r>   -24.8574     0.0000    38.0000 </r>
       <r>   -24.6507     0.0000    38.0000 </r>
       <r>   -24.4439     0.0000    38.0000 </r>
       <r>   -24.2372    -0.0000    38.0000 </r>
       <r>   -24.0305    -0.0000    38.0000 </r>
       <r>   -23.8238    -0.0000    38.0000 </r>
       <r>   -23.6171    -0.0000    38.0000 </r>
       <r>   -23.4104    -0.0000    38.0000 </r>
       <r>   -23.2037    -0.0187    37.9961 </r>
       <r>   -22.9970    -0.8401    37.8225 </r>
       <r>   -22.7903    13.1890    40.5488 </r>
       <r>   -22.5835    59.1093    52.7674 </r>
       <r>   -22.3768   140.6406    81.8393 </r>
       <r>   -22.1701    69.0516    96.1131 </r>
       <r>   -21.9634    35.6611   103.4846 </r>
       <r>   -21.7567     2.8184   104.0672 </r>
       <r>   -21.5500    -0.3240   104.0002 </r>
       <r>   -21.3433    -0.0010   104.0000 </r>
       <r>   -21.1366    -0.0000   104.0000 </r>
       <r>   -20.9299    -0.0000   104.0000 </r>
       <r>   -20.7231     0.0000   104.0000 </r>
       <r>   -20.5164     0.0000   104.0000 </r>
       <r>   -20.3097     0.0000   104.0000 </r>
       <r>   -20.1030    -0.0000   104.0000 </r>
       <r>   -19.8963    -0.0000   104.0000 </r>
       <r>   -19.6896    -0.0000   104.0000 </r>
       <r>   -19.4829    -0.0000   104.0000 </r>
       <r>   -19.2762    -0.0001   104.0000 </r>
       <r>   -19.0695    -0.0802   103.9834 </r>
       <r>   -18.8627    -0.1187   103.9589 </r>
       <r>   -18.6560    18.8819   107.8620 </r>
       <r>   -18.4493    55.5256   119.3397 </r>
       <r>   -18.2426    91.5974   138.2739 </r>
       <r>   -18.0359    62.8587   151.2675 </r>
       <r>   -17.8292     4.0277   152.1001 </r>
       <r>   -17.6225    -0.4795   152.0010 </r>
       <r>   -17.4158    -0.0047   152.0000 </r>
       <r>   -17.2091    -0.0000   152.0000 </r>
       <r>   -17.0023    -0.0000   152.0000 </r>
       <r>   -16.7956     0.0000   152.0000 </r>
       <r>   -16.5889     0.0000   152.0000 </r>
       <r>   -16.3822     0.0000   152.0000 </r>
       <r>   -16.1755     0.0000   152.0000 </r>
       <r>   -15.9688     0.0000   152.0000 </r>
       <r>   -15.7621     0.0000   152.0000 </r>
       <r>   -15.5554     0.0000   152.0000 </r>
       <r>   -15.3487     0.0000   152.0000 </r>
       <r>   -15.1419     0.0000   152.0000 </r>
       <r>   -14.9352     0.0000   152.0000 </r>
       <r>   -14.7285     0.0000   152.0000 </r>
       <r>   -14.5218     0.0000   152.0000 </r>
       <r>   -14.3151     0.0000   152.0000 </r>
       <r>   -14.1084     0.0000   152.0000 </r>
       <r>   -13.9017     0.0000   152.0000 </r>
       <r>   -13.6950     0.0000   152.0000 </r>
       <r>   -13.4883     0.0000   152.0000 </r>
       <r>   -13.2815     0.0000   152.0000 </r>
       <r>   -13.0748     0.0000   152.0000 </r>
       <r>   -12.8681     0.0000   152.0000 </r>
       <r>   -12.6614     0.0000   152.0000 </r>
       <r>   -12.4547     0.0000   152.0000 </r>
       <r>   -12.2480     0.0000   152.0000 </r>
       <r>   -12.0413     0.0000   152.0000 </r>
       <r>   -11.8346     0.0000   152.0000 </r>
       <r>   -11.6279     0.0000   152.0000 </r>
       <r>   -11.4211     0.0000   152.0000 </r>
       <r>   -11.2144     0.0000   152.0000 </r>
       <r>   -11.0077     0.0000   152.0000 </r>
       <r>   -10.8010     0.0000   152.0000 </r>
       <r>   -10.5943     0.0000   152.0000 </r>
       <r>   -10.3876     0.0000   152.0000 </r>
       <r>   -10.1809     0.0000   152.0000 </r>
       <r>    -9.9742     0.0000   152.0000 </r>
       <r>    -9.7675     0.0000   152.0000 </r>
       <r>    -9.5607     0.0000   152.0000 </r>
       <r>    -9.3540     0.0000   152.0000 </r>
       <r>    -9.1473     0.0000   152.0000 </r>
       <r>    -8.9406     0.0000   152.0000 </r>
       <r>    -8.7339     0.0000   152.0000 </r>
       <r>    -8.5272     0.0000   152.0000 </r>
       <r>    -8.3205     0.0000   152.0000 </r>
       <r>    -8.1138     0.0000   152.0000 </r>
       <r>    -7.9071     0.0000   152.0000 </r>
       <r>    -7.7003     0.0000   152.0000 </r>
       <r>    -7.4936     0.0000   152.0000 </r>
       <r>    -7.2869     0.0000   152.0000 </r>
       <r>    -7.0802     0.0000   152.0000 </r>
       <r>    -6.8735     0.0000   152.0000 </r>
       <r>    -6.6668     0.0000   152.0000 </r>
       <r>    -6.4601     0.0000   152.0000 </r>
       <r>    -6.2534     0.0000   152.0000 </r>
       <r>    -6.0467     0.0000   152.0000 </r>
       <r>    -5.8399     0.0000   152.0000 </r>
       <r>    -5.6332     0.0000   152.0000 </r>
       <r>    -5.4265     0.0000   152.0000 </r>
       <r>    -5.2198     0.0000   152.0000 </r>
       <r>    -5.0131     0.0000   152.0000 </r>
       <r>    -4.8064     0.0000   152.0000 </r>
       <r>    -4.5997     0.0000   152.0000 </r>
       <r>    -4.3930     0.0000   152.0000 </r>
       <r>    -4.1863     0.0000   152.0000 </r>
       <r>    -3.9795     0.0000   152.0000 </r>
       <r>    -3.7728     0.0000   152.0000 </r>
       <r>    -3.5661     0.0000   152.0000 </r>
       <r>    -3.3594     0.0000   152.0000 </r>
       <r>    -3.1527     0.0000   152.0000 </r>
       <r>    -2.9460     0.0000   152.0000 </r>
       <r>    -2.7393     0.0000   152.0000 </r>
       <r>    -2.5326     0.0000   152.0000 </r>
       <r>    -2.3258     0.0000   152.0000 </r>
       <r>    -2.1191     0.0000   152.0000 </r>
       <r>    -1.9124     0.0000   152.0000 </r>
       <r>    -1.7057     0.0000   152.0000 </r>
       <r>    -1.4990     0.0000   152.0000 </r>
       <r>    -1.2923     0.0000   152.0000 </r>
       <r>    -1.0856     0.0000   152.0000 </r>
       <r>    -0.8789     0.0000   152.0000 </r>
       <r>    -0.6722     0.0000   152.0000 </r>
       <r>    -0.4654     0.0000   152.0000 </r>
       <r>    -0.2587     0.0000   152.0000 </r>
       <r>    -0.0520    -0.0000   152.0000 </r>
       <r>     0.1547    -0.0000   152.0000 </r>
       <r>     0.3614    -0.0000   152.0000 </r>
       <r>     0.5681    -0.0000   152.0000 </r>
       <r>     0.7748    -0.0001   152.0000 </r>
       <r>     0.9815    -0.0122   151.9974 </r>
       <r>     1.1882     0.1508   152.0286 </r>
       <r>     1.3950     0.8772   152.2100 </r>
       <r>     1.6017     1.6567   152.5524 </r>
       <r>     1.8084     1.7522   152.9146 </r>
       <r>     2.0151     3.2979   153.5963 </r>
       <r>     2.2218     3.7036   154.3619 </r>
       <r>     2.4285     1.4492   154.6614 </r>
       <r>     2.6352     4.9033   155.6750 </r>
       <r>     2.8419     3.4880   156.3960 </r>
       <r>     3.0486     4.6864   157.3647 </r>
       <r>     3.2554     5.7525   158.5538 </r>
       <r>     3.4621     6.8584   159.9715 </r>
       <r>     3.6688     9.2554   161.8847 </r>
       <r>     3.8755     9.0214   163.7495 </r>
       <r>     4.0822     8.4743   165.5013 </r>
       <r>     4.2889    16.9536   169.0058 </r>
       <r>     4.4956    19.5025   173.0372 </r>
       <r>     4.7023    24.5554   178.1130 </r>
       <r>     4.9090    28.5382   184.0122 </r>
       <r>     5.1158    32.7714   190.7864 </r>
       <r>     5.3225    40.8949   199.2399 </r>
       <r>     5.5292    40.5372   207.6194 </r>
       <r>     5.7359    36.2149   215.1054 </r>
       <r>     5.9426    35.5755   222.4592 </r>
       <r>     6.1493    33.9580   229.4787 </r>
       <r>     6.3560    19.3202   233.4724 </r>
       <r>     6.5627    42.1250   242.1802 </r>
       <r>     6.7694    59.1841   254.4142 </r>
       <r>     6.9762    60.2594   266.8705 </r>
       <r>     7.1829    54.3751   278.1104 </r>
       <r>     7.3896    51.4407   288.7438 </r>
       <r>     7.5963    56.3234   300.3864 </r>
       <r>     7.8030    49.0173   310.5189 </r>
       <r>     8.0097    46.5236   320.1358 </r>
       <r>     8.2164    50.6307   330.6017 </r>
       <r>     8.4231    45.8957   340.0889 </r>
       <r>     8.6298    36.0150   347.5336 </r>
       <r>     8.8366    32.7033   354.2937 </r>
       <r>     9.0433    21.6557   358.7702 </r>
       <r>     9.2500    16.7247   362.2274 </r>
       <r>     9.4567    15.7209   365.4771 </r>
       <r>     9.6634    24.6573   370.5740 </r>
       <r>     9.8701    22.3681   375.1977 </r>
       <r>    10.0768     4.1785   376.0615 </r>
       <r>    10.2835    -0.2929   376.0010 </r>
       <r>    10.4902    -0.0046   376.0000 </r>
       <r>    10.6970    -0.0000   376.0000 </r>
       <r>    10.9037    -0.0000   376.0000 </r>
       <r>    11.1104     0.0000   376.0000 </r>
       <r>    11.3171     0.0000   376.0000 </r>
       <r>    11.5238     0.0000   376.0000 </r>
       <r>    11.7305     0.0000   376.0000 </r>
       <r>    11.9372     0.0000   376.0000 </r>
       <r>    12.1439     0.0000   376.0000 </r>
       <r>    12.3506     0.0000   376.0000 </r>
       <r>    12.5574     0.0000   376.0000 </r>
       <r>    12.7641     0.0000   376.0000 </r>
      </set>
     </set>
    </array>
   </total>
  </dos>
 </calculation>
 <structure name="finalpos" >
  <crystal>
   <varray name="basis" >
    <v>       6.95392577       0.00141451       0.04300648 </v>
    <v>       0.00220453      10.24665909      -0.00016821 </v>
    <v>       0.06295730      -0.00128175      10.18036672 </v>
   </varray>
   <i name="volume">    725.36923224 </i>
   <varray name="rec_basis" >
    <v>       0.14380917      -0.00003095      -0.00088935 </v>
    <v>      -0.00001993       0.09759279       0.00001241 </v>
    <v>      -0.00060752       0.00000174       0.09823205 </v>
   </varray>
  </crystal>
  <varray name="positions" >
   <v>       0.26810397       0.50488652       0.16707600 </v>
   <v>       0.49115561       0.66543401       0.64613407 </v>
   <v>       0.26245497       0.50852954       0.84496140 </v>
   <v>       0.22602467       0.16921678       0.48510830 </v>
   <v>       0.00697305       0.33091353       0.00397024 </v>
   <v>       0.96760754       0.66361643       0.01865564 </v>
   <v>       0.26270190       0.82547405       0.16567361 </v>
   <v>       0.47127948       0.99901666       0.65474532 </v>
   <v>       0.77047870       0.83931157       0.50135237 </v>
   <v>       0.26488970       0.82175821       0.84748386 </v>
   <v>       0.25395710       0.16637031       0.17840650 </v>
   <v>       0.02118946       0.67145686       0.65761341 </v>
   <v>       0.54120078       0.66734804       0.00887769 </v>
   <v>       0.99892713       0.99124549       0.31908619 </v>
   <v>       0.73521040       0.83711607       0.18051532 </v>
   <v>       0.50412658       0.34084362       0.34168868 </v>
   <v>       0.98480169       0.34300576       0.31528009 </v>
   <v>       0.01579623       0.32932100       0.68228159 </v>
   <v>       0.23302558       0.83357454       0.48685070 </v>
   <v>       0.48638861       0.31750895       0.00024956 </v>
   <v>       0.24992863       0.16861258       0.83362963 </v>
   <v>       0.01122594       0.00571545       0.00405142 </v>
   <v>       0.76580846       0.16465923       0.49831357 </v>
   <v>       0.74863592       0.16269127       0.82875162 </v>
   <v>       0.73321568       0.16879404       0.17351583 </v>
   <v>       0.49112154       0.33345279       0.65689298 </v>
   <v>       0.75542344       0.83866138       0.82350105 </v>
   <v>       0.22656627       0.49485694       0.48878376 </v>
   <v>       0.75523799       0.49787009       0.82327932 </v>
   <v>       0.72697973       0.49517961       0.17849076 </v>
   <v>       0.03585556       0.99814002       0.67498177 </v>
   <v>       0.51251525       0.67027896       0.34509192 </v>
   <v>       0.76742188       0.50387227       0.49379531 </v>
   <v>       0.98107909       0.66631218       0.32524122 </v>
   <v>       0.48052515       0.01428230       0.00621666 </v>
   <v>       0.49216034       0.99068093       0.33944667 </v>
  </varray>
 </structure>
</modeling>
