<?xml version="1.0" encoding="ISO-8859-1"?>
<modeling>
 <generator>
  <i name="program" type="string">vasp </i>
  <i name="version" type="string">5.4.1  </i>
  <i name="subversion" type="string">05Feb16 (build Jan 29 2020 16:04:39) complex                          parallel </i>
  <i name="platform" type="string">IFC91_ompi </i>
  <i name="date" type="string">2020 06 15 </i>
  <i name="time" type="string">08:15:55 </i>
 </generator>
 <incar>
  <i type="string" name="SYSTEM"> automatically generated by mexm</i>
  <i type="int" name="ISTART">     0</i>
  <i type="string" name="PREC">accurate               ! avoid wrap aro</i>
  <i type="string" name="ALGO"> Fast                   ! blocked Davids</i>
  <i type="int" name="ISPIN">     1</i>
  <i type="int" name="ICHARG">     2</i>
  <i type="int" name="NELM">    70</i>
  <i type="int" name="IBRION">     2</i>
  <i name="EDIFF">      0.00001000</i>
  <i name="EDIFFG">     -0.01000000</i>
  <i type="int" name="NSW">   300</i>
  <i type="int" name="ISIF">     3</i>
  <i type="int" name="ISYM">     1</i>
  <i name="ENCUT">    300.00000000</i>
  <i name="POTIM">      0.15000000</i>
  <i type="string" name="LREAL"> Auto                  ! unpublished met</i>
  <i type="int" name="ISMEAR">     1</i>
  <i name="SIGMA">      0.15000000</i>
  <i type="logical" name="LWAVE"> F  </i>
  <i type="logical" name="LCHARG"> F  </i>
  <i type="logical" name="LVTOT"> F  </i>
  <v type="int" name="KPOINT_BSE">    -1     0     0     0</v>
  <i type="int" name="NELM">    70</i>
 </incar>
 <kpoints>
  <generation param="Gamma">
   <v type="int" name="divisions">       3        3        3 </v>
   <v name="usershift">      0.00000000       0.00000000       0.00000000 </v>
   <v name="genvec1">      0.33333333      -0.00000000      -0.00000000 </v>
   <v name="genvec2">      0.00000000       0.33333333       0.00000000 </v>
   <v name="genvec3">     -0.00000000       0.00000000       0.33333333 </v>
   <v name="shift">      0.00000000       0.00000000       0.00000000 </v>
  </generation>
  <varray name="kpointlist" >
   <v>       0.00000000       0.00000000       0.00000000 </v>
   <v>       0.33333333       0.00000000       0.00000000 </v>
   <v>       0.00000000       0.33333333       0.00000000 </v>
   <v>       0.33333333       0.33333333      -0.00000000 </v>
   <v>      -0.33333333       0.33333333       0.00000000 </v>
   <v>       0.00000000       0.00000000       0.33333333 </v>
   <v>       0.33333333      -0.00000000       0.33333333 </v>
   <v>      -0.33333333      -0.00000000       0.33333333 </v>
   <v>       0.00000000       0.33333333       0.33333333 </v>
   <v>       0.33333333       0.33333333       0.33333333 </v>
   <v>      -0.33333333       0.33333333       0.33333333 </v>
   <v>      -0.00000000      -0.33333333       0.33333333 </v>
   <v>       0.33333333      -0.33333333       0.33333333 </v>
   <v>      -0.33333333      -0.33333333       0.33333333 </v>
  </varray>
  <varray name="weights" >
   <v>       0.03703704 </v>
   <v>       0.07407407 </v>
   <v>       0.07407407 </v>
   <v>       0.07407407 </v>
   <v>       0.07407407 </v>
   <v>       0.07407407 </v>
   <v>       0.07407407 </v>
   <v>       0.07407407 </v>
   <v>       0.07407407 </v>
   <v>       0.07407407 </v>
   <v>       0.07407407 </v>
   <v>       0.07407407 </v>
   <v>       0.07407407 </v>
   <v>       0.07407407 </v>
  </varray>
 </kpoints>
 <parameters>
  <separator name="general" >
   <i type="string" name="SYSTEM">automatically generated by mexm</i>
   <i type="logical" name="LCOMPAT"> F  </i>
  </separator>
  <separator name="electronic" >
   <i type="string" name="PREC">accura</i>
   <i name="ENMAX">    300.00000000</i>
   <i name="ENAUG">    461.25700000</i>
   <i name="EDIFF">      0.00001000</i>
   <i type="int" name="IALGO">    68</i>
   <i type="int" name="IWAVPR">    11</i>
   <i type="int" name="NBANDS">   172</i>
   <i name="NELECT">    286.00000000</i>
   <i type="int" name="TURBO">     0</i>
   <i type="int" name="IRESTART">     0</i>
   <i type="int" name="NREBOOT">     0</i>
   <i type="int" name="NMIN">     0</i>
   <i name="EREF">      0.00000000</i>
   <separator name="electronic smearing" >
    <i type="int" name="ISMEAR">     1</i>
    <i name="SIGMA">      0.15000000</i>
    <i name="KSPACING">      0.50000000</i>
    <i type="logical" name="KGAMMA"> T  </i>
   </separator>
   <separator name="electronic projectors" >
    <i type="logical" name="LREAL"> T  </i>
    <v name="ROPT">     -0.00025000     -0.00025000     -0.00025000     -0.00025000</v>
    <i type="int" name="LMAXPAW">  -100</i>
    <i type="int" name="LMAXMIX">     2</i>
    <i type="logical" name="NLSPLINE"> F  </i>
   </separator>
   <separator name="electronic startup" >
    <i type="int" name="ISTART">     0</i>
    <i type="int" name="ICHARG">     2</i>
    <i type="int" name="INIWAV">     1</i>
   </separator>
   <separator name="electronic spin" >
    <i type="int" name="ISPIN">     1</i>
    <i type="logical" name="LNONCOLLINEAR"> F  </i>
    <v name="MAGMOM">      1.00000000      1.00000000      1.00000000      1.00000000      1.00000000      1.00000000      1.00000000      1.00000000      1.00000000      1.00000000      1.00000000      1.00000000      1.00000000      1.00000000      1.00000000      1.00000000      1.00000000      1.00000000      1.00000000      1.00000000
      1.00000000      1.00000000      1.00000000      1.00000000      1.00000000      1.00000000      1.00000000      1.00000000      1.00000000      1.00000000      1.00000000      1.00000000      1.00000000      1.00000000      1.00000000      1.00000000</v>
    <i name="NUPDOWN">     -1.00000000</i>
    <i type="logical" name="LSORBIT"> F  </i>
    <v name="SAXIS">      0.00000000      0.00000000      1.00000000</v>
    <i type="logical" name="LSPIRAL"> F  </i>
    <v name="QSPIRAL">      0.00000000      0.00000000      0.00000000</v>
    <i type="logical" name="LZEROZ"> F  </i>
   </separator>
   <separator name="electronic exchange-correlation" >
    <i type="logical" name="LASPH"> F  </i>
    <i type="logical" name="LMETAGGA"> F  </i>
   </separator>
   <separator name="electronic convergence" >
    <i type="int" name="NELM">    70</i>
    <i type="int" name="NELMDL">    -5</i>
    <i type="int" name="NELMIN">     2</i>
    <i name="ENINI">    300.00000000</i>
    <separator name="electronic convergence detail" >
     <i type="logical" name="LDIAG"> T  </i>
     <i type="logical" name="LSUBROT"> F  </i>
     <i name="WEIMIN">      0.00100000</i>
     <i name="EBREAK">      0.00000001</i>
     <i name="DEPER">      0.30000000</i>
     <i type="int" name="NRMM">     4</i>
     <i name="TIME">      0.40000000</i>
    </separator>
   </separator>
   <separator name="electronic mixer" >
    <i name="AMIX">      0.40000000</i>
    <i name="BMIX">      1.00000000</i>
    <i name="AMIN">      0.10000000</i>
    <i name="AMIX_MAG">      1.60000000</i>
    <i name="BMIX_MAG">      1.00000000</i>
    <separator name="electronic mixer details" >
     <i type="int" name="IMIX">     4</i>
     <i type="logical" name="MIXFIRST"> F  </i>
     <i type="int" name="MAXMIX">   -45</i>
     <i name="WC">    100.00000000</i>
     <i type="int" name="INIMIX">     1</i>
     <i type="int" name="MIXPRE">     1</i>
     <i type="int" name="MREMOVE">     5</i>
    </separator>
   </separator>
   <separator name="electronic dipolcorrection" >
    <i type="logical" name="LDIPOL"> F  </i>
    <i type="logical" name="LMONO"> F  </i>
    <i type="int" name="IDIPOL">     0</i>
    <i name="EPSILON">      1.00000000</i>
    <v name="DIPOL">   -100.00000000   -100.00000000   -100.00000000</v>
    <i name="EFIELD">      0.00000000</i>
   </separator>
  </separator>
  <separator name="grids" >
   <i type="int" name="NGX">    40</i>
   <i type="int" name="NGY">    60</i>
   <i type="int" name="NGZ">    60</i>
   <i type="int" name="NGXF">    80</i>
   <i type="int" name="NGYF">   120</i>
   <i type="int" name="NGZF">   120</i>
   <i type="logical" name="ADDGRID"> F  </i>
  </separator>
  <separator name="ionic" >
   <i type="int" name="NSW">   300</i>
   <i type="int" name="IBRION">     2</i>
   <i type="int" name="ISIF">     3</i>
   <i name="PSTRESS">      0.00000000</i>
   <i name="EDIFFG">     -0.01000000</i>
   <i type="int" name="NFREE">     1</i>
   <i name="POTIM">      0.15000000</i>
   <i name="SMASS">     -3.00000000</i>
   <i name="SCALEE">      1.00000000</i>
  </separator>
  <separator name="ionic md" >
   <i name="TEBEG">      0.00010000</i>
   <i name="TEEND">      0.00010000</i>
   <i type="int" name="NBLOCK">     1</i>
   <i type="int" name="KBLOCK">   300</i>
   <i type="int" name="NPACO">   256</i>
   <i name="APACO">     16.00000000</i>
  </separator>
  <separator name="symmetry" >
   <i type="int" name="ISYM">     1</i>
   <i name="SYMPREC">      0.00001000</i>
  </separator>
  <separator name="dos" >
   <i type="logical" name="LORBIT"> F  </i>
   <v name="RWIGS">     -1.00000000     -1.00000000     -1.00000000     -1.00000000</v>
   <i type="int" name="NEDOS">   301</i>
   <i name="EMIN">     10.00000000</i>
   <i name="EMAX">    -10.00000000</i>
   <i name="EFERMI">      0.00000000</i>
  </separator>
  <separator name="writing" >
   <i type="int" name="NWRITE">     2</i>
   <i type="logical" name="LWAVE"> F  </i>
   <i type="logical" name="LCHARG"> F  </i>
   <i type="logical" name="LPARD"> F  </i>
   <i type="logical" name="LVTOT"> F  </i>
   <i type="logical" name="LVHAR"> F  </i>
   <i type="logical" name="LELF"> F  </i>
   <i type="logical" name="LOPTICS"> F  </i>
   <v name="STM">      0.00000000      0.00000000      0.00000000      0.00000000      0.00000000      0.00000000      0.00000000</v>
  </separator>
  <separator name="performance" >
   <i type="int" name="NPAR">     4</i>
   <i type="int" name="NSIM">     4</i>
   <i type="int" name="NBLK">    -1</i>
   <i type="logical" name="LPLANE"> T  </i>
   <i type="logical" name="LSCALAPACK"> T  </i>
   <i type="logical" name="LSCAAWARE"> F  </i>
   <i type="logical" name="LSCALU"> F  </i>
   <i type="logical" name="LASYNC"> F  </i>
   <i type="logical" name="LORBITALREAL"> F  </i>
  </separator>
  <separator name="miscellaneous" >
   <i type="int" name="IDIOT">     3</i>
   <i type="logical" name="LMUSIC"> F  </i>
   <v name="POMASS">    180.94800000     91.22400000     92.91000000    178.49000000</v>
   <v name="DARWINR">      0.00000000      0.00000000      0.00000000      0.00000000</v>
   <v name="DARWINV">      1.00000000      1.00000000      1.00000000      1.00000000</v>
   <i type="logical" name="LCORR"> T  </i>
  </separator>
  <i type="logical" name="GGA_COMPAT"> T  </i>
  <i type="logical" name="LBERRY"> F  </i>
  <i type="int" name="ICORELEVEL">     0</i>
  <i type="logical" name="LDAU"> F  </i>
  <i type="int" name="I_CONSTRAINED_M">     0</i>
  <separator name="electronic exchange-correlation" >
   <i type="string" name="GGA">--</i>
   <i type="int" name="VOSKOWN">     0</i>
   <i type="logical" name="LHFCALC"> F  </i>
   <i type="string" name="PRECFOCK"></i>
   <i type="logical" name="LSYMGRAD"> F  </i>
   <i type="logical" name="LHFONE"> F  </i>
   <i type="logical" name="LRHFCALC"> F  </i>
   <i type="logical" name="LTHOMAS"> F  </i>
   <i type="logical" name="LMODELHF"> F  </i>
   <i name="ENCUT4O">     -1.00000000</i>
   <i type="int" name="EXXOEP">     0</i>
   <i type="int" name="FOURORBIT">     0</i>
   <i name="AEXX">      0.00000000</i>
   <i name="HFALPHA">      0.00000000</i>
   <i name="MCALPHA">      0.00000000</i>
   <i name="ALDAX">      1.00000000</i>
   <i name="AGGAX">      1.00000000</i>
   <i name="ALDAC">      1.00000000</i>
   <i name="AGGAC">      1.00000000</i>
   <i type="int" name="NKREDX">     1</i>
   <i type="int" name="NKREDY">     1</i>
   <i type="int" name="NKREDZ">     1</i>
   <i type="logical" name="SHIFTRED"> F  </i>
   <i type="logical" name="ODDONLY"> F  </i>
   <i type="logical" name="EVENONLY"> F  </i>
   <i type="int" name="LMAXFOCK">     0</i>
   <i type="int" name="NMAXFOCKAE">     0</i>
   <i type="logical" name="LFOCKAEDFT"> F  </i>
   <i name="HFSCREEN">      0.00000000</i>
   <i name="HFSCREENC">      0.00000000</i>
   <i type="int" name="NBANDSGWLOW">     0</i>
  </separator>
  <separator name="vdW DFT" >
   <i type="logical" name="LUSE_VDW"> F  </i>
   <i name="Zab_VDW">     -0.84910000</i>
   <i name="PARAM1">      0.12340000</i>
   <i name="PARAM2">      1.00000000</i>
   <i name="PARAM3">      0.00000000</i>
  </separator>
  <separator name="model GW" >
   <i type="int" name="MODEL_GW">     0</i>
   <i name="MODEL_EPS0">     11.87698464</i>
   <i name="MODEL_ALPHA">      1.00000000</i>
  </separator>
  <separator name="linear response parameters" >
   <i type="logical" name="LEPSILON"> F  </i>
   <i type="logical" name="LRPA"> F  </i>
   <i type="logical" name="LNABLA"> F  </i>
   <i type="logical" name="LVEL"> F  </i>
   <i type="int" name="KINTER">     0</i>
   <i name="CSHIFT">      0.10000000</i>
   <i name="OMEGAMAX">     -1.00000000</i>
   <i name="DEG_THRESHOLD">      0.00200000</i>
  </separator>
  <separator name="orbital magnetization" >
   <i type="logical" name="NUCIND"> F  </i>
   <v name="MAGPOS">      0.00000000      0.00000000      0.00000000</v>
   <i type="logical" name="LNICSALL"> T  </i>
   <i type="logical" name="ORBITALMAG"> F  </i>
   <i type="logical" name="LMAGBLOCH"> F  </i>
   <i type="logical" name="LCHIMAG"> F  </i>
   <i type="logical" name="LGAUGE"> T  </i>
   <i type="int" name="MAGATOM">     0</i>
   <v name="MAGDIPOL">      0.00000000      0.00000000      0.00000000</v>
   <v name="AVECCONST">      0.00000000      0.00000000      0.00000000</v>
  </separator>
  <separator name="response functions" >
   <i type="logical" name="LADDER"> F  </i>
   <i type="logical" name="LFXC"> F  </i>
   <i type="logical" name="LHARTREE"> T  </i>
   <i type="int" name="IBSE">     0</i>
   <v type="int" name="KPOINT">    -1     0     0     0</v>
   <i type="logical" name="LTCTE"> F  </i>
   <i type="logical" name="LTETE"> F  </i>
   <i type="logical" name="LTRIPLET"> F  </i>
   <i type="logical" name="LFXCEPS"> F  </i>
   <i type="logical" name="LFXHEG"> F  </i>
   <i type="int" name="NATURALO">     0</i>
   <i type="logical" name="L2ORDER"> F  </i>
   <i type="logical" name="LUSEW"> F  </i>
   <i name="ENCUTGW">     -2.00000000</i>
   <i name="ENCUTGWSOFT">     -2.00000000</i>
   <i name="ENCUTLF">     -1.00000000</i>
   <i type="int" name="LMAXMP2">    -1</i>
   <i name="SCISSOR">      0.00000000</i>
   <i type="int" name="NOMEGA">     0</i>
   <i type="int" name="NOMEGAR">     0</i>
   <i type="int" name="NBANDSGW">    -1</i>
   <i type="int" name="NBANDSO">    -1</i>
   <i type="int" name="NBANDSV">    -1</i>
   <i type="int" name="NELM">    70</i>
   <i type="int" name="NELMHF">     1</i>
   <i type="int" name="DIM">     3</i>
   <i type="int" name="ANTIRES">     0</i>
   <i name="OMEGAMAX">    -30.00000000</i>
   <i name="OMEGAMIN">    -30.00000000</i>
   <i name="OMEGATL">   -200.00000000</i>
   <i type="int" name="OMEGAGRID">     0</i>
   <i name="CSHIFT">     -0.10000000</i>
   <i type="logical" name="SELFENERGY"> F  </i>
   <i type="logical" name="LSPECTRAL"> F  </i>
   <i type="logical" name="LSPECTRALGW"> F  </i>
   <i type="logical" name="LSINGLES"> F  </i>
   <i type="logical" name="LFERMIGW"> F  </i>
   <i type="logical" name="ODDONLYGW"> F  </i>
   <i type="logical" name="EVENONLYGW"> F  </i>
   <i type="int" name="NKREDLFX">     1</i>
   <i type="int" name="NKREDLFY">     1</i>
   <i type="int" name="NKREDLFZ">     1</i>
   <i type="int" name="MAXMEM">  1800</i>
   <i type="int" name="TELESCOPE">     0</i>
   <i type="int" name="TAUPAR">     1</i>
   <i type="int" name="OMEGAPAR">    -1</i>
   <i name="LAMBDA">      1.00000000</i>
  </separator>
  <separator name="External order field" >
   <i name="OFIELD_KAPPA">      0.00000000</i>
   <v name="OFIELD_K">      0.00000000      0.00000000      0.00000000</v>
   <i name="OFIELD_Q6_NEAR">      0.00000000</i>
   <i name="OFIELD_Q6_FAR">      0.00000000</i>
   <i name="OFIELD_A">      0.00000000</i>
  </separator>
 </parameters>
 <atominfo>
  <atoms>      36 </atoms>
  <types>       4 </types>
  <array name="atoms" >
   <dimension dim="1">ion</dimension>
   <field type="string">element</field>
   <field type="int">atomtype</field>
   <set>
    <rc><c>Ta</c><c>   1</c></rc>
    <rc><c>Ta</c><c>   1</c></rc>
    <rc><c>Ta</c><c>   1</c></rc>
    <rc><c>Ta</c><c>   1</c></rc>
    <rc><c>Ta</c><c>   1</c></rc>
    <rc><c>Ta</c><c>   1</c></rc>
    <rc><c>Ta</c><c>   1</c></rc>
    <rc><c>Ta</c><c>   1</c></rc>
    <rc><c>Ta</c><c>   1</c></rc>
    <rc><c>Ta</c><c>   1</c></rc>
    <rc><c>Ta</c><c>   1</c></rc>
    <rc><c>Ta</c><c>   1</c></rc>
    <rc><c>Ta</c><c>   1</c></rc>
    <rc><c>Ta</c><c>   1</c></rc>
    <rc><c>Zr</c><c>   2</c></rc>
    <rc><c>Zr</c><c>   2</c></rc>
    <rc><c>Zr</c><c>   2</c></rc>
    <rc><c>Zr</c><c>   2</c></rc>
    <rc><c>Zr</c><c>   2</c></rc>
    <rc><c>Zr</c><c>   2</c></rc>
    <rc><c>Zr</c><c>   2</c></rc>
    <rc><c>Nb</c><c>   3</c></rc>
    <rc><c>Nb</c><c>   3</c></rc>
    <rc><c>Nb</c><c>   3</c></rc>
    <rc><c>Nb</c><c>   3</c></rc>
    <rc><c>Nb</c><c>   3</c></rc>
    <rc><c>Nb</c><c>   3</c></rc>
    <rc><c>Nb</c><c>   3</c></rc>
    <rc><c>Nb</c><c>   3</c></rc>
    <rc><c>Hf</c><c>   4</c></rc>
    <rc><c>Hf</c><c>   4</c></rc>
    <rc><c>Hf</c><c>   4</c></rc>
    <rc><c>Hf</c><c>   4</c></rc>
    <rc><c>Hf</c><c>   4</c></rc>
    <rc><c>Hf</c><c>   4</c></rc>
    <rc><c>Hf</c><c>   4</c></rc>
   </set>
  </array>
  <array name="atomtypes" >
   <dimension dim="1">type</dimension>
   <field type="int">atomspertype</field>
   <field type="string">element</field>
   <field>mass</field>
   <field>valence</field>
   <field type="string">pseudopotential</field>
   <set>
    <rc><c>  14</c><c>Ta</c><c>    180.94800000</c><c>      5.00000000</c><c>  PAW_PBE Ta 17Jan2003                  </c></rc>
    <rc><c>   7</c><c>Zr</c><c>     91.22400000</c><c>     12.00000000</c><c>  PAW_PBE Zr_sv 04Jan2005               </c></rc>
    <rc><c>   8</c><c>Nb</c><c>     92.91000000</c><c>     13.00000000</c><c>  PAW_PBE Nb_sv 25May2007               </c></rc>
    <rc><c>   7</c><c>Hf</c><c>    178.49000000</c><c>      4.00000000</c><c>  PAW_PBE Hf 20Jan2003                  </c></rc>
   </set>
  </array>
 </atominfo>
 <structure name="initialpos" >
  <crystal>
   <varray name="basis" >
    <v>       6.89223818      -0.01133344      -0.00431988 </v>
    <v>      -0.01628184      10.12293212      -0.00266376 </v>
    <v>      -0.00635012      -0.00282837      10.21391391 </v>
   </varray>
   <i name="volume">    712.61907859 </i>
   <varray name="rec_basis" >
    <v>       0.14509119       0.00023339       0.00009027 </v>
    <v>       0.00016246       0.09878588       0.00002746 </v>
    <v>       0.00006141       0.00002586       0.09790571 </v>
   </varray>
  </crystal>
  <varray name="positions" >
   <v>       0.23731300       0.84095600       0.50069800 </v>
   <v>       0.76504500       0.84216200       0.49900700 </v>
   <v>       0.23859400       0.49802800       0.17539700 </v>
   <v>       0.99269700       0.66913000       0.00503500 </v>
   <v>       0.22703100       0.83648500       0.17399100 </v>
   <v>       0.76169200       0.49387600       0.49485400 </v>
   <v>       0.77222100       0.83478600       0.17237600 </v>
   <v>       0.99854300       0.99167200       0.00443800 </v>
   <v>       0.76395800       0.50454100       0.83309000 </v>
   <v>       0.99617400       0.66563400       0.33159500 </v>
   <v>       0.25963700       0.15634100       0.49413300 </v>
   <v>       0.24364600       0.14225700       0.82541200 </v>
   <v>       0.50696900       0.99454500       0.66795100 </v>
   <v>       0.48244300       0.34629600       0.35253400 </v>
   <v>       0.75179600       0.16779100       0.17277600 </v>
   <v>       0.24004500       0.83376300       0.82597400 </v>
   <v>       0.75522100       0.48782900       0.17095500 </v>
   <v>       0.50170600       0.66664000       0.33534700 </v>
   <v>       0.02720400       0.33682700       0.98632900 </v>
   <v>       0.50166200       0.66957400       0.00104800 </v>
   <v>       0.47710300       0.34022800       0.98368600 </v>
   <v>       0.75993600       0.83614400       0.82777300 </v>
   <v>       0.23615900       0.50599500       0.49502100 </v>
   <v>       0.50372200       0.98673200       0.32788100 </v>
   <v>       0.99786700       0.99404400       0.33036100 </v>
   <v>       0.99690700       0.00720900       0.66472500 </v>
   <v>       0.98190000       0.66197800       0.66345900 </v>
   <v>       0.01806100       0.34116500       0.34771100 </v>
   <v>       0.22822000       0.52857000       0.82848600 </v>
   <v>       0.48861300       0.33983000       0.66653300 </v>
   <v>       0.50314000       0.98893000       0.00445700 </v>
   <v>       0.74360300       0.16406900       0.49510800 </v>
   <v>       0.25231600       0.16607800       0.18026900 </v>
   <v>       0.01563600       0.33246200       0.66542500 </v>
   <v>       0.75743200       0.16062100       0.83339800 </v>
   <v>       0.51578500       0.66682000       0.66276400 </v>
  </varray>
 </structure>
 <calculation>
  <scstep>
   <time name="dav">    0.98    0.99</time>
   <time name="total">    1.23    1.38</time>
   <energy>
    <i name="alphaZ">   1534.24243837 </i>
    <i name="ewald"> -18823.71532935 </i>
    <i name="hartreedc">  -6054.91035042 </i>
    <i name="XCdc">   -500.75617677 </i>
    <i name="pawpsdc">  20413.51498109 </i>
    <i name="pawaedc"> -18679.22278012 </i>
    <i name="eentropy">      0.00076691 </i>
    <i name="bandstr">     47.78084305 </i>
    <i name="atom">  23790.41883159 </i>
    <i name="e_fr_energy">   1727.35322435 </i>
    <i name="e_wo_entrp">   1727.35245744 </i>
    <i name="e_0_energy">   1727.35296872 </i>
   </energy>
  </scstep>
  <scstep>
   <time name="dav">    1.03    1.03</time>
   <time name="total">    1.03    1.10</time>
   <energy>
    <i name="e_fr_energy">   -116.24980960 </i>
    <i name="e_wo_entrp">   -116.25530806 </i>
    <i name="e_0_energy">   -116.25164242 </i>
   </energy>
  </scstep>
  <scstep>
   <time name="dav">    1.53    1.54</time>
   <time name="total">    1.53    1.55</time>
   <energy>
    <i name="e_fr_energy">   -358.28417999 </i>
    <i name="e_wo_entrp">   -358.28645775 </i>
    <i name="e_0_energy">   -358.28493925 </i>
   </energy>
  </scstep>
  <scstep>
   <time name="dav">    1.54    1.56</time>
   <time name="total">    1.55    1.60</time>
   <energy>
    <i name="e_fr_energy">   -386.53209112 </i>
    <i name="e_wo_entrp">   -386.53430149 </i>
    <i name="e_0_energy">   -386.53282791 </i>
   </energy>
  </scstep>
  <scstep>
   <time name="dav">    1.41    1.41</time>
   <time name="total">    1.44    1.47</time>
   <energy>
    <i name="e_fr_energy">   -389.31190519 </i>
    <i name="e_wo_entrp">   -389.31476991 </i>
    <i name="e_0_energy">   -389.31286009 </i>
   </energy>
  </scstep>
  <scstep>
   <time name="diag">    0.07    0.07</time>
   <time name="diis">    0.72    0.72</time>
   <time name="orth">    0.01    0.01</time>
   <time name="total">    0.87    0.89</time>
   <energy>
    <i name="e_fr_energy">   -378.36070635 </i>
    <i name="e_wo_entrp">   -378.37349215 </i>
    <i name="e_0_energy">   -378.36496828 </i>
   </energy>
  </scstep>
  <scstep>
   <time name="diag">    0.07    0.07</time>
   <time name="diis">    0.73    0.73</time>
   <time name="orth">    0.01    0.01</time>
   <time name="total">    0.88    0.92</time>
   <energy>
    <i name="e_fr_energy">   -377.83456440 </i>
    <i name="e_wo_entrp">   -377.82615228 </i>
    <i name="e_0_energy">   -377.83176036 </i>
   </energy>
  </scstep>
  <scstep>
   <time name="diag">    0.09    0.10</time>
   <time name="diis">    0.78    0.78</time>
   <time name="orth">    0.01    0.01</time>
   <time name="total">    0.95    0.97</time>
   <energy>
    <i name="e_fr_energy">   -373.93503241 </i>
    <i name="e_wo_entrp">   -373.94632164 </i>
    <i name="e_0_energy">   -373.93879549 </i>
   </energy>
  </scstep>
  <scstep>
   <time name="diag">    0.08    0.08</time>
   <time name="diis">    0.77    0.78</time>
   <time name="orth">    0.01    0.01</time>
   <time name="total">    0.92    0.96</time>
   <energy>
    <i name="e_fr_energy">   -373.82631357 </i>
    <i name="e_wo_entrp">   -373.83881704 </i>
    <i name="e_0_energy">   -373.83048139 </i>
   </energy>
  </scstep>
  <scstep>
   <time name="diag">    0.07    0.07</time>
   <time name="diis">    0.77    0.77</time>
   <time name="orth">    0.02    0.02</time>
   <time name="total">    0.92    0.94</time>
   <energy>
    <i name="e_fr_energy">   -373.77662273 </i>
    <i name="e_wo_entrp">   -373.79176807 </i>
    <i name="e_0_energy">   -373.78167118 </i>
   </energy>
  </scstep>
  <scstep>
   <time name="diag">    0.07    0.07</time>
   <time name="diis">    0.77    0.78</time>
   <time name="orth">    0.01    0.01</time>
   <time name="total">    0.92    0.94</time>
   <energy>
    <i name="e_fr_energy">   -373.75102573 </i>
    <i name="e_wo_entrp">   -373.76315568 </i>
    <i name="e_0_energy">   -373.75506904 </i>
   </energy>
  </scstep>
  <scstep>
   <time name="diag">    0.07    0.07</time>
   <time name="diis">    0.90    0.91</time>
   <time name="orth">    0.01    0.01</time>
   <time name="total">    1.07    1.09</time>
   <energy>
    <i name="e_fr_energy">   -373.74874878 </i>
    <i name="e_wo_entrp">   -373.76108816 </i>
    <i name="e_0_energy">   -373.75286191 </i>
   </energy>
  </scstep>
  <scstep>
   <time name="diag">    0.12    0.12</time>
   <time name="diis">    0.81    0.92</time>
   <time name="orth">    0.01    0.01</time>
   <time name="total">    1.02    1.17</time>
   <energy>
    <i name="e_fr_energy">   -373.74774629 </i>
    <i name="e_wo_entrp">   -373.76031526 </i>
    <i name="e_0_energy">   -373.75193595 </i>
   </energy>
  </scstep>
  <scstep>
   <time name="diag">    0.08    0.09</time>
   <time name="diis">    0.79    0.80</time>
   <time name="orth">    0.01    0.01</time>
   <time name="total">    0.95    0.99</time>
   <energy>
    <i name="e_fr_energy">   -373.74782402 </i>
    <i name="e_wo_entrp">   -373.76038403 </i>
    <i name="e_0_energy">   -373.75201069 </i>
   </energy>
  </scstep>
  <scstep>
   <time name="diag">    0.13    0.13</time>
   <time name="diis">    0.82    0.83</time>
   <time name="orth">    0.01    0.01</time>
   <time name="total">    1.16    1.19</time>
   <energy>
    <i name="e_fr_energy">   -373.74802509 </i>
    <i name="e_wo_entrp">   -373.76060679 </i>
    <i name="e_0_energy">   -373.75221899 </i>
   </energy>
  </scstep>
  <scstep>
   <time name="diag">    0.09    0.09</time>
   <time name="diis">    0.72    0.73</time>
   <time name="orth">    0.01    0.01</time>
   <time name="total">    0.90    0.95</time>
   <energy>
    <i name="e_fr_energy">   -373.74806136 </i>
    <i name="e_wo_entrp">   -373.76065890 </i>
    <i name="e_0_energy">   -373.75226054 </i>
   </energy>
  </scstep>
  <scstep>
   <time name="diag">    0.07    0.09</time>
   <time name="diis">    0.62    0.63</time>
   <time name="orth">    0.01    0.01</time>
   <time name="total">    0.78    0.89</time>
   <energy>
    <i name="e_fr_energy">   -373.74808436 </i>
    <i name="e_wo_entrp">   -373.76069967 </i>
    <i name="e_0_energy">   -373.75228946 </i>
   </energy>
  </scstep>
  <scstep>
   <time name="diag">    0.07    0.07</time>
   <time name="diis">    0.56    0.56</time>
   <time name="orth">    0.01    0.01</time>
   <time name="total">    0.71    0.77</time>
   <energy>
    <i name="e_fr_energy">   -373.74809367 </i>
    <i name="e_wo_entrp">   -373.76069726 </i>
    <i name="e_0_energy">   -373.75229487 </i>
   </energy>
  </scstep>
  <scstep>
   <time name="diag">    0.08    0.08</time>
   <time name="diis">    0.46    0.46</time>
   <time name="orth">    0.01    0.01</time>
   <time name="total">    0.62    0.64</time>
   <energy>
    <i name="e_fr_energy">   -373.74809954 </i>
    <i name="e_wo_entrp">   -373.76070245 </i>
    <i name="e_0_energy">   -373.75230051 </i>
   </energy>
  </scstep>
  <scstep>
   <time name="diag">    0.07    0.07</time>
   <time name="diis">    0.39    0.47</time>
   <time name="orth">    0.01    0.01</time>
   <time name="total">    0.51    0.61</time>
   <energy>
    <i name="alphaZ">   1534.24243837 </i>
    <i name="ewald"> -18823.71532935 </i>
    <i name="hartreedc">  -5834.28077263 </i>
    <i name="XCdc">   -498.30793614 </i>
    <i name="pawpsdc">  32971.94510510 </i>
    <i name="pawaedc"> -31223.11372770 </i>
    <i name="eentropy">      0.01260716 </i>
    <i name="bandstr">  -2290.94931656 </i>
    <i name="atom">  23790.41883159 </i>
    <i name="e_fr_energy">   -373.74810017 </i>
    <i name="e_wo_entrp">   -373.76070733 </i>
    <i name="e_0_energy">   -373.75230256 </i>
   </energy>
  </scstep>
  <structure>
   <crystal>
    <varray name="basis" >
     <v>       6.89223818      -0.01133344      -0.00431988 </v>
     <v>      -0.01628184      10.12293212      -0.00266376 </v>
     <v>      -0.00635012      -0.00282837      10.21391391 </v>
    </varray>
    <i name="volume">    712.61907859 </i>
    <varray name="rec_basis" >
     <v>       0.14509119       0.00023339       0.00009027 </v>
     <v>       0.00016246       0.09878588       0.00002746 </v>
     <v>       0.00006141       0.00002586       0.09790571 </v>
    </varray>
   </crystal>
   <varray name="positions" >
    <v>       0.23731300       0.84095600       0.50069800 </v>
    <v>       0.76504500       0.84216200       0.49900700 </v>
    <v>       0.23859400       0.49802800       0.17539700 </v>
    <v>       0.99269700       0.66913000       0.00503500 </v>
    <v>       0.22703100       0.83648500       0.17399100 </v>
    <v>       0.76169200       0.49387600       0.49485400 </v>
    <v>       0.77222100       0.83478600       0.17237600 </v>
    <v>       0.99854300       0.99167200       0.00443800 </v>
    <v>       0.76395800       0.50454100       0.83309000 </v>
    <v>       0.99617400       0.66563400       0.33159500 </v>
    <v>       0.25963700       0.15634100       0.49413300 </v>
    <v>       0.24364600       0.14225700       0.82541200 </v>
    <v>       0.50696900       0.99454500       0.66795100 </v>
    <v>       0.48244300       0.34629600       0.35253400 </v>
    <v>       0.75179600       0.16779100       0.17277600 </v>
    <v>       0.24004500       0.83376300       0.82597400 </v>
    <v>       0.75522100       0.48782900       0.17095500 </v>
    <v>       0.50170600       0.66664000       0.33534700 </v>
    <v>       0.02720400       0.33682700       0.98632900 </v>
    <v>       0.50166200       0.66957400       0.00104800 </v>
    <v>       0.47710300       0.34022800       0.98368600 </v>
    <v>       0.75993600       0.83614400       0.82777300 </v>
    <v>       0.23615900       0.50599500       0.49502100 </v>
    <v>       0.50372200       0.98673200       0.32788100 </v>
    <v>       0.99786700       0.99404400       0.33036100 </v>
    <v>       0.99690700       0.00720900       0.66472500 </v>
    <v>       0.98190000       0.66197800       0.66345900 </v>
    <v>       0.01806100       0.34116500       0.34771100 </v>
    <v>       0.22822000       0.52857000       0.82848600 </v>
    <v>       0.48861300       0.33983000       0.66653300 </v>
    <v>       0.50314000       0.98893000       0.00445700 </v>
    <v>       0.74360300       0.16406900       0.49510800 </v>
    <v>       0.25231600       0.16607800       0.18026900 </v>
    <v>       0.01563600       0.33246200       0.66542500 </v>
    <v>       0.75743200       0.16062100       0.83339800 </v>
    <v>       0.51578500       0.66682000       0.66276400 </v>
   </varray>
  </structure>
  <varray name="forces" >
   <v>      -0.09010327       0.15791217      -0.06032044 </v>
   <v>       0.01866437       0.03032733      -0.02133054 </v>
   <v>      -0.01681278       0.00130811      -0.00306978 </v>
   <v>       0.01231534       0.01155400      -0.00352985 </v>
   <v>      -0.01537416      -0.00251965      -0.01654651 </v>
   <v>      -0.02147134      -0.02096258      -0.01420426 </v>
   <v>      -0.02332123      -0.00969228      -0.00760782 </v>
   <v>       0.05322853       0.00119103       0.01104662 </v>
   <v>      -0.00523346      -0.03977932       0.02568667 </v>
   <v>       0.26009543       0.26197693       0.27845011 </v>
   <v>       0.05169498      -0.00499773      -0.05339413 </v>
   <v>      -0.00594533       0.05396610       0.01313922 </v>
   <v>      -0.34399983      -0.20222502      -0.31678370 </v>
   <v>      -0.04228283       0.00010140       0.03904910 </v>
   <v>      -0.00069186       0.00721311      -0.00605127 </v>
   <v>      -0.01792047      -0.02050299      -0.12327242 </v>
   <v>      -0.00166400       0.00436797       0.00713659 </v>
   <v>      -0.20091532       0.15469512       0.16936437 </v>
   <v>       0.00644084      -0.00800494      -0.01791751 </v>
   <v>      -0.02649057      -0.00433521       0.00029899 </v>
   <v>      -0.01074550       0.00867637      -0.00956804 </v>
   <v>      -0.01106232       0.02056346       0.02517590 </v>
   <v>       0.03657838      -0.02272027      -0.01724153 </v>
   <v>      -0.30931291      -0.14287944       0.32223773 </v>
   <v>       0.32884591      -0.25676130       0.33993602 </v>
   <v>       0.31308222      -0.42793623      -0.25524175 </v>
   <v>       0.35504348       0.27820201      -0.20078592 </v>
   <v>       0.05117177      -0.01274998       0.05036504 </v>
   <v>      -0.02816432      -0.04600062       0.04809796 </v>
   <v>      -0.03820864       0.00260082      -0.01717448 </v>
   <v>      -0.01709819      -0.02485497      -0.00744740 </v>
   <v>      -0.01310210       0.03722899      -0.01711873 </v>
   <v>       0.01155204       0.00336467       0.00601599 </v>
   <v>       0.02731506       0.02073385      -0.00111920 </v>
   <v>       0.01240125       0.00558104       0.01192174 </v>
   <v>      -0.29850917       0.18535807      -0.17819675 </v>
  </varray>
  <varray name="stress" >
   <v>      -9.70337018       0.40192885      -0.64984676 </v>
   <v>       0.40192886      -6.53114876      -0.60509437 </v>
   <v>      -0.64984683      -0.60509438      -7.63559649 </v>
  </varray>
  <energy>
   <i name="e_fr_energy">   -373.74810017 </i>
   <i name="e_wo_entrp">   -373.75230256 </i>
   <i name="e_0_energy">      0.01260716 </i>
  </energy>
  <time name="totalsc">   21.52   22.63</time>
 </calculation>
 <calculation>
  <scstep>
   <time name="dav">    1.15    1.17</time>
   <time name="total">    1.30    1.40</time>
   <energy>
    <i name="alphaZ">   1540.80984427 </i>
    <i name="ewald"> -18848.78794977 </i>
    <i name="hartreedc">  -5844.34641537 </i>
    <i name="XCdc">   -497.16395867 </i>
    <i name="pawpsdc">  32971.97922707 </i>
    <i name="pawaedc"> -31223.14605120 </i>
    <i name="eentropy">      0.01387875 </i>
    <i name="bandstr">  -2263.58847584 </i>
    <i name="atom">  23790.41883159 </i>
    <i name="e_fr_energy">   -373.81106917 </i>
    <i name="e_wo_entrp">   -373.82494793 </i>
    <i name="e_0_energy">   -373.81569542 </i>
   </energy>
  </scstep>
  <scstep>
   <time name="diag">    0.13    0.13</time>
   <time name="diis">    0.75    0.76</time>
   <time name="orth">    0.01    0.01</time>
   <time name="total">    1.12    1.15</time>
   <energy>
    <i name="e_fr_energy">   -373.79647709 </i>
    <i name="e_wo_entrp">   -373.80942938 </i>
    <i name="e_0_energy">   -373.80079452 </i>
   </energy>
  </scstep>
  <scstep>
   <time name="diag">    0.07    0.08</time>
   <time name="diis">    0.78    0.78</time>
   <time name="orth">    0.01    0.01</time>
   <time name="total">    0.95    0.98</time>
   <energy>
    <i name="e_fr_energy">   -373.78756641 </i>
    <i name="e_wo_entrp">   -373.80097294 </i>
    <i name="e_0_energy">   -373.79203525 </i>
   </energy>
  </scstep>
  <scstep>
   <time name="diag">    0.12    0.12</time>
   <time name="diis">    0.78    0.79</time>
   <time name="orth">    0.01    0.01</time>
   <time name="total">    0.98    1.01</time>
   <energy>
    <i name="e_fr_energy">   -373.78383636 </i>
    <i name="e_wo_entrp">   -373.79713117 </i>
    <i name="e_0_energy">   -373.78826796 </i>
   </energy>
  </scstep>
  <scstep>
   <time name="diag">    0.07    0.07</time>
   <time name="diis">    0.77    0.78</time>
   <time name="orth">    0.01    0.01</time>
   <time name="total">    0.94    0.96</time>
   <energy>
    <i name="e_fr_energy">   -373.78323687 </i>
    <i name="e_wo_entrp">   -373.79641052 </i>
    <i name="e_0_energy">   -373.78762808 </i>
   </energy>
  </scstep>
  <scstep>
   <time name="diag">    0.07    0.07</time>
   <time name="diis">    0.84    0.85</time>
   <time name="orth">    0.01    0.01</time>
   <time name="total">    0.99    1.02</time>
   <energy>
    <i name="e_fr_energy">   -373.78331053 </i>
    <i name="e_wo_entrp">   -373.79659574 </i>
    <i name="e_0_energy">   -373.78773893 </i>
   </energy>
  </scstep>
  <scstep>
   <time name="diag">    0.07    0.07</time>
   <time name="diis">    0.76    0.77</time>
   <time name="orth">    0.01    0.01</time>
   <time name="total">    0.91    0.94</time>
   <energy>
    <i name="e_fr_energy">   -373.78339355 </i>
    <i name="e_wo_entrp">   -373.79661145 </i>
    <i name="e_0_energy">   -373.78779952 </i>
   </energy>
  </scstep>
  <scstep>
   <time name="diag">    0.07    0.07</time>
   <time name="diis">    0.69    0.70</time>
   <time name="orth">    0.01    0.01</time>
   <time name="total">    0.84    0.86</time>
   <energy>
    <i name="e_fr_energy">   -373.78346430 </i>
    <i name="e_wo_entrp">   -373.79671921 </i>
    <i name="e_0_energy">   -373.78788261 </i>
   </energy>
  </scstep>
  <scstep>
   <time name="diag">    0.07    0.07</time>
   <time name="diis">    0.59    0.60</time>
   <time name="orth">    0.01    0.01</time>
   <time name="total">    0.74    0.78</time>
   <energy>
    <i name="e_fr_energy">   -373.78350576 </i>
    <i name="e_wo_entrp">   -373.79675515 </i>
    <i name="e_0_energy">   -373.78792222 </i>
   </energy>
  </scstep>
  <scstep>
   <time name="diag">    0.07    0.07</time>
   <time name="diis">    0.51    0.52</time>
   <time name="orth">    0.01    0.01</time>
   <time name="total">    0.67    0.69</time>
   <energy>
    <i name="e_fr_energy">   -373.78354248 </i>
    <i name="e_wo_entrp">   -373.79679238 </i>
    <i name="e_0_energy">   -373.78795911 </i>
   </energy>
  </scstep>
  <scstep>
   <time name="diag">    0.07    0.07</time>
   <time name="diis">    0.50    0.51</time>
   <time name="orth">    0.02    0.02</time>
   <time name="total">    0.68    0.70</time>
   <energy>
    <i name="e_fr_energy">   -373.78356330 </i>
    <i name="e_wo_entrp">   -373.79681337 </i>
    <i name="e_0_energy">   -373.78797999 </i>
   </energy>
  </scstep>
  <scstep>
   <time name="diag">    0.10    0.11</time>
   <time name="diis">    0.42    0.42</time>
   <time name="orth">    0.01    0.01</time>
   <time name="total">    0.56    0.62</time>
   <energy>
    <i name="alphaZ">   1540.80984427 </i>
    <i name="ewald"> -18848.78794977 </i>
    <i name="hartreedc">  -5828.59556145 </i>
    <i name="XCdc">   -497.81579260 </i>
    <i name="pawpsdc">  33157.72784506 </i>
    <i name="pawaedc"> -31408.65703460 </i>
    <i name="eentropy">      0.01324802 </i>
    <i name="bandstr">  -2278.89699859 </i>
    <i name="atom">  23790.41883159 </i>
    <i name="e_fr_energy">   -373.78356807 </i>
    <i name="e_wo_entrp">   -373.79681609 </i>
    <i name="e_0_energy">   -373.78798408 </i>
   </energy>
  </scstep>
  <structure>
   <crystal>
    <varray name="basis" >
     <v>       6.88027929      -0.01082439      -0.00511363 </v>
     <v>      -0.01552575      10.11110919      -0.00375351 </v>
     <v>      -0.00752617      -0.00393065      10.19996952 </v>
    </varray>
    <i name="volume">    709.58167669 </i>
    <varray name="rec_basis" >
     <v>       0.14534337       0.00022322       0.00010733 </v>
     <v>       0.00015562       0.09890137       0.00003823 </v>
     <v>       0.00007292       0.00003651       0.09803958 </v>
    </varray>
   </crystal>
   <varray name="positions" >
    <v>       0.23712425       0.84118153       0.50061251 </v>
    <v>       0.76508427       0.84220539       0.49897680 </v>
    <v>       0.23855870       0.49802983       0.17539264 </v>
    <v>       0.99272290       0.66914655       0.00503001 </v>
    <v>       0.22699869       0.83648135       0.17396754 </v>
    <v>       0.76164682       0.49384597       0.49483385 </v>
    <v>       0.77217199       0.83477209       0.17236520 </v>
    <v>       0.99865479       0.99167383       0.00445370 </v>
    <v>       0.76394691       0.50448413       0.83312638 </v>
    <v>       0.99672142       0.66600927       0.33198988 </v>
    <v>       0.25974547       0.15633396       0.49405739 </v>
    <v>       0.24363372       0.14233415       0.82543063 </v>
    <v>       0.50624555       0.99425494       0.66750175 </v>
    <v>       0.48235426       0.34629606       0.35258929 </v>
    <v>       0.75179456       0.16780131       0.17276743 </v>
    <v>       0.24000714       0.83373360       0.82579930 </v>
    <v>       0.75521753       0.48783524       0.17096511 </v>
    <v>       0.50128485       0.66686076       0.33558686 </v>
    <v>       0.02721747       0.33681556       0.98630361 </v>
    <v>       0.50160636       0.66956774       0.00104840 </v>
    <v>       0.47708045       0.34024038       0.98367244 </v>
    <v>       0.75991287       0.83617338       0.82780867 </v>
    <v>       0.23623571       0.50596260       0.49499659 </v>
    <v>       0.50307242       0.98652712       0.32833727 </v>
    <v>       0.99855711       0.99367781       0.33084288 </v>
    <v>       0.99756265       0.00659781       0.66436345 </v>
    <v>       0.98264622       0.66237650       0.66317491 </v>
    <v>       0.01816848       0.34114691       0.34778241 </v>
    <v>       0.22816077       0.52850419       0.82855411 </v>
    <v>       0.48853275       0.33983362       0.66650863 </v>
    <v>       0.50310400       0.98889442       0.00444642 </v>
    <v>       0.74357559       0.16412219       0.49508375 </v>
    <v>       0.25234028       0.16608284       0.18027754 </v>
    <v>       0.01569343       0.33249171       0.66542345 </v>
    <v>       0.75745808       0.16062901       0.83341491 </v>
    <v>       0.51515856       0.66708424       0.66251130 </v>
   </varray>
  </structure>
  <varray name="forces" >
   <v>      -0.06395988       0.12250744      -0.04119974 </v>
   <v>       0.00137853       0.01917727      -0.00889069 </v>
   <v>      -0.00876799       0.01250524      -0.00834175 </v>
   <v>       0.00637782       0.00621306      -0.00584092 </v>
   <v>       0.01415777      -0.01363056      -0.02203510 </v>
   <v>      -0.02632327      -0.00676712      -0.00517335 </v>
   <v>      -0.04363877      -0.01457841      -0.00113423 </v>
   <v>       0.03856698       0.01850416       0.00556569 </v>
   <v>      -0.01605764      -0.02707022       0.01056994 </v>
   <v>       0.22274009       0.21559495       0.24186068 </v>
   <v>       0.04355898      -0.00206727      -0.03591905 </v>
   <v>      -0.00064129       0.05245853       0.00964444 </v>
   <v>      -0.29800795      -0.16989333      -0.29286712 </v>
   <v>      -0.01661420      -0.00483668       0.01389906 </v>
   <v>       0.00129423      -0.00020965       0.00341292 </v>
   <v>      -0.01319712      -0.02716572      -0.10142379 </v>
   <v>      -0.00672863       0.01620102       0.01430717 </v>
   <v>      -0.17487915       0.13394810       0.14212721 </v>
   <v>      -0.00729288      -0.01834039      -0.00720640 </v>
   <v>      -0.02073806      -0.00643361       0.00372112 </v>
   <v>       0.00216768       0.00166192      -0.00470873 </v>
   <v>      -0.01581689       0.00826061       0.01593730 </v>
   <v>       0.04308103      -0.01263441       0.00364226 </v>
   <v>      -0.26558770      -0.11088256       0.28951461 </v>
   <v>       0.27879788      -0.19509287       0.29273769 </v>
   <v>       0.26647064      -0.37550885      -0.22085465 </v>
   <v>       0.32003780       0.24301674      -0.17679464 </v>
   <v>       0.02495170      -0.01909385       0.02708003 </v>
   <v>      -0.01162624      -0.04687602       0.04309760 </v>
   <v>      -0.02153814       0.00366063      -0.00178970 </v>
   <v>      -0.01011507      -0.01710575      -0.00880078 </v>
   <v>      -0.00726299       0.02862950      -0.01342972 </v>
   <v>       0.01248428       0.00320068      -0.00359337 </v>
   <v>       0.01212621       0.02271696       0.00638566 </v>
   <v>       0.01225722      -0.00328881      -0.00223541 </v>
   <v>      -0.27165497       0.16321924      -0.16126422 </v>
  </varray>
  <varray name="stress" >
   <v>      -3.20047207       0.36239205      -0.48079377 </v>
   <v>       0.36239211      -0.31840882      -0.53628604 </v>
   <v>      -0.48079381      -0.53628604      -1.39820776 </v>
  </varray>
  <energy>
   <i name="e_fr_energy">   -373.78356807 </i>
   <i name="e_wo_entrp">   -373.78798408 </i>
   <i name="e_0_energy">      0.01324802 </i>
  </energy>
  <time name="totalsc">   12.36   12.83</time>
 </calculation>
 <calculation>
  <scstep>
   <time name="dav">    1.06    1.08</time>
   <time name="total">    1.22    1.31</time>
   <energy>
    <i name="alphaZ">   1552.25200568 </i>
    <i name="ewald"> -18891.84108782 </i>
    <i name="hartreedc">  -5846.46095670 </i>
    <i name="XCdc">   -495.82941435 </i>
    <i name="pawpsdc">  33157.91127793 </i>
    <i name="pawaedc"> -31408.82499832 </i>
    <i name="eentropy">      0.01532651 </i>
    <i name="bandstr">  -2231.52920729 </i>
    <i name="atom">  23790.41883159 </i>
    <i name="e_fr_energy">   -373.88822276 </i>
    <i name="e_wo_entrp">   -373.90354928 </i>
    <i name="e_0_energy">   -373.89333160 </i>
   </energy>
  </scstep>
  <scstep>
   <time name="diag">    0.08    0.08</time>
   <time name="diis">    0.72    0.73</time>
   <time name="orth">    0.01    0.01</time>
   <time name="total">    0.88    0.91</time>
   <energy>
    <i name="e_fr_energy">   -373.84521835 </i>
    <i name="e_wo_entrp">   -373.85885290 </i>
    <i name="e_0_energy">   -373.84976320 </i>
   </energy>
  </scstep>
  <scstep>
   <time name="diag">    0.07    0.08</time>
   <time name="diis">    0.77    0.77</time>
   <time name="orth">    0.01    0.01</time>
   <time name="total">    0.91    0.94</time>
   <energy>
    <i name="e_fr_energy">   -373.81889286 </i>
    <i name="e_wo_entrp">   -373.83349425 </i>
    <i name="e_0_energy">   -373.82375999 </i>
   </energy>
  </scstep>
  <scstep>
   <time name="diag">    0.07    0.08</time>
   <time name="diis">    0.79    0.80</time>
   <time name="orth">    0.01    0.01</time>
   <time name="total">    0.95    0.97</time>
   <energy>
    <i name="e_fr_energy">   -373.80757832 </i>
    <i name="e_wo_entrp">   -373.82185047 </i>
    <i name="e_0_energy">   -373.81233570 </i>
   </energy>
  </scstep>
  <scstep>
   <time name="diag">    0.08    0.08</time>
   <time name="diis">    0.78    0.79</time>
   <time name="orth">    0.01    0.01</time>
   <time name="total">    0.93    0.96</time>
   <energy>
    <i name="e_fr_energy">   -373.80592898 </i>
    <i name="e_wo_entrp">   -373.82003808 </i>
    <i name="e_0_energy">   -373.81063202 </i>
   </energy>
  </scstep>
  <scstep>
   <time name="diag">    0.07    0.07</time>
   <time name="diis">    0.81    0.82</time>
   <time name="orth">    0.01    0.01</time>
   <time name="total">    0.96    0.99</time>
   <energy>
    <i name="e_fr_energy">   -373.80601008 </i>
    <i name="e_wo_entrp">   -373.82031976 </i>
    <i name="e_0_energy">   -373.81077998 </i>
   </energy>
  </scstep>
  <scstep>
   <time name="diag">    0.07    0.07</time>
   <time name="diis">    0.82    0.83</time>
   <time name="orth">    0.01    0.01</time>
   <time name="total">    0.98    1.00</time>
   <energy>
    <i name="e_fr_energy">   -373.80620274 </i>
    <i name="e_wo_entrp">   -373.82038702 </i>
    <i name="e_0_energy">   -373.81093083 </i>
   </energy>
  </scstep>
  <scstep>
   <time name="diag">    0.07    0.07</time>
   <time name="diis">    0.90    0.91</time>
   <time name="orth">    0.01    0.01</time>
   <time name="total">    1.05    1.08</time>
   <energy>
    <i name="e_fr_energy">   -373.80638706 </i>
    <i name="e_wo_entrp">   -373.82063875 </i>
    <i name="e_0_energy">   -373.81113763 </i>
   </energy>
  </scstep>
  <scstep>
   <time name="diag">    0.07    0.08</time>
   <time name="diis">    0.82    0.82</time>
   <time name="orth">    0.01    0.01</time>
   <time name="total">    0.97    1.00</time>
   <energy>
    <i name="e_fr_energy">   -373.80647902 </i>
    <i name="e_wo_entrp">   -373.82071848 </i>
    <i name="e_0_energy">   -373.81122550 </i>
   </energy>
  </scstep>
  <scstep>
   <time name="diag">    0.07    0.08</time>
   <time name="diis">    0.65    0.65</time>
   <time name="orth">    0.01    0.01</time>
   <time name="total">    0.81    0.84</time>
   <energy>
    <i name="e_fr_energy">   -373.80657352 </i>
    <i name="e_wo_entrp">   -373.82081399 </i>
    <i name="e_0_energy">   -373.81132034 </i>
   </energy>
  </scstep>
  <scstep>
   <time name="diag">    0.07    0.08</time>
   <time name="diis">    0.56    0.57</time>
   <time name="orth">    0.01    0.01</time>
   <time name="total">    0.73    0.75</time>
   <energy>
    <i name="e_fr_energy">   -373.80662278 </i>
    <i name="e_wo_entrp">   -373.82086435 </i>
    <i name="e_0_energy">   -373.81136997 </i>
   </energy>
  </scstep>
  <scstep>
   <time name="diag">    0.11    0.11</time>
   <time name="diis">    0.52    0.52</time>
   <time name="orth">    0.01    0.01</time>
   <time name="total">    0.71    0.74</time>
   <energy>
    <i name="e_fr_energy">   -373.80663607 </i>
    <i name="e_wo_entrp">   -373.82087514 </i>
    <i name="e_0_energy">   -373.81138243 </i>
   </energy>
  </scstep>
  <scstep>
   <time name="diag">    0.22    0.22</time>
   <time name="diis">    0.46    0.46</time>
   <time name="orth">    0.01    0.01</time>
   <time name="total">    0.73    0.76</time>
   <energy>
    <i name="alphaZ">   1552.25200568 </i>
    <i name="ewald"> -18891.84108782 </i>
    <i name="hartreedc">  -5819.35606063 </i>
    <i name="XCdc">   -496.95186780 </i>
    <i name="pawpsdc">  33489.59578596 </i>
    <i name="pawaedc"> -31739.97905650 </i>
    <i name="eentropy">      0.01424149 </i>
    <i name="bandstr">  -2257.95943010 </i>
    <i name="atom">  23790.41883159 </i>
    <i name="e_fr_energy">   -373.80663813 </i>
    <i name="e_wo_entrp">   -373.82087962 </i>
    <i name="e_0_energy">   -373.81138529 </i>
   </energy>
  </scstep>
  <structure>
   <crystal>
    <varray name="basis" >
     <v>       6.85960673      -0.00994444      -0.00648575 </v>
     <v>      -0.01421874      10.09067167      -0.00563730 </v>
     <v>      -0.00955912      -0.00583609      10.17586477 </v>
    </varray>
    <i name="volume">    704.35111616 </i>
    <varray name="rec_basis" >
     <v>       0.14578138       0.00020550       0.00013706 </v>
     <v>       0.00014372       0.09910167       0.00005697 </v>
     <v>       0.00009300       0.00005503       0.09827187 </v>
    </varray>
   </crystal>
   <varray name="positions" >
    <v>       0.23679733       0.84157185       0.50046453 </v>
    <v>       0.76515225       0.84228049       0.49892455 </v>
    <v>       0.23849756       0.49803300       0.17538508 </v>
    <v>       0.99276773       0.66917518       0.00502139 </v>
    <v>       0.22694272       0.83647504       0.17392692 </v>
    <v>       0.76156859       0.49379401       0.49479895 </v>
    <v>       0.77208711       0.83474801       0.17234648 </v>
    <v>       0.99884838       0.99167700       0.00448089 </v>
    <v>       0.76392773       0.50438570       0.83318934 </v>
    <v>       0.99766939       0.66665877       0.33267357 </v>
    <v>       0.25993327       0.15632174       0.49392651 </v>
    <v>       0.24361243       0.14246767       0.82546290 </v>
    <v>       0.50499271       0.99375293       0.66672394 </v>
    <v>       0.48220062       0.34629618       0.35268500 </v>
    <v>       0.75179207       0.16781915       0.17275259 </v>
    <v>       0.23994153       0.83368268       0.82549689 </v>
    <v>       0.75521152       0.48784605       0.17098262 </v>
    <v>       0.50055559       0.66724291       0.33600205 </v>
    <v>       0.02724080       0.33679576       0.98625967 </v>
    <v>       0.50151001       0.66955691       0.00104908 </v>
    <v>       0.47704140       0.34026179       0.98364896 </v>
    <v>       0.75987283       0.83622425       0.82787042 </v>
    <v>       0.23636854       0.50590650       0.49495435 </v>
    <v>       0.50194776       0.98617270       0.32912695 </v>
    <v>       0.99975235       0.99304411       0.33167703 </v>
    <v>       0.99869802       0.00553993       0.66373758 </v>
    <v>       0.98393826       0.66306606       0.66268333 </v>
    <v>       0.01835461       0.34111561       0.34790602 </v>
    <v>       0.22805823       0.52839030       0.82867199 </v>
    <v>       0.48839379       0.33983989       0.66646644 </v>
    <v>       0.50304167       0.98883285       0.00442810 </v>
    <v>       0.74352811       0.16421424       0.49504177 </v>
    <v>       0.25238232       0.16609122       0.18029232 </v>
    <v>       0.01579286       0.33254311       0.66542077 </v>
    <v>       0.75750323       0.16064288       0.83344417 </v>
    <v>       0.51407367       0.66754154       0.66207385 </v>
   </varray>
  </structure>
  <varray name="forces" >
   <v>      -0.01384452       0.05530051      -0.00688566 </v>
   <v>      -0.03135352      -0.00084102       0.01395206 </v>
   <v>       0.00439442       0.03211630      -0.01821133 </v>
   <v>      -0.00445328      -0.00285291      -0.01052017 </v>
   <v>       0.06674803      -0.03348959      -0.03469700 </v>
   <v>      -0.03475190       0.01839764       0.01049040 </v>
   <v>      -0.08024496      -0.02307707       0.00900569 </v>
   <v>       0.01262230       0.04894725      -0.00470328 </v>
   <v>      -0.03467518      -0.00491050      -0.01484795 </v>
   <v>       0.15542704       0.13267958       0.17624236 </v>
   <v>       0.02921710       0.00629622      -0.00386715 </v>
   <v>       0.00956650       0.04973996       0.00361359 </v>
   <v>      -0.21504151      -0.11118646      -0.24954332 </v>
   <v>       0.02912319      -0.01456573      -0.03107609 </v>
   <v>       0.00472533      -0.01375403       0.02046340 </v>
   <v>      -0.00359771      -0.03868600      -0.05941060 </v>
   <v>      -0.01469348       0.03670099       0.02686484 </v>
   <v>      -0.12800035       0.09712056       0.09453636 </v>
   <v>      -0.03158797      -0.03590577       0.01140963 </v>
   <v>      -0.00999228      -0.00975930       0.00896929 </v>
   <v>       0.02499566      -0.01028249       0.00312892 </v>
   <v>      -0.02453798      -0.01305395       0.00061121 </v>
   <v>       0.05473066       0.00266827       0.04110877 </v>
   <v>      -0.18520292      -0.05361531       0.23049192 </v>
   <v>       0.18811481      -0.08415775       0.20873505 </v>
   <v>       0.18248423      -0.27970642      -0.15983354 </v>
   <v>       0.25528974       0.17931991      -0.13517903 </v>
   <v>      -0.02066925      -0.03044387      -0.01289513 </v>
   <v>       0.01589371      -0.04844709       0.03425469 </v>
   <v>       0.00812153       0.00560010       0.02517565 </v>
   <v>       0.00187952      -0.00366372      -0.01135360 </v>
   <v>       0.00160039       0.01330372      -0.00669122 </v>
   <v>       0.01428684       0.00345226      -0.02036352 </v>
   <v>      -0.01521341       0.02518499       0.01890028 </v>
   <v>       0.01166743      -0.01869388      -0.02755097 </v>
   <v>      -0.22302821       0.12426461      -0.13032456 </v>
  </varray>
  <varray name="stress" >
   <v>       8.42900647       0.30776331      -0.18155338 </v>
   <v>       0.30776331      10.80732007      -0.40841320 </v>
   <v>      -0.18155339      -0.40841322       9.74324272 </v>
  </varray>
  <energy>
   <i name="e_fr_energy">   -373.80663813 </i>
   <i name="e_wo_entrp">   -373.81138529 </i>
   <i name="e_0_energy">      0.01424149 </i>
  </energy>
  <time name="totalsc">   13.41   14.06</time>
 </calculation>
 <calculation>
  <scstep>
   <time name="dav">    0.90    0.90</time>
   <time name="total">    1.06    1.17</time>
   <energy>
    <i name="alphaZ">   1549.58881080 </i>
    <i name="ewald"> -18878.16367409 </i>
    <i name="hartreedc">  -5818.91204724 </i>
    <i name="XCdc">   -497.40842499 </i>
    <i name="pawpsdc">  33489.92782996 </i>
    <i name="pawaedc"> -31740.29539390 </i>
    <i name="eentropy">      0.01451123 </i>
    <i name="bandstr">  -2268.99896574 </i>
    <i name="atom">  23790.41883159 </i>
    <i name="e_fr_energy">   -373.82852238 </i>
    <i name="e_wo_entrp">   -373.84303361 </i>
    <i name="e_0_energy">   -373.83335946 </i>
   </energy>
  </scstep>
  <scstep>
   <time name="diag">    0.10    0.12</time>
   <time name="diis">    0.71    0.72</time>
   <time name="orth">    0.01    0.01</time>
   <time name="total">    0.89    0.94</time>
   <energy>
    <i name="e_fr_energy">   -373.84002938 </i>
    <i name="e_wo_entrp">   -373.85560447 </i>
    <i name="e_0_energy">   -373.84522108 </i>
   </energy>
  </scstep>
  <scstep>
   <time name="diag">    0.08    0.09</time>
   <time name="diis">    0.70    0.74</time>
   <time name="orth">    0.01    0.01</time>
   <time name="total">    0.85    0.93</time>
   <energy>
    <i name="e_fr_energy">   -373.83587627 </i>
    <i name="e_wo_entrp">   -373.85050860 </i>
    <i name="e_0_energy">   -373.84075371 </i>
   </energy>
  </scstep>
  <scstep>
   <time name="diag">    0.07    0.07</time>
   <time name="diis">    0.88    0.89</time>
   <time name="orth">    0.01    0.01</time>
   <time name="total">    1.03    1.06</time>
   <energy>
    <i name="e_fr_energy">   -373.83467813 </i>
    <i name="e_wo_entrp">   -373.84965619 </i>
    <i name="e_0_energy">   -373.83967082 </i>
   </energy>
  </scstep>
  <scstep>
   <time name="diag">    0.07    0.08</time>
   <time name="diis">    0.89    0.90</time>
   <time name="orth">    0.01    0.01</time>
   <time name="total">    1.05    1.07</time>
   <energy>
    <i name="e_fr_energy">   -373.83438686 </i>
    <i name="e_wo_entrp">   -373.84934029 </i>
    <i name="e_0_energy">   -373.83937134 </i>
   </energy>
  </scstep>
  <scstep>
   <time name="diag">    0.08    0.08</time>
   <time name="diis">    0.81    0.82</time>
   <time name="orth">    0.02    0.02</time>
   <time name="total">    1.02    1.04</time>
   <energy>
    <i name="e_fr_energy">   -373.83435536 </i>
    <i name="e_wo_entrp">   -373.84923706 </i>
    <i name="e_0_energy">   -373.83931593 </i>
   </energy>
  </scstep>
  <scstep>
   <time name="diag">    0.07    0.07</time>
   <time name="diis">    0.83    0.84</time>
   <time name="orth">    0.01    0.01</time>
   <time name="total">    0.99    1.02</time>
   <energy>
    <i name="e_fr_energy">   -373.83432928 </i>
    <i name="e_wo_entrp">   -373.84924554 </i>
    <i name="e_0_energy">   -373.83930137 </i>
   </energy>
  </scstep>
  <scstep>
   <time name="diag">    0.07    0.07</time>
   <time name="diis">    0.66    0.67</time>
   <time name="orth">    0.01    0.01</time>
   <time name="total">    0.84    0.86</time>
   <energy>
    <i name="e_fr_energy">   -373.83432750 </i>
    <i name="e_wo_entrp">   -373.84925429 </i>
    <i name="e_0_energy">   -373.83930310 </i>
   </energy>
  </scstep>
  <scstep>
   <time name="diag">    0.07    0.07</time>
   <time name="diis">    0.49    0.50</time>
   <time name="orth">    0.01    0.01</time>
   <time name="total">    0.61    0.63</time>
   <energy>
    <i name="alphaZ">   1549.58881080 </i>
    <i name="ewald"> -18878.16367409 </i>
    <i name="hartreedc">  -5825.43025853 </i>
    <i name="XCdc">   -497.14362098 </i>
    <i name="pawpsdc">  33411.15012639 </i>
    <i name="pawaedc"> -31661.42429819 </i>
    <i name="eentropy">      0.01490399 </i>
    <i name="bandstr">  -2262.84514725 </i>
    <i name="atom">  23790.41883159 </i>
    <i name="e_fr_energy">   -373.83432626 </i>
    <i name="e_wo_entrp">   -373.84923025 </i>
    <i name="e_0_energy">   -373.83929425 </i>
   </energy>
  </scstep>
  <structure>
   <crystal>
    <varray name="basis" >
     <v>       6.86040442      -0.00920359      -0.00732360 </v>
     <v>      -0.01311720      10.10045755      -0.00720270 </v>
     <v>      -0.01079998      -0.00741957      10.18229497 </v>
    </varray>
    <i name="volume">    705.56164651 </i>
    <varray name="rec_basis" >
     <v>       0.14576442       0.00018941       0.00015474 </v>
     <v>       0.00013290       0.09900564       0.00007228 </v>
     <v>       0.00010493       0.00007017       0.09820985 </v>
    </varray>
   </crystal>
   <varray name="positions" >
    <v>       0.23662142       0.84182546       0.50038831 </v>
    <v>       0.76511789       0.84231305       0.49892048 </v>
    <v>       0.23847918       0.49807968       0.17535625 </v>
    <v>       0.99277867       0.66918403       0.00500280 </v>
    <v>       0.22705571       0.83642511       0.17386020 </v>
    <v>       0.76146137       0.49379648       0.49479785 </v>
    <v>       0.77188245       0.83470449       0.17235051 </v>
    <v>       0.99896192       0.99174742       0.00448663 </v>
    <v>       0.76384717       0.50433440       0.83319688 </v>
    <v>       0.99841955       0.66713862       0.33322817 </v>
    <v>       0.26007846       0.15632515       0.49386223 </v>
    <v>       0.24362282       0.14259790       0.82548254 </v>
    <v>       0.50398148       0.99336958       0.66602444 </v>
    <v>       0.48219167       0.34627576       0.35268468 </v>
    <v>       0.75180074       0.16780782       0.17277450 </v>
    <v>       0.23990424       0.83360516       0.82527764 </v>
    <v>       0.75517852       0.48790263       0.17102805 </v>
    <v>       0.49996211       0.66755169       0.33632103 </v>
    <v>       0.02718574       0.33673619       0.98625576 </v>
    <v>       0.50144587       0.66953827       0.00106189 </v>
    <v>       0.47707560       0.34025700       0.98364278 </v>
    <v>       0.75980388       0.83622870       0.82789904 </v>
    <v>       0.23654195       0.50588515       0.49499285 </v>
    <v>       0.50105745       0.98593750       0.32980429 </v>
    <v>       0.00068125       0.99264081       0.33234457 </v>
    <v>       0.99958681       0.00466966       0.66323237 </v>
    <v>       0.98504985       0.66362951       0.66227366 </v>
    <v>       0.01839554       0.34105857       0.34794363 </v>
    <v>       0.22804492       0.52827083       0.82877291 </v>
    <v>       0.48834806       0.33985065       0.66648263 </v>
    <v>       0.50301745       0.98879996       0.00440398 </v>
    <v>       0.74351005       0.16427442       0.49501353 </v>
    <v>       0.25243085       0.16609986       0.18027054 </v>
    <v>       0.01580624       0.33260173       0.66544599 </v>
    <v>       0.75754766       0.16062278       0.83341886 </v>
    <v>       0.51312245       0.66792197       0.66169450 </v>
   </varray>
  </structure>
  <varray name="forces" >
   <v>       0.00687601       0.02571857       0.01263204 </v>
   <v>      -0.03682751       0.00356874       0.02408423 </v>
   <v>      -0.00285472       0.03150295      -0.00076006 </v>
   <v>      -0.01344712      -0.00754378      -0.00930475 </v>
   <v>       0.05412374      -0.02910708      -0.03307430 </v>
   <v>      -0.02341469       0.02675835       0.00543360 </v>
   <v>      -0.05622893      -0.01758125       0.02625058 </v>
   <v>      -0.00680048       0.04143311      -0.00212170 </v>
   <v>      -0.02163804       0.02332620      -0.03635728 </v>
   <v>       0.10709580       0.07647846       0.11642574 </v>
   <v>       0.02006789       0.01210988       0.00697484 </v>
   <v>       0.00044000       0.02167696      -0.01513881 </v>
   <v>      -0.15118313      -0.07538720      -0.20677461 </v>
   <v>       0.03513579       0.00212497      -0.03375511 </v>
   <v>       0.00989063      -0.03548188       0.03968070 </v>
   <v>      -0.00903167      -0.03517772      -0.02741925 </v>
   <v>      -0.00554800       0.05601796       0.04739579 </v>
   <v>      -0.09212354       0.06279470       0.06243185 </v>
   <v>      -0.03375257      -0.03182495       0.01299564 </v>
   <v>       0.00176758      -0.01062731       0.00738701 </v>
   <v>       0.02643079      -0.00934888      -0.00015295 </v>
   <v>      -0.01886480      -0.01840029      -0.01616473 </v>
   <v>       0.04335430      -0.00686974       0.03545237 </v>
   <v>      -0.12371151      -0.02491108       0.17934053 </v>
   <v>       0.12135601      -0.03988191       0.13411989 </v>
   <v>       0.12401239      -0.19481456      -0.11207660 </v>
   <v>       0.18463700       0.11173767      -0.09643253 </v>
   <v>      -0.02458755      -0.00714960      -0.01849076 </v>
   <v>       0.00647254      -0.03164915       0.02495129 </v>
   <v>       0.02012306       0.01169672       0.03047749 </v>
   <v>       0.01206440      -0.00308496      -0.01084513 </v>
   <v>       0.00402886      -0.00464477      -0.00629906 </v>
   <v>       0.01216210      -0.00185652      -0.01134675 </v>
   <v>      -0.02299540       0.03327967       0.02328061 </v>
   <v>       0.02016166      -0.04714575      -0.05208741 </v>
   <v>      -0.16719090       0.09226346      -0.10071241 </v>
  </varray>
  <varray name="stress" >
   <v>       6.24232438       0.26755274       0.02842068 </v>
   <v>       0.26755276       8.14615535      -0.30458076 </v>
   <v>       0.02842063      -0.30458075       7.26121165 </v>
  </varray>
  <energy>
   <i name="e_fr_energy">   -373.83432626 </i>
   <i name="e_wo_entrp">   -373.83929425 </i>
   <i name="e_0_energy">      0.01490399 </i>
  </energy>
  <time name="totalsc">    9.98   10.44</time>
 </calculation>
 <calculation>
  <scstep>
   <time name="dav">    0.87    0.88</time>
   <time name="total">    1.01    1.17</time>
   <energy>
    <i name="alphaZ">   1543.11761060 </i>
    <i name="ewald"> -18843.36362515 </i>
    <i name="hartreedc">  -5825.63879773 </i>
    <i name="XCdc">   -498.25053242 </i>
    <i name="pawpsdc">  33410.61534266 </i>
    <i name="pawaedc"> -31660.94939753 </i>
    <i name="eentropy">      0.01512051 </i>
    <i name="bandstr">  -2289.78892383 </i>
    <i name="atom">  23790.41883159 </i>
    <i name="e_fr_energy">   -373.82437129 </i>
    <i name="e_wo_entrp">   -373.83949181 </i>
    <i name="e_0_energy">   -373.82941146 </i>
   </energy>
  </scstep>
  <scstep>
   <time name="diag">    0.07    0.07</time>
   <time name="diis">    0.69    0.70</time>
   <time name="orth">    0.01    0.01</time>
   <time name="total">    0.84    0.86</time>
   <energy>
    <i name="e_fr_energy">   -373.89313546 </i>
    <i name="e_wo_entrp">   -373.91104511 </i>
    <i name="e_0_energy">   -373.89910534 </i>
   </energy>
  </scstep>
  <scstep>
   <time name="diag">    0.07    0.07</time>
   <time name="diis">    0.74    0.75</time>
   <time name="orth">    0.01    0.01</time>
   <time name="total">    0.94    0.98</time>
   <energy>
    <i name="e_fr_energy">   -373.87136967 </i>
    <i name="e_wo_entrp">   -373.88671255 </i>
    <i name="e_0_energy">   -373.87648396 </i>
   </energy>
  </scstep>
  <scstep>
   <time name="diag">    0.08    0.13</time>
   <time name="diis">    0.70    0.85</time>
   <time name="orth">    0.01    0.01</time>
   <time name="total">    0.87    1.12</time>
   <energy>
    <i name="e_fr_energy">   -373.86418275 </i>
    <i name="e_wo_entrp">   -373.88057822 </i>
    <i name="e_0_energy">   -373.86964791 </i>
   </energy>
  </scstep>
  <scstep>
   <time name="diag">    0.15    0.15</time>
   <time name="diis">    0.82    0.83</time>
   <time name="orth">    0.03    0.03</time>
   <time name="total">    1.07    1.10</time>
   <energy>
    <i name="e_fr_energy">   -373.86259040 </i>
    <i name="e_wo_entrp">   -373.87890701 </i>
    <i name="e_0_energy">   -373.86802927 </i>
   </energy>
  </scstep>
  <scstep>
   <time name="diag">    0.08    0.08</time>
   <time name="diis">    0.81    0.82</time>
   <time name="orth">    0.01    0.01</time>
   <time name="total">    0.98    1.02</time>
   <energy>
    <i name="e_fr_energy">   -373.86241672 </i>
    <i name="e_wo_entrp">   -373.87854752 </i>
    <i name="e_0_energy">   -373.86779366 </i>
   </energy>
  </scstep>
  <scstep>
   <time name="diag">    0.11    0.11</time>
   <time name="diis">    0.85    0.86</time>
   <time name="orth">    0.01    0.01</time>
   <time name="total">    1.03    1.07</time>
   <energy>
    <i name="e_fr_energy">   -373.86231121 </i>
    <i name="e_wo_entrp">   -373.87855631 </i>
    <i name="e_0_energy">   -373.86772624 </i>
   </energy>
  </scstep>
  <scstep>
   <time name="diag">    0.14    0.14</time>
   <time name="diis">    0.80    0.81</time>
   <time name="orth">    0.01    0.01</time>
   <time name="total">    1.01    1.07</time>
   <energy>
    <i name="e_fr_energy">   -373.86233631 </i>
    <i name="e_wo_entrp">   -373.87860044 </i>
    <i name="e_0_energy">   -373.86775769 </i>
   </energy>
  </scstep>
  <scstep>
   <time name="diag">    0.07    0.07</time>
   <time name="diis">    0.74    0.75</time>
   <time name="orth">    0.01    0.01</time>
   <time name="total">    0.89    0.92</time>
   <energy>
    <i name="e_fr_energy">   -373.86234940 </i>
    <i name="e_wo_entrp">   -373.87855266 </i>
    <i name="e_0_energy">   -373.86775049 </i>
   </energy>
  </scstep>
  <scstep>
   <time name="diag">    0.07    0.07</time>
   <time name="diis">    0.65    0.66</time>
   <time name="orth">    0.01    0.01</time>
   <time name="total">    0.81    0.84</time>
   <energy>
    <i name="e_fr_energy">   -373.86236209 </i>
    <i name="e_wo_entrp">   -373.87858682 </i>
    <i name="e_0_energy">   -373.86777034 </i>
   </energy>
  </scstep>
  <scstep>
   <time name="diag">    0.07    0.07</time>
   <time name="diis">    0.52    0.53</time>
   <time name="orth">    0.01    0.01</time>
   <time name="total">    0.64    0.66</time>
   <energy>
    <i name="alphaZ">   1543.11761060 </i>
    <i name="ewald"> -18843.36362515 </i>
    <i name="hartreedc">  -5841.11275529 </i>
    <i name="XCdc">   -497.62507636 </i>
    <i name="pawpsdc">  33219.87044753 </i>
    <i name="pawaedc"> -31470.51811091 </i>
    <i name="eentropy">      0.01622693 </i>
    <i name="bandstr">  -2274.66590748 </i>
    <i name="atom">  23790.41883159 </i>
    <i name="e_fr_energy">   -373.86235854 </i>
    <i name="e_wo_entrp">   -373.87858547 </i>
    <i name="e_0_energy">   -373.86776751 </i>
   </energy>
  </scstep>
  <structure>
   <crystal>
    <varray name="basis" >
     <v>       6.86235125      -0.00739550      -0.00936844 </v>
     <v>      -0.01042879      10.12434088      -0.01102320 </v>
     <v>      -0.01382842      -0.01128418      10.19798848 </v>
    </varray>
    <i name="volume">    708.52048169 </i>
    <varray name="rec_basis" >
     <v>       0.14572308       0.00015032       0.00019777 </v>
     <v>       0.00010660       0.09877209       0.00010944 </v>
     <v>       0.00013398       0.00010690       0.09805885 </v>
    </varray>
   </crystal>
   <varray name="positions" >
    <v>       0.23619199       0.84244382       0.50020247 </v>
    <v>       0.76503404       0.84239244       0.49891057 </v>
    <v>       0.23843429       0.49819350       0.17528595 </v>
    <v>       0.99280535       0.66920559       0.00495747 </v>
    <v>       0.22733144       0.83630333       0.17369747 </v>
    <v>       0.76119971       0.49380253       0.49479516 </v>
    <v>       0.77138305       0.83459842       0.17236028 </v>
    <v>       0.99923896       0.99191911       0.00450068 </v>
    <v>       0.76365061       0.50420933       0.83321524 </v>
    <v>       0.00025022       0.66830868       0.33458120 </v>
    <v>       0.26043274       0.15633342       0.49370546 </v>
    <v>       0.24364813       0.14291544       0.82553050 </v>
    <v>       0.50151362       0.99243481       0.66431800 </v>
    <v>       0.48216984       0.34622596       0.35268390 </v>
    <v>       0.75182191       0.16778021       0.17282795 </v>
    <v>       0.23981318       0.83341606       0.82474284 </v>
    <v>       0.75509796       0.48804062       0.17113889 </v>
    <v>       0.49851386       0.66830480       0.33709902 </v>
    <v>       0.02705140       0.33659094       0.98624618 </v>
    <v>       0.50128936       0.66949284       0.00109313 </v>
    <v>       0.47715904       0.34024529       0.98362772 </v>
    <v>       0.75963564       0.83623959       0.82796883 </v>
    <v>       0.23696514       0.50583307       0.49508680 </v>
    <v>       0.49888522       0.98536447       0.33145609 </v>
    <v>       0.00294850       0.99165757       0.33397279 </v>
    <v>       0.00175587       0.00254740       0.66200000 </v>
    <v>       0.98776206       0.66500298       0.66127490 </v>
    <v>       0.01849546       0.34091949       0.34803533 </v>
    <v>       0.22801255       0.52797958       0.82901902 </v>
    <v>       0.48823649       0.33987688       0.66652211 </v>
    <v>       0.50295835       0.98871977       0.00434511 </v>
    <v>       0.74346593       0.16442115       0.49494468 </v>
    <v>       0.25254928       0.16612093       0.18021743 </v>
    <v>       0.01583886       0.33274466       0.66550752 </v>
    <v>       0.75765608       0.16057376       0.83335711 </v>
    <v>       0.51080087       0.66884958       0.66076920 </v>
   </varray>
  </structure>
  <varray name="forces" >
   <v>       0.06507284      -0.05516348       0.05958844 </v>
   <v>      -0.05276545       0.01175441       0.04857423 </v>
   <v>      -0.02015459       0.03074165       0.03962880 </v>
   <v>      -0.03647456      -0.01944872      -0.00695049 </v>
   <v>       0.02655151      -0.02092287      -0.03264725 </v>
   <v>       0.00095154       0.04531841      -0.00776911 </v>
   <v>      -0.00314341      -0.00811262       0.06059214 </v>
   <v>      -0.05412602       0.02404873       0.00218332 </v>
   <v>       0.00745532       0.08465115      -0.08237549 </v>
   <v>      -0.00953689      -0.05958140      -0.02652819 </v>
   <v>      -0.00318028       0.03168356       0.03491965 </v>
   <v>      -0.01981872      -0.04204104      -0.05766811 </v>
   <v>       0.00413962       0.01147999      -0.10407105 </v>
   <v>       0.05096700       0.03995243      -0.04027670 </v>
   <v>       0.02022510      -0.08378941       0.08169220 </v>
   <v>      -0.01946275      -0.02788474       0.05565952 </v>
   <v>       0.01657138       0.10136190       0.09560025 </v>
   <v>      -0.00466882      -0.02039452      -0.01613972 </v>
   <v>      -0.04085733      -0.02195076       0.01595569 </v>
   <v>       0.03108066      -0.01167530       0.00135795 </v>
   <v>       0.03159126      -0.00755094      -0.00747858 </v>
   <v>      -0.00620481      -0.03151022      -0.05127756 </v>
   <v>       0.01757863      -0.03166376       0.02255101 </v>
   <v>       0.02584136       0.04845423       0.05933945 </v>
   <v>      -0.04073617       0.06990087      -0.04357277 </v>
   <v>      -0.01988656       0.01122849       0.00122213 </v>
   <v>       0.02027174      -0.04568563      -0.00774858 </v>
   <v>      -0.03355328       0.04613282      -0.03167148 </v>
   <v>      -0.01718386       0.00684450       0.00546722 </v>
   <v>       0.04968006       0.02558893       0.04343525 </v>
   <v>       0.03621429      -0.00189257      -0.01036616 </v>
   <v>       0.00908247      -0.04513126      -0.00495314 </v>
   <v>       0.00847250      -0.01182190       0.00737669 </v>
   <v>      -0.04268626       0.05358172       0.03327565 </v>
   <v>       0.03901893      -0.11063360      -0.10607580 </v>
   <v>      -0.03632646       0.01413094      -0.03084942 </v>
  </varray>
  <varray name="stress" >
   <v>       0.63781639       0.19617696       0.55715982 </v>
   <v>       0.19617694       1.32203212      -0.04986549 </v>
   <v>       0.55715986      -0.04986553       0.83103282 </v>
  </varray>
  <energy>
   <i name="e_fr_energy">   -373.86235854 </i>
   <i name="e_wo_entrp">   -373.86776751 </i>
   <i name="e_0_energy">      0.01622693 </i>
  </energy>
  <time name="totalsc">   11.67   12.45</time>
 </calculation>
 <calculation>
  <scstep>
   <time name="dav">    0.95    1.07</time>
   <time name="total">    1.08    1.29</time>
   <energy>
    <i name="alphaZ">   1541.93402412 </i>
    <i name="ewald"> -18838.35454062 </i>
    <i name="hartreedc">  -5839.76589637 </i>
    <i name="XCdc">   -497.83360651 </i>
    <i name="pawpsdc">  33219.12278815 </i>
    <i name="pawaedc"> -31469.81720044 </i>
    <i name="eentropy">      0.01602252 </i>
    <i name="bandstr">  -2279.58708365 </i>
    <i name="atom">  23790.41883159 </i>
    <i name="e_fr_energy">   -373.86666122 </i>
    <i name="e_wo_entrp">   -373.88268373 </i>
    <i name="e_0_energy">   -373.87200205 </i>
   </energy>
  </scstep>
  <scstep>
   <time name="diag">    0.07    0.07</time>
   <time name="diis">    0.79    0.80</time>
   <time name="orth">    0.01    0.01</time>
   <time name="total">    0.94    0.97</time>
   <energy>
    <i name="e_fr_energy">   -373.86686904 </i>
    <i name="e_wo_entrp">   -373.88333954 </i>
    <i name="e_0_energy">   -373.87235921 </i>
   </energy>
  </scstep>
  <scstep>
   <time name="diag">    0.08    0.08</time>
   <time name="diis">    0.76    0.76</time>
   <time name="orth">    0.01    0.01</time>
   <time name="total">    0.92    0.96</time>
   <energy>
    <i name="e_fr_energy">   -373.86646329 </i>
    <i name="e_wo_entrp">   -373.88253472 </i>
    <i name="e_0_energy">   -373.87182043 </i>
   </energy>
  </scstep>
  <scstep>
   <time name="diag">    0.07    0.08</time>
   <time name="diis">    0.85    0.85</time>
   <time name="orth">    0.01    0.01</time>
   <time name="total">    1.00    1.03</time>
   <energy>
    <i name="e_fr_energy">   -373.86627551 </i>
    <i name="e_wo_entrp">   -373.88252769 </i>
    <i name="e_0_energy">   -373.87169290 </i>
   </energy>
  </scstep>
  <scstep>
   <time name="diag">    0.07    0.08</time>
   <time name="diis">    0.92    0.92</time>
   <time name="orth">    0.08    0.08</time>
   <time name="total">    1.16    1.18</time>
   <energy>
    <i name="e_fr_energy">   -373.86623682 </i>
    <i name="e_wo_entrp">   -373.88247035 </i>
    <i name="e_0_energy">   -373.87164800 </i>
   </energy>
  </scstep>
  <scstep>
   <time name="diag">    0.08    0.09</time>
   <time name="diis">    0.57    0.60</time>
   <time name="orth">    0.01    0.01</time>
   <time name="total">    0.71    0.79</time>
   <energy>
    <i name="alphaZ">   1541.93402412 </i>
    <i name="ewald"> -18838.35454062 </i>
    <i name="hartreedc">  -5842.66606922 </i>
    <i name="XCdc">   -497.71422633 </i>
    <i name="pawpsdc">  33180.26916449 </i>
    <i name="pawaedc"> -31430.94481276 </i>
    <i name="eentropy">      0.01622085 </i>
    <i name="bandstr">  -2276.82482389 </i>
    <i name="atom">  23790.41883159 </i>
    <i name="e_fr_energy">   -373.86623176 </i>
    <i name="e_wo_entrp">   -373.88245261 </i>
    <i name="e_0_energy">   -373.87163871 </i>
   </energy>
  </scstep>
  <structure>
   <crystal>
[...]
       <r>    6.6910    1.0000 </r>
       <r>    6.7219    1.0000 </r>
       <r>    6.7646    1.0000 </r>
       <r>    6.7996    1.0000 </r>
       <r>    6.8465    1.0000 </r>
       <r>    6.8793    1.0000 </r>
       <r>    6.9203    1.0000 </r>
       <r>    6.9813    1.0000 </r>
       <r>    7.0266    1.0002 </r>
       <r>    7.0865    1.0014 </r>
       <r>    7.0967    1.0019 </r>
       <r>    7.1279    1.0043 </r>
       <r>    7.1811    1.0136 </r>
       <r>    7.1919    1.0165 </r>
       <r>    7.2418    1.0311 </r>
       <r>    7.2564    1.0343 </r>
       <r>    7.2985    1.0287 </r>
       <r>    7.3156    1.0155 </r>
       <r>    7.3405    0.9788 </r>
       <r>    7.3812    0.8631 </r>
       <r>    7.4264    0.6547 </r>
       <r>    7.4474    0.5387 </r>
       <r>    7.5022    0.2447 </r>
       <r>    7.5424    0.0857 </r>
       <r>    7.5603    0.0378 </r>
       <r>    7.5855   -0.0068 </r>
       <r>    7.6365   -0.0354 </r>
       <r>    7.6471   -0.0349 </r>
       <r>    7.6781   -0.0280 </r>
       <r>    7.7231   -0.0148 </r>
       <r>    7.7498   -0.0088 </r>
       <r>    7.7749   -0.0050 </r>
       <r>    7.8219   -0.0014 </r>
       <r>    7.8714   -0.0003 </r>
       <r>    7.9073   -0.0001 </r>
       <r>    7.9552   -0.0000 </r>
       <r>    8.0462   -0.0000 </r>
       <r>    8.0989   -0.0000 </r>
       <r>    8.1493   -0.0000 </r>
       <r>    8.2227   -0.0000 </r>
       <r>    8.2883   -0.0000 </r>
       <r>    8.5148   -0.0000 </r>
       <r>    8.6528   -0.0000 </r>
       <r>    8.7199   -0.0000 </r>
       <r>    9.3763   -0.0000 </r>
       <r>    9.4459   -0.0000 </r>
       <r>    9.5160   -0.0000 </r>
       <r>    9.5264   -0.0000 </r>
       <r>    9.5709   -0.0000 </r>
      </set>
     </set>
    </set>
   </array>
  </eigenvalues>
  <separator name="orbital magnetization" >
   <v name="MAGDIPOLOUT">      0.00000000      0.00000000      0.00000000</v>
  </separator>
  <dos>
   <i name="efermi">      7.45431428 </i>
   <total>
    <array>
     <dimension dim="1">gridpoints</dimension>
     <dimension dim="2">spin</dimension>
     <field>energy</field>
     <field>total</field>
     <field>integrated</field>
     <set>
      <set comment="spin 1">
       <r>   -49.6218     0.0000     0.0000 </r>
       <r>   -49.4151     0.0000     0.0000 </r>
       <r>   -49.2083     0.0000     0.0000 </r>
       <r>   -49.0016     0.0000     0.0000 </r>
       <r>   -48.7949     0.0000     0.0000 </r>
       <r>   -48.5881     0.0000     0.0000 </r>
       <r>   -48.3814     0.0000     0.0000 </r>
       <r>   -48.1747    -0.0000    -0.0000 </r>
       <r>   -47.9679    -0.0000    -0.0000 </r>
       <r>   -47.7612    -0.0000    -0.0000 </r>
       <r>   -47.5544    -0.0000    -0.0000 </r>
       <r>   -47.3477    -0.0000    -0.0000 </r>
       <r>   -47.1410    -0.0408    -0.0084 </r>
       <r>   -46.9342    -0.9419    -0.2032 </r>
       <r>   -46.7275    21.6830     4.2795 </r>
       <r>   -46.5208    46.7959    13.9538 </r>
       <r>   -46.3140    10.6890    16.1636 </r>
       <r>   -46.1073    -0.7845    16.0014 </r>
       <r>   -45.9006    -0.0067    16.0000 </r>
       <r>   -45.6938    -0.0000    16.0000 </r>
       <r>   -45.4871    -0.0000    16.0000 </r>
       <r>   -45.2804     0.0000    16.0000 </r>
       <r>   -45.0736     0.0000    16.0000 </r>
       <r>   -44.8669     0.0000    16.0000 </r>
       <r>   -44.6602     0.0000    16.0000 </r>
       <r>   -44.4534     0.0000    16.0000 </r>
       <r>   -44.2467     0.0000    16.0000 </r>
       <r>   -44.0400     0.0000    16.0000 </r>
       <r>   -43.8332     0.0000    16.0000 </r>
       <r>   -43.6265     0.0000    16.0000 </r>
       <r>   -43.4198     0.0000    16.0000 </r>
       <r>   -43.2130     0.0000    16.0000 </r>
       <r>   -43.0063     0.0000    16.0000 </r>
       <r>   -42.7996     0.0000    16.0000 </r>
       <r>   -42.5928     0.0000    16.0000 </r>
       <r>   -42.3861     0.0000    16.0000 </r>
       <r>   -42.1794    -0.0000    16.0000 </r>
       <r>   -41.9726    -0.0000    16.0000 </r>
       <r>   -41.7659    -0.0000    16.0000 </r>
       <r>   -41.5592    -0.0000    16.0000 </r>
       <r>   -41.3524    -0.0000    16.0000 </r>
       <r>   -41.1457    -0.0207    15.9957 </r>
       <r>   -40.9389    -1.0616    15.7762 </r>
       <r>   -40.7322    18.3572    19.5713 </r>
       <r>   -40.5255    46.5089    29.1863 </r>
       <r>   -40.3187     4.3788    30.0916 </r>
       <r>   -40.1120    -0.4416    30.0003 </r>
       <r>   -39.9053    -0.0013    30.0000 </r>
       <r>   -39.6985    -0.0000    30.0000 </r>
       <r>   -39.4918    -0.0000    30.0000 </r>
       <r>   -39.2851     0.0000    30.0000 </r>
       <r>   -39.0783     0.0000    30.0000 </r>
       <r>   -38.8716     0.0000    30.0000 </r>
       <r>   -38.6649     0.0000    30.0000 </r>
       <r>   -38.4581     0.0000    30.0000 </r>
       <r>   -38.2514     0.0000    30.0000 </r>
       <r>   -38.0447     0.0000    30.0000 </r>
       <r>   -37.8379     0.0000    30.0000 </r>
       <r>   -37.6312     0.0000    30.0000 </r>
       <r>   -37.4245     0.0000    30.0000 </r>
       <r>   -37.2177     0.0000    30.0000 </r>
       <r>   -37.0110     0.0000    30.0000 </r>
       <r>   -36.8043     0.0000    30.0000 </r>
       <r>   -36.5975     0.0000    30.0000 </r>
       <r>   -36.3908     0.0000    30.0000 </r>
       <r>   -36.1841     0.0000    30.0000 </r>
       <r>   -35.9773     0.0000    30.0000 </r>
       <r>   -35.7706     0.0000    30.0000 </r>
       <r>   -35.5639     0.0000    30.0000 </r>
       <r>   -35.3571     0.0000    30.0000 </r>
       <r>   -35.1504     0.0000    30.0000 </r>
       <r>   -34.9436     0.0000    30.0000 </r>
       <r>   -34.7369     0.0000    30.0000 </r>
       <r>   -34.5302     0.0000    30.0000 </r>
       <r>   -34.3234     0.0000    30.0000 </r>
       <r>   -34.1167     0.0000    30.0000 </r>
       <r>   -33.9100     0.0000    30.0000 </r>
       <r>   -33.7032     0.0000    30.0000 </r>
       <r>   -33.4965     0.0000    30.0000 </r>
       <r>   -33.2898     0.0000    30.0000 </r>
       <r>   -33.0830     0.0000    30.0000 </r>
       <r>   -32.8763     0.0000    30.0000 </r>
       <r>   -32.6696     0.0000    30.0000 </r>
       <r>   -32.4628     0.0000    30.0000 </r>
       <r>   -32.2561     0.0000    30.0000 </r>
       <r>   -32.0494     0.0000    30.0000 </r>
       <r>   -31.8426     0.0000    30.0000 </r>
       <r>   -31.6359     0.0000    30.0000 </r>
       <r>   -31.4292     0.0000    30.0000 </r>
       <r>   -31.2224     0.0000    30.0000 </r>
       <r>   -31.0157     0.0000    30.0000 </r>
       <r>   -30.8090     0.0000    30.0000 </r>
       <r>   -30.6022     0.0000    30.0000 </r>
       <r>   -30.3955     0.0000    30.0000 </r>
       <r>   -30.1888     0.0000    30.0000 </r>
       <r>   -29.9820     0.0000    30.0000 </r>
       <r>   -29.7753     0.0000    30.0000 </r>
       <r>   -29.5686     0.0000    30.0000 </r>
       <r>   -29.3618     0.0000    30.0000 </r>
       <r>   -29.1551     0.0000    30.0000 </r>
       <r>   -28.9484     0.0000    30.0000 </r>
       <r>   -28.7416     0.0000    30.0000 </r>
       <r>   -28.5349     0.0000    30.0000 </r>
       <r>   -28.3281     0.0000    30.0000 </r>
       <r>   -28.1214     0.0000    30.0000 </r>
       <r>   -27.9147     0.0000    30.0000 </r>
       <r>   -27.7079     0.0000    30.0000 </r>
       <r>   -27.5012     0.0000    30.0000 </r>
       <r>   -27.2945     0.0000    30.0000 </r>
       <r>   -27.0877     0.0000    30.0000 </r>
       <r>   -26.8810     0.0000    30.0000 </r>
       <r>   -26.6743     0.0000    30.0000 </r>
       <r>   -26.4675     0.0000    30.0000 </r>
       <r>   -26.2608     0.0000    30.0000 </r>
       <r>   -26.0541     0.0000    30.0000 </r>
       <r>   -25.8473     0.0000    30.0000 </r>
       <r>   -25.6406     0.0000    30.0000 </r>
       <r>   -25.4339     0.0000    30.0000 </r>
       <r>   -25.2271     0.0000    30.0000 </r>
       <r>   -25.0204     0.0000    30.0000 </r>
       <r>   -24.8137     0.0000    30.0000 </r>
       <r>   -24.6069     0.0000    30.0000 </r>
       <r>   -24.4002    -0.0000    30.0000 </r>
       <r>   -24.1935    -0.0000    30.0000 </r>
       <r>   -23.9867    -0.0000    30.0000 </r>
       <r>   -23.7800    -0.0000    30.0000 </r>
       <r>   -23.5733    -0.0100    29.9979 </r>
       <r>   -23.3665    -0.6896    29.8554 </r>
       <r>   -23.1598    10.5092    32.0280 </r>
       <r>   -22.9531    33.5386    38.9615 </r>
       <r>   -22.7463    97.9370    59.2085 </r>
       <r>   -22.5396    67.4882    73.1606 </r>
       <r>   -22.3329    21.5690    77.6197 </r>
       <r>   -22.1261     2.0660    78.0468 </r>
       <r>   -21.9194    -0.2254    78.0002 </r>
       <r>   -21.7126    -0.0009    78.0000 </r>
       <r>   -21.5059    -0.0000    78.0000 </r>
       <r>   -21.2992    -0.0000    78.0000 </r>
       <r>   -21.0924     0.0000    78.0000 </r>
       <r>   -20.8857     0.0000    78.0000 </r>
       <r>   -20.6790     0.0000    78.0000 </r>
       <r>   -20.4722    -0.0000    78.0000 </r>
       <r>   -20.2655    -0.0000    78.0000 </r>
       <r>   -20.0588    -0.0000    78.0000 </r>
       <r>   -19.8520    -0.0000    78.0000 </r>
       <r>   -19.6453    -0.0005    77.9999 </r>
       <r>   -19.4386    -0.1846    77.9617 </r>
       <r>   -19.2318     1.5836    78.2891 </r>
       <r>   -19.0251    20.2598    82.4775 </r>
       <r>   -18.8184    50.4879    92.9151 </r>
       <r>   -18.6116    98.9204   113.3654 </r>
       <r>   -18.4049    31.1679   119.8088 </r>
       <r>   -18.1982     1.1334   120.0432 </r>
       <r>   -17.9914    -0.2084   120.0001 </r>
       <r>   -17.7847    -0.0004   120.0000 </r>
       <r>   -17.5780    -0.0000   120.0000 </r>
       <r>   -17.3712    -0.0000   120.0000 </r>
       <r>   -17.1645     0.0000   120.0000 </r>
       <r>   -16.9578     0.0000   120.0000 </r>
       <r>   -16.7510     0.0000   120.0000 </r>
       <r>   -16.5443     0.0000   120.0000 </r>
       <r>   -16.3376     0.0000   120.0000 </r>
       <r>   -16.1308     0.0000   120.0000 </r>
       <r>   -15.9241     0.0000   120.0000 </r>
       <r>   -15.7173     0.0000   120.0000 </r>
       <r>   -15.5106     0.0000   120.0000 </r>
       <r>   -15.3039     0.0000   120.0000 </r>
       <r>   -15.0971     0.0000   120.0000 </r>
       <r>   -14.8904     0.0000   120.0000 </r>
       <r>   -14.6837     0.0000   120.0000 </r>
       <r>   -14.4769     0.0000   120.0000 </r>
       <r>   -14.2702     0.0000   120.0000 </r>
       <r>   -14.0635     0.0000   120.0000 </r>
       <r>   -13.8567     0.0000   120.0000 </r>
       <r>   -13.6500     0.0000   120.0000 </r>
       <r>   -13.4433     0.0000   120.0000 </r>
       <r>   -13.2365     0.0000   120.0000 </r>
       <r>   -13.0298     0.0000   120.0000 </r>
       <r>   -12.8231     0.0000   120.0000 </r>
       <r>   -12.6163     0.0000   120.0000 </r>
       <r>   -12.4096     0.0000   120.0000 </r>
       <r>   -12.2029     0.0000   120.0000 </r>
       <r>   -11.9961     0.0000   120.0000 </r>
       <r>   -11.7894     0.0000   120.0000 </r>
       <r>   -11.5827     0.0000   120.0000 </r>
       <r>   -11.3759     0.0000   120.0000 </r>
       <r>   -11.1692     0.0000   120.0000 </r>
       <r>   -10.9625     0.0000   120.0000 </r>
       <r>   -10.7557     0.0000   120.0000 </r>
       <r>   -10.5490     0.0000   120.0000 </r>
       <r>   -10.3423     0.0000   120.0000 </r>
       <r>   -10.1355     0.0000   120.0000 </r>
       <r>    -9.9288     0.0000   120.0000 </r>
       <r>    -9.7221     0.0000   120.0000 </r>
       <r>    -9.5153     0.0000   120.0000 </r>
       <r>    -9.3086     0.0000   120.0000 </r>
       <r>    -9.1018     0.0000   120.0000 </r>
       <r>    -8.8951     0.0000   120.0000 </r>
       <r>    -8.6884     0.0000   120.0000 </r>
       <r>    -8.4816     0.0000   120.0000 </r>
       <r>    -8.2749     0.0000   120.0000 </r>
       <r>    -8.0682     0.0000   120.0000 </r>
       <r>    -7.8614     0.0000   120.0000 </r>
       <r>    -7.6547     0.0000   120.0000 </r>
       <r>    -7.4480     0.0000   120.0000 </r>
       <r>    -7.2412     0.0000   120.0000 </r>
       <r>    -7.0345     0.0000   120.0000 </r>
       <r>    -6.8278     0.0000   120.0000 </r>
       <r>    -6.6210     0.0000   120.0000 </r>
       <r>    -6.4143     0.0000   120.0000 </r>
       <r>    -6.2076     0.0000   120.0000 </r>
       <r>    -6.0008     0.0000   120.0000 </r>
       <r>    -5.7941     0.0000   120.0000 </r>
       <r>    -5.5874     0.0000   120.0000 </r>
       <r>    -5.3806     0.0000   120.0000 </r>
       <r>    -5.1739     0.0000   120.0000 </r>
       <r>    -4.9672     0.0000   120.0000 </r>
       <r>    -4.7604     0.0000   120.0000 </r>
       <r>    -4.5537     0.0000   120.0000 </r>
       <r>    -4.3470     0.0000   120.0000 </r>
       <r>    -4.1402     0.0000   120.0000 </r>
       <r>    -3.9335     0.0000   120.0000 </r>
       <r>    -3.7268     0.0000   120.0000 </r>
       <r>    -3.5200     0.0000   120.0000 </r>
       <r>    -3.3133     0.0000   120.0000 </r>
       <r>    -3.1066     0.0000   120.0000 </r>
       <r>    -2.8998     0.0000   120.0000 </r>
       <r>    -2.6931     0.0000   120.0000 </r>
       <r>    -2.4863     0.0000   120.0000 </r>
       <r>    -2.2796     0.0000   120.0000 </r>
       <r>    -2.0729     0.0000   120.0000 </r>
       <r>    -1.8661     0.0000   120.0000 </r>
       <r>    -1.6594     0.0000   120.0000 </r>
       <r>    -1.4527     0.0000   120.0000 </r>
       <r>    -1.2459     0.0000   120.0000 </r>
       <r>    -1.0392     0.0000   120.0000 </r>
       <r>    -0.8325    -0.0000   120.0000 </r>
       <r>    -0.6257    -0.0000   120.0000 </r>
       <r>    -0.4190    -0.0000   120.0000 </r>
       <r>    -0.2123    -0.0000   120.0000 </r>
       <r>    -0.0055    -0.0000   120.0000 </r>
       <r>     0.2012    -0.0015   119.9997 </r>
       <r>     0.4079     0.0011   119.9999 </r>
       <r>     0.6147     0.2853   120.0589 </r>
       <r>     0.8214     1.1427   120.2951 </r>
       <r>     1.0281     1.5858   120.6230 </r>
       <r>     1.2349     1.8272   121.0007 </r>
       <r>     1.4416     3.6309   121.7514 </r>
       <r>     1.6483     3.9647   122.5710 </r>
       <r>     1.8551     2.5093   123.0897 </r>
       <r>     2.0618     4.5827   124.0371 </r>
       <r>     2.2685     3.3889   124.7377 </r>
       <r>     2.4753     3.2041   125.4002 </r>
       <r>     2.6820     7.3761   126.9250 </r>
       <r>     2.8887     7.3477   128.4441 </r>
       <r>     3.0955     9.4169   130.3909 </r>
       <r>     3.3022     7.6246   131.9671 </r>
       <r>     3.5090     9.4206   133.9147 </r>
       <r>     3.7157    16.1744   137.2585 </r>
       <r>     3.9224    21.6231   141.7287 </r>
       <r>     4.1292    23.0118   146.4861 </r>
       <r>     4.3359    27.5840   152.1886 </r>
       <r>     4.5426    31.2095   158.6407 </r>
       <r>     4.7494    37.2737   166.3465 </r>
       <r>     4.9561    37.2477   174.0469 </r>
       <r>     5.1628    38.9606   182.1013 </r>
       <r>     5.3696    32.7078   188.8632 </r>
       <r>     5.5763    34.7338   196.0438 </r>
       <r>     5.7830    20.2489   200.2300 </r>
       <r>     5.9898    18.5361   204.0620 </r>
       <r>     6.1965    60.1582   216.4988 </r>
       <r>     6.4032    65.4281   230.0250 </r>
       <r>     6.6100    54.2076   241.2316 </r>
       <r>     6.8167    50.4123   251.6536 </r>
       <r>     7.0234    53.4311   262.6996 </r>
       <r>     7.2302    58.9134   274.8790 </r>
       <r>     7.4369    49.9219   285.1996 </r>
       <r>     7.6436    48.4866   295.2234 </r>
       <r>     7.8504    50.7810   305.7216 </r>
       <r>     8.0571    40.4142   314.0766 </r>
       <r>     8.2638    28.7120   320.0124 </r>
       <r>     8.4706    22.6014   324.6849 </r>
       <r>     8.6773    19.5272   328.7218 </r>
       <r>     8.8840    12.3440   331.2737 </r>
       <r>     9.0908    13.1509   333.9925 </r>
       <r>     9.2975    21.6566   338.4696 </r>
       <r>     9.5042    19.2661   342.4526 </r>
       <r>     9.7110     7.8815   344.0820 </r>
       <r>     9.9177    -0.3832   344.0028 </r>
       <r>    10.1245    -0.0133   344.0000 </r>
       <r>    10.3312    -0.0000   344.0000 </r>
       <r>    10.5379    -0.0000   344.0000 </r>
       <r>    10.7447     0.0000   344.0000 </r>
       <r>    10.9514     0.0000   344.0000 </r>
       <r>    11.1581     0.0000   344.0000 </r>
       <r>    11.3649     0.0000   344.0000 </r>
       <r>    11.5716     0.0000   344.0000 </r>
       <r>    11.7783     0.0000   344.0000 </r>
       <r>    11.9851     0.0000   344.0000 </r>
       <r>    12.1918     0.0000   344.0000 </r>
       <r>    12.3985     0.0000   344.0000 </r>
      </set>
     </set>
    </array>
   </total>
  </dos>
 </calculation>
 <structure name="finalpos" >
  <crystal>
   <varray name="basis" >
    <v>       6.85388953      -0.00115137      -0.00344945 </v>
    <v>      -0.00117551      10.14116958      -0.00396587 </v>
    <v>      -0.00501754      -0.00419537      10.20638155 </v>
   </varray>
   <i name="volume">    709.40910711 </i>
   <varray name="rec_basis" >
    <v>       0.14590259       0.00001694       0.00007173 </v>
    <v>       0.00001659       0.09860797       0.00004054 </v>
    <v>       0.00004932       0.00003832       0.09797796 </v>
   </varray>
  </crystal>
  <varray name="positions" >
   <v>       0.23687233       0.84132947       0.50047771 </v>
   <v>       0.76302067       0.84201327       0.49818182 </v>
   <v>       0.23970504       0.49629675       0.17433147 </v>
   <v>       0.99267316       0.66924935       0.00610234 </v>
   <v>       0.22789463       0.83707141       0.17247306 </v>
   <v>       0.76055916       0.49546861       0.49573537 </v>
   <v>       0.77071231       0.83548257       0.17401555 </v>
   <v>       0.99885754       0.99229427       0.00576498 </v>
   <v>       0.76523892       0.51334695       0.83053492 </v>
   <v>       0.00117894       0.66836555       0.33455804 </v>
   <v>       0.25993480       0.15822424       0.49476615 </v>
   <v>       0.23903668       0.14331687       0.82345868 </v>
   <v>       0.49894127       0.99092856       0.66079142 </v>
   <v>       0.48278890       0.34784210       0.35276671 </v>
   <v>       0.75126068       0.16775272       0.17487829 </v>
   <v>       0.23996150       0.83282486       0.82699811 </v>
   <v>       0.75548543       0.48913377       0.17377877 </v>
   <v>       0.49732595       0.66815503       0.33644086 </v>
   <v>       0.01940046       0.33492018       0.98584302 </v>
   <v>       0.50208540       0.66987862       0.00235354 </v>
   <v>       0.48331810       0.33832394       0.98259461 </v>
   <v>       0.75752995       0.83462701       0.82712958 </v>
   <v>       0.23831541       0.50475872       0.49614595 </v>
   <v>       0.49843247       0.98700922       0.33305553 </v>
   <v>       0.00313906       0.99247375       0.33349499 </v>
   <v>       0.00356093      -0.00020507       0.65884577 </v>
   <v>       0.99101993       0.66472222       0.66111860 </v>
   <v>       0.01872620       0.34234879       0.34889103 </v>
   <v>       0.22799147       0.52525167       0.83240518 </v>
   <v>       0.49203605       0.33946005       0.66932955 </v>
   <v>       0.50346321       0.98997868       0.00394925 </v>
   <v>       0.74390171       0.16470276       0.49432624 </v>
   <v>       0.25329953       0.16817286       0.18002173 </v>
   <v>       0.01237359       0.33474485       0.66658699 </v>
   <v>       0.76335498       0.15048330       0.82757120 </v>
   <v>       0.50660062       0.66926008       0.66027998 </v>
  </varray>
 </structure>
</modeling>
