       N       E                     dE             d eps       ncg     rms          rms(c)
DAV:   1     0.185826007297E+04    0.18583E+04   -0.11053E+05  5520   0.104E+03
DAV:   2    -0.745680083474E+02   -0.19328E+04   -0.18551E+04  5552   0.375E+02
DAV:   3    -0.338243629085E+03   -0.26368E+03   -0.25014E+03  8760   0.102E+02
DAV:   4    -0.370705751646E+03   -0.32462E+02   -0.30929E+02  8456   0.311E+01
DAV:   5    -0.373954435865E+03   -0.32487E+01   -0.31842E+01  7920   0.989E+00    0.663E+01
RMM:   6    -0.364117857836E+03    0.98366E+01   -0.26195E+01  7328   0.989E+00    0.317E+01
RMM:   7    -0.367657340619E+03   -0.35395E+01   -0.32333E+01  7666   0.827E+00    0.137E+01
RMM:   8    -0.359795384186E+03    0.78620E+01   -0.86952E+00  7440   0.421E+00    0.450E+00
RMM:   9    -0.359330617615E+03    0.46477E+00   -0.32328E+00  7661   0.217E+00    0.290E+00
RMM:  10    -0.359312019890E+03    0.18598E-01   -0.57838E-01  7677   0.118E+00    0.168E+00
RMM:  11    -0.359287562639E+03    0.24457E-01   -0.17015E-01  7558   0.607E-01    0.929E-01
RMM:  12    -0.359279575300E+03    0.79873E-02   -0.68523E-02  7693   0.412E-01    0.472E-01
RMM:  13    -0.359276713009E+03    0.28623E-02   -0.22200E-02  7719   0.217E-01    0.269E-01
RMM:  14    -0.359276590668E+03    0.12234E-03   -0.79836E-03  7745   0.120E-01    0.155E-01
RMM:  15    -0.359276787188E+03   -0.19652E-03   -0.39722E-03  7828   0.695E-02    0.888E-02
RMM:  16    -0.359276792519E+03   -0.53312E-05   -0.15292E-03  7147   0.413E-02    0.496E-02
RMM:  17    -0.359276765396E+03    0.27123E-04   -0.58029E-04  6276   0.268E-02    0.218E-02
RMM:  18    -0.359276774981E+03   -0.95853E-05   -0.27860E-04  5956   0.200E-02    0.983E-03
RMM:  19    -0.359276782888E+03   -0.79065E-05   -0.11975E-04  4893   0.133E-02    0.666E-03
RMM:  20    -0.359276784152E+03   -0.12639E-05   -0.46572E-05  4153   0.106E-02
   1 F= -.35927678E+03 E0= -.35928633E+03  d E =-.359277E+03
       N       E                     dE             d eps       ncg     rms          rms(c)
DAV:   1    -0.359353662386E+03   -0.76879E-01   -0.29653E+00  5960   0.554E+00    0.203E+00
RMM:   2    -0.359331733318E+03    0.21929E-01   -0.27314E-01  6881   0.135E+00    0.642E-01
RMM:   3    -0.359324962411E+03    0.67709E-02   -0.62434E-02  7711   0.468E-01    0.478E-01
RMM:   4    -0.359317939230E+03    0.70232E-02   -0.15064E-02  7773   0.238E-01    0.267E-01
RMM:   5    -0.359317123407E+03    0.81582E-03   -0.51497E-03  7691   0.130E-01    0.203E-01
RMM:   6    -0.359317183543E+03   -0.60137E-04   -0.19304E-03  8048   0.723E-02    0.126E-01
RMM:   7    -0.359317192471E+03   -0.89275E-05   -0.91381E-04  7614   0.518E-02    0.662E-02
RMM:   8    -0.359317218651E+03   -0.26180E-04   -0.44219E-04  6917   0.309E-02    0.477E-02
RMM:   9    -0.359317242123E+03   -0.23472E-04   -0.19341E-04  6459   0.244E-02    0.365E-02
RMM:  10    -0.359317256544E+03   -0.14421E-04   -0.97925E-05  5151   0.165E-02    0.223E-02
RMM:  11    -0.359317256527E+03    0.17400E-07   -0.49104E-05  4448   0.139E-02
   2 F= -.35931726E+03 E0= -.35932732E+03  d E =-.404724E-01
       N       E                     dE             d eps       ncg     rms          rms(c)
DAV:   1    -0.359565311371E+03   -0.24805E+00   -0.17459E+01  5640   0.134E+01    0.481E+00
RMM:   2    -0.359435296191E+03    0.13002E+00   -0.15762E+00  6916   0.327E+00    0.156E+00
RMM:   3    -0.359392225416E+03    0.43071E-01   -0.35975E-01  7737   0.112E+00    0.115E+00
RMM:   4    -0.359352289409E+03    0.39936E-01   -0.88143E-02  7782   0.573E-01    0.647E-01
RMM:   5    -0.359347067777E+03    0.52216E-02   -0.29762E-02  7678   0.319E-01    0.487E-01
RMM:   6    -0.359347646603E+03   -0.57883E-03   -0.11615E-02  8251   0.175E-01    0.303E-01
RMM:   7    -0.359347861572E+03   -0.21497E-03   -0.53971E-03  8518   0.128E-01    0.159E-01
RMM:   8    -0.359348084620E+03   -0.22305E-03   -0.26733E-03  8640   0.715E-02    0.117E-01
RMM:   9    -0.359348263641E+03   -0.17902E-03   -0.99472E-04  7924   0.537E-02    0.920E-02
RMM:  10    -0.359348419393E+03   -0.15575E-03   -0.54530E-04  6983   0.331E-02    0.559E-02
RMM:  11    -0.359348462706E+03   -0.43313E-04   -0.27284E-04  6428   0.271E-02    0.242E-02
RMM:  12    -0.359348471245E+03   -0.85390E-05   -0.19826E-04  6105   0.220E-02    0.110E-02
RMM:  13    -0.359348470639E+03    0.60588E-06   -0.70285E-05  5059   0.154E-02
   3 F= -.35934847E+03 E0= -.35935949E+03  d E =-.716865E-01
       N       E                     dE             d eps       ncg     rms          rms(c)
DAV:   1    -0.359372244232E+03   -0.23773E-01   -0.25324E+00  5408   0.445E+00    0.573E-01
RMM:   2    -0.359379344383E+03   -0.71002E-02   -0.97524E-02  7247   0.832E-01    0.308E-01
RMM:   3    -0.359376424241E+03    0.29201E-02   -0.12420E-02  7650   0.230E-01    0.217E-01
RMM:   4    -0.359375829958E+03    0.59428E-03   -0.25861E-03  8109   0.834E-02    0.132E-01
RMM:   5    -0.359375741721E+03    0.88237E-04   -0.10053E-03  7778   0.575E-02    0.741E-02
RMM:   6    -0.359375754970E+03   -0.13249E-04   -0.44204E-04  7679   0.347E-02    0.432E-02
RMM:   7    -0.359375757901E+03   -0.29315E-05   -0.15635E-04  6825   0.211E-02    0.270E-02
RMM:   8    -0.359375768288E+03   -0.10387E-04   -0.51897E-05  4817   0.131E-02    0.156E-02
RMM:   9    -0.359375772942E+03   -0.46535E-05   -0.26356E-05  3630   0.107E-02
   4 F= -.35937577E+03 E0= -.35938696E+03  d E =-.273023E-01
       N       E                     dE             d eps       ncg     rms          rms(c)
DAV:   1    -0.359392310674E+03   -0.16542E-01   -0.22774E+01  5152   0.134E+01    0.173E+00
RMM:   2    -0.359458086433E+03   -0.65776E-01   -0.88515E-01  7223   0.252E+00    0.921E-01
RMM:   3    -0.359429247377E+03    0.28839E-01   -0.10860E-01  7661   0.684E-01    0.624E-01
RMM:   4    -0.359424496434E+03    0.47509E-02   -0.23423E-02  8125   0.246E-01    0.378E-01
RMM:   5    -0.359423732073E+03    0.76436E-03   -0.87423E-03  7887   0.164E-01    0.215E-01
RMM:   6    -0.359423832523E+03   -0.10045E-03   -0.37566E-03  8150   0.102E-01    0.124E-01
RMM:   7    -0.359423838493E+03   -0.59704E-05   -0.14104E-03  8505   0.609E-02    0.772E-02
RMM:   8    -0.359423918632E+03   -0.80139E-04   -0.54769E-04  7391   0.338E-02    0.447E-02
RMM:   9    -0.359423933911E+03   -0.15279E-04   -0.24925E-04  6998   0.255E-02    0.248E-02
RMM:  10    -0.359423946806E+03   -0.12895E-04   -0.96669E-05  5624   0.167E-02    0.147E-02
RMM:  11    -0.359423952123E+03   -0.53166E-05   -0.44210E-05  4475   0.132E-02
   5 F= -.35942395E+03 E0= -.35943530E+03  d E =-.754815E-01
       N       E                     dE             d eps       ncg     rms          rms(c)
DAV:   1    -0.359422581139E+03    0.13657E-02   -0.43236E+00  5264   0.585E+00    0.747E-01
RMM:   2    -0.359434594155E+03   -0.12013E-01   -0.16406E-01  7199   0.109E+00    0.395E-01
RMM:   3    -0.359429784352E+03    0.48098E-02   -0.20624E-02  7649   0.301E-01    0.275E-01
RMM:   4    -0.359428844830E+03    0.93952E-03   -0.43585E-03  8083   0.108E-01    0.165E-01
RMM:   5    -0.359428723179E+03    0.12165E-03   -0.17171E-03  7824   0.732E-02    0.921E-02
RMM:   6    -0.359428748090E+03   -0.24911E-04   -0.72942E-04  7985   0.446E-02    0.538E-02
RMM:   7    -0.359428758026E+03   -0.99357E-05   -0.27291E-04  7189   0.267E-02    0.334E-02
RMM:   8    -0.359428776322E+03   -0.18296E-04   -0.82907E-05  5295   0.162E-02    0.183E-02
RMM:   9    -0.359428783560E+03   -0.72376E-05   -0.54719E-05  4546   0.136E-02
   6 F= -.35942878E+03 E0= -.35944005E+03  d E =-.803129E-01
       N       E                     dE             d eps       ncg     rms          rms(c)
DAV:   1    -0.359457917074E+03   -0.29141E-01   -0.11644E+00  5976   0.355E+00    0.135E+00
RMM:   2    -0.359445021782E+03    0.12895E-01   -0.11749E-01  7102   0.890E-01    0.417E-01
RMM:   3    -0.359441669812E+03    0.33520E-02   -0.25860E-02  7704   0.301E-01    0.271E-01
RMM:   4    -0.359439659279E+03    0.20105E-02   -0.62745E-03  7759   0.169E-01    0.176E-01
RMM:   5    -0.359439392360E+03    0.26692E-03   -0.19803E-03  7741   0.748E-02    0.133E-01
RMM:   6    -0.359439501878E+03   -0.10952E-03   -0.79718E-04  7803   0.475E-02    0.760E-02
RMM:   7    -0.359439565238E+03   -0.63360E-04   -0.40193E-04  6937   0.328E-02    0.360E-02
RMM:   8    -0.359439609543E+03   -0.44305E-04   -0.18506E-04  6169   0.230E-02    0.275E-02
RMM:   9    -0.359439637951E+03   -0.28408E-04   -0.84084E-05  4819   0.169E-02    0.210E-02
RMM:  10    -0.359439654428E+03   -0.16477E-04   -0.37331E-05  4104   0.128E-02    0.135E-02
RMM:  11    -0.359439663953E+03   -0.95255E-05   -0.20555E-05  3789   0.114E-02
   7 F= -.35943966E+03 E0= -.35945086E+03  d E =-.108804E-01
       N       E                     dE             d eps       ncg     rms          rms(c)
DAV:   1    -0.359471806514E+03   -0.32152E-01   -0.18284E+00  5840   0.445E+00    0.170E+00
RMM:   2    -0.359451391757E+03    0.20415E-01   -0.18496E-01  7091   0.112E+00    0.524E-01
RMM:   3    -0.359446116683E+03    0.52751E-02   -0.40575E-02  7710   0.377E-01    0.340E-01
RMM:   4    -0.359442965426E+03    0.31513E-02   -0.98902E-03  7759   0.212E-01    0.222E-01
RMM:   5    -0.359442549424E+03    0.41600E-03   -0.31374E-03  7741   0.938E-02    0.168E-01
RMM:   6    -0.359442711291E+03   -0.16187E-03   -0.12715E-03  7968   0.602E-02    0.953E-02
RMM:   7    -0.359442804194E+03   -0.92903E-04   -0.65777E-04  7182   0.413E-02    0.455E-02
RMM:   8    -0.359442868657E+03   -0.64463E-04   -0.28800E-04  6590   0.281E-02    0.346E-02
RMM:   9    -0.359442912642E+03   -0.43985E-04   -0.14113E-04  5313   0.203E-02    0.271E-02
RMM:  10    -0.359442934485E+03   -0.21844E-04   -0.55378E-05  4716   0.144E-02    0.180E-02
RMM:  11    -0.359442948280E+03   -0.13795E-04   -0.25791E-05  4005   0.120E-02    0.929E-03
RMM:  12    -0.359442959374E+03   -0.11093E-04   -0.29521E-05  4075   0.123E-02    0.319E-03
RMM:  13    -0.359442960635E+03   -0.12608E-05   -0.11810E-05  3373   0.107E-02
   8 F= -.35944296E+03 E0= -.35945405E+03  d E =-.141771E-01
       N       E                     dE             d eps       ncg     rms          rms(c)
DAV:   1    -0.359448566781E+03   -0.56074E-02   -0.11833E+00  5064   0.309E+00    0.335E-01
RMM:   2    -0.359451392500E+03   -0.28257E-02   -0.42744E-02  7439   0.570E-01    0.170E-01
RMM:   3    -0.359450914331E+03    0.47817E-03   -0.47510E-03  7635   0.146E-01    0.124E-01
RMM:   4    -0.359450756644E+03    0.15769E-03   -0.11010E-03  8250   0.522E-02    0.841E-02
RMM:   5    -0.359450723203E+03    0.33441E-04   -0.48827E-04  7707   0.366E-02    0.480E-02
RMM:   6    -0.359450701588E+03    0.21615E-04   -0.19520E-04  7145   0.241E-02    0.259E-02
RMM:   7    -0.359450698184E+03    0.34040E-05   -0.64866E-05  4735   0.139E-02
   9 F= -.35945070E+03 E0= -.35946179E+03  d E =-.773755E-02
       N       E                     dE             d eps       ncg     rms          rms(c)
DAV:   1    -0.359446831832E+03    0.38698E-02   -0.59154E+00  5040   0.690E+00    0.743E-01
RMM:   2    -0.359461091560E+03   -0.14260E-01   -0.21427E-01  7416   0.127E+00    0.379E-01
RMM:   3    -0.359458809294E+03    0.22823E-02   -0.23977E-02  7671   0.329E-01    0.278E-01
RMM:   4    -0.359458056530E+03    0.75276E-03   -0.54998E-03  8388   0.117E-01    0.189E-01
RMM:   5    -0.359457914883E+03    0.14165E-03   -0.24489E-03  7901   0.826E-02    0.108E-01
RMM:   6    -0.359457824588E+03    0.90295E-04   -0.10105E-03  8127   0.543E-02    0.588E-02
RMM:   7    -0.359457825133E+03   -0.54514E-06   -0.38510E-04  7365   0.289E-02    0.376E-02
RMM:   8    -0.359457824026E+03    0.11070E-05   -0.12798E-04  5831   0.185E-02    0.232E-02
RMM:   9    -0.359457824219E+03   -0.19247E-06   -0.84768E-05  5302   0.158E-02
  10 F= -.35945782E+03 E0= -.35946885E+03  d E =-.148636E-01
       N       E                     dE             d eps       ncg     rms          rms(c)
DAV:   1    -0.359473041372E+03   -0.15217E-01   -0.80936E-01  5704   0.288E+00    0.102E+00
RMM:   2    -0.359466539281E+03    0.65021E-02   -0.68873E-02  6931   0.683E-01    0.323E-01
RMM:   3    -0.359464636661E+03    0.19026E-02   -0.15687E-02  7695   0.238E-01    0.221E-01
RMM:   4    -0.359463179967E+03    0.14567E-02   -0.38258E-03  7775   0.124E-01    0.134E-01
RMM:   5    -0.359462984943E+03    0.19502E-03   -0.12421E-03  7688   0.627E-02    0.102E-01
RMM:   6    -0.359462995194E+03   -0.10251E-04   -0.49547E-04  7451   0.365E-02    0.603E-02
RMM:   7    -0.359462990046E+03    0.51472E-05   -0.21568E-04  6544   0.272E-02    0.300E-02
RMM:   8    -0.359462996431E+03   -0.63846E-05   -0.12598E-04  5397   0.182E-02    0.234E-02
RMM:   9    -0.359462997525E+03   -0.10940E-05   -0.44275E-05  4276   0.140E-02
  11 F= -.35946300E+03 E0= -.35947405E+03  d E =-.517331E-02
       N       E                     dE             d eps       ncg     rms          rms(c)
DAV:   1    -0.359471972735E+03   -0.89763E-02   -0.62708E-01  5636   0.253E+00    0.891E-01
RMM:   2    -0.359466925899E+03    0.50468E-02   -0.53125E-02  6921   0.601E-01    0.282E-01
RMM:   3    -0.359465452950E+03    0.14729E-02   -0.12001E-02  7693   0.208E-01    0.192E-01
RMM:   4    -0.359464355459E+03    0.10975E-02   -0.29214E-03  7769   0.109E-01    0.118E-01
RMM:   5    -0.359464213177E+03    0.14228E-03   -0.96943E-04  7694   0.542E-02    0.906E-02
RMM:   6    -0.359464223426E+03   -0.10249E-04   -0.37980E-04  7247   0.322E-02    0.539E-02
RMM:   7    -0.359464220632E+03    0.27938E-05   -0.17748E-04  6452   0.241E-02    0.269E-02
RMM:   8    -0.359464225826E+03   -0.51937E-05   -0.10498E-04  5167   0.171E-02    0.209E-02
RMM:   9    -0.359464226163E+03   -0.33719E-06   -0.38063E-05  4189   0.132E-02
  12 F= -.35946423E+03 E0= -.35947530E+03  d E =-.640194E-02
       N       E                     dE             d eps       ncg     rms          rms(c)
DAV:   1    -0.359467256402E+03   -0.30306E-02   -0.38786E-01  5304   0.174E+00    0.203E-01
RMM:   2    -0.359468029535E+03   -0.77313E-03   -0.13025E-02  7269   0.316E-01    0.986E-02
RMM:   3    -0.359467912832E+03    0.11670E-03   -0.16354E-03  7647   0.854E-02    0.744E-02
RMM:   4    -0.359467845314E+03    0.67518E-04   -0.38441E-04  8082   0.306E-02    0.486E-02
RMM:   5    -0.359467836890E+03    0.84241E-05   -0.15047E-04  6983   0.219E-02    0.267E-02
RMM:   6    -0.359467837002E+03   -0.11151E-06   -0.58770E-05  4815   0.138E-02
  13 F= -.35946784E+03 E0= -.35947886E+03  d E =-.361084E-02
       N       E                     dE             d eps       ncg     rms          rms(c)
DAV:   1    -0.359469334131E+03   -0.14972E-02   -0.34858E+00  5168   0.522E+00    0.597E-01
RMM:   2    -0.359476520113E+03   -0.71860E-02   -0.11636E-01  7213   0.947E-01    0.285E-01
RMM:   3    -0.359475331710E+03    0.11884E-02   -0.13980E-02  7589   0.253E-01    0.214E-01
RMM:   4    -0.359474759996E+03    0.57171E-03   -0.32593E-03  8578   0.880E-02    0.138E-01
RMM:   5    -0.359474715102E+03    0.44894E-04   -0.13125E-03  8124   0.625E-02    0.784E-02
RMM:   6    -0.359474720378E+03   -0.52762E-05   -0.54311E-04  8187   0.388E-02    0.438E-02
RMM:   7    -0.359474736466E+03   -0.16088E-04   -0.20912E-04  7041   0.224E-02    0.263E-02
RMM:   8    -0.359474748767E+03   -0.12301E-04   -0.65044E-05  5072   0.153E-02    0.137E-02
RMM:   9    -0.359474756144E+03   -0.73768E-05   -0.37341E-05  4028   0.121E-02
  14 F= -.35947476E+03 E0= -.35948563E+03  d E =-.105300E-01
       N       E                     dE             d eps       ncg     rms          rms(c)
DAV:   1    -0.359448615570E+03    0.26133E-01   -0.13939E+01  5232   0.104E+01    0.121E+00
RMM:   2    -0.359477331948E+03   -0.28716E-01   -0.46677E-01  7220   0.189E+00    0.566E-01
RMM:   3    -0.359472570964E+03    0.47610E-02   -0.55624E-02  7660   0.506E-01    0.419E-01
RMM:   4    -0.359470341293E+03    0.22297E-02   -0.13254E-02  8549   0.179E-01    0.265E-01
RMM:   5    -0.359470180005E+03    0.16129E-03   -0.51686E-03  8268   0.124E-01    0.151E-01
RMM:   6    -0.359470186895E+03   -0.68906E-05   -0.20966E-03  8472   0.757E-02    0.839E-02
RMM:   7    -0.359470239922E+03   -0.53027E-04   -0.83122E-04  8480   0.446E-02    0.507E-02
RMM:   8    -0.359470277077E+03   -0.37155E-04   -0.27512E-04  7215   0.252E-02    0.291E-02
RMM:   9    -0.359470299550E+03   -0.22473E-04   -0.15716E-04  6329   0.205E-02    0.195E-02
RMM:  10    -0.359470309375E+03   -0.98249E-05   -0.60699E-05  5165   0.143E-02
  15 F= -.35947031E+03 E0= -.35948084E+03  d E =-.608321E-02
       N       E                     dE             d eps       ncg     rms          rms(c)
DAV:   1    -0.359465195925E+03    0.51036E-02   -0.66447E+00  5152   0.724E+00    0.812E-01
RMM:   2    -0.359479312266E+03   -0.14116E-01   -0.22083E-01  7126   0.132E+00    0.389E-01
RMM:   3    -0.359477449170E+03    0.18631E-02   -0.26561E-02  7593   0.352E-01    0.300E-01
RMM:   4    -0.359476305030E+03    0.11441E-02   -0.57756E-03  8392   0.119E-01    0.199E-01
RMM:   5    -0.359476130562E+03    0.17447E-03   -0.22936E-03  7866   0.867E-02    0.111E-01
RMM:   6    -0.359476051784E+03    0.78778E-04   -0.99026E-04  8189   0.541E-02    0.583E-02
RMM:   7    -0.359476052039E+03   -0.25470E-06   -0.36824E-04  7586   0.299E-02    0.351E-02
RMM:   8    -0.359476049793E+03    0.22462E-05   -0.10716E-04  5843   0.174E-02    0.201E-02
RMM:   9    -0.359476052538E+03   -0.27453E-05   -0.74659E-05  4879   0.146E-02
  16 F= -.35947605E+03 E0= -.35948683E+03  d E =-.118264E-01
       N       E                     dE             d eps       ncg     rms          rms(c)
DAV:   1    -0.359478028825E+03   -0.19790E-02   -0.32369E-01  5336   0.159E+00    0.197E-01
RMM:   2    -0.359478529230E+03   -0.50040E-03   -0.10670E-02  7514   0.288E-01    0.886E-02
RMM:   3    -0.359478447909E+03    0.81321E-04   -0.12147E-03  7574   0.756E-02    0.602E-02
RMM:   4    -0.359478393556E+03    0.54353E-04   -0.33178E-04  7808   0.295E-02    0.384E-02
RMM:   5    -0.359478385790E+03    0.77662E-05   -0.12097E-04  6714   0.204E-02    0.229E-02
RMM:   6    -0.359478387577E+03   -0.17869E-05   -0.43480E-05  4059   0.118E-02
  17 F= -.35947839E+03 E0= -.35948912E+03  d E =-.233504E-02
       N       E                     dE             d eps       ncg     rms          rms(c)
DAV:   1    -0.359479214658E+03   -0.82887E-03   -0.29114E+00  5152   0.478E+00    0.587E-01
RMM:   2    -0.359483970712E+03   -0.47561E-02   -0.95952E-02  7515   0.864E-01    0.262E-01
RMM:   3    -0.359483283224E+03    0.68749E-03   -0.10900E-02  7551   0.223E-01    0.175E-01
RMM:   4    -0.359482829233E+03    0.45399E-03   -0.29526E-03  8110   0.868E-02    0.112E-01
RMM:   5    -0.359482771994E+03    0.57238E-04   -0.11588E-03  8053   0.592E-02    0.675E-02
RMM:   6    -0.359482777498E+03   -0.55040E-05   -0.44084E-04  7910   0.344E-02    0.408E-02
RMM:   7    -0.359482797597E+03   -0.20099E-04   -0.17262E-04  6404   0.211E-02    0.233E-02
RMM:   8    -0.359482809583E+03   -0.11985E-04   -0.76265E-05  5132   0.160E-02    0.132E-02
RMM:   9    -0.359482816309E+03   -0.67259E-05   -0.35381E-05  4404   0.129E-02
  18 F= -.35948282E+03 E0= -.35949340E+03  d E =-.676377E-02
       N       E                     dE             d eps       ncg     rms          rms(c)
DAV:   1    -0.359464428223E+03    0.18381E-01   -0.11645E+01  5040   0.956E+00    0.118E+00
RMM:   2    -0.359483755109E+03   -0.19327E-01   -0.38526E-01  7513   0.173E+00    0.521E-01
RMM:   3    -0.359481063719E+03    0.26914E-02   -0.42910E-02  7553   0.435E-01    0.345E-01
RMM:   4    -0.359479344215E+03    0.17195E-02   -0.11631E-02  8059   0.172E-01    0.222E-01
RMM:   5    -0.359479071706E+03    0.27251E-03   -0.44836E-03  8123   0.116E-01    0.134E-01
RMM:   6    -0.359479055555E+03    0.16151E-04   -0.17241E-03  8495   0.674E-02    0.797E-02
RMM:   7    -0.359479117812E+03   -0.62257E-04   -0.72510E-04  8036   0.419E-02    0.445E-02
RMM:   8    -0.359479146450E+03   -0.28638E-04   -0.25174E-04  6683   0.252E-02    0.278E-02
RMM:   9    -0.359479171152E+03   -0.24702E-04   -0.16577E-04  6096   0.209E-02    0.210E-02
RMM:  10    -0.359479182920E+03   -0.11767E-04   -0.57565E-05  5206   0.148E-02    0.102E-02
RMM:  11    -0.359479188016E+03   -0.50965E-05   -0.23633E-05  3866   0.114E-02
  19 F= -.35947919E+03 E0= -.35948943E+03  d E =-.313548E-02
       N       E                     dE             d eps       ncg     rms          rms(c)
DAV:   1    -0.359475345234E+03    0.38377E-02   -0.61274E+00  5040   0.694E+00    0.838E-01
RMM:   2    -0.359486125213E+03   -0.10780E-01   -0.20112E-01  7504   0.125E+00    0.379E-01
RMM:   3    -0.359484805801E+03    0.13194E-02   -0.22581E-02  7646   0.320E-01    0.256E-01
RMM:   4    -0.359483804593E+03    0.10012E-02   -0.56760E-03  7802   0.122E-01    0.167E-01
RMM:   5    -0.359483578810E+03    0.22578E-03   -0.22002E-03  7777   0.824E-02    0.100E-01
RMM:   6    -0.359483510542E+03    0.68268E-04   -0.84756E-04  8230   0.480E-02    0.591E-02
RMM:   7    -0.359483513044E+03   -0.25017E-05   -0.35700E-04  7214   0.289E-02    0.330E-02
RMM:   8    -0.359483510141E+03    0.29031E-05   -0.11710E-04  5728   0.186E-02    0.196E-02
RMM:   9    -0.359483513971E+03   -0.38301E-05   -0.83853E-05  5049   0.158E-02
  20 F= -.35948351E+03 E0= -.35949401E+03  d E =-.746143E-02
       N       E                     dE             d eps       ncg     rms          rms(c)
DAV:   1    -0.359486031209E+03   -0.25211E-02   -0.25084E-01  5424   0.148E+00    0.361E-01
RMM:   2    -0.359485619183E+03    0.41203E-03   -0.13206E-02  6554   0.300E-01    0.125E-01
RMM:   3    -0.359485282309E+03    0.33687E-03   -0.21645E-03  7461   0.102E-01    0.806E-02
RMM:   4    -0.359485111302E+03    0.17101E-03   -0.59020E-04  7708   0.457E-02    0.499E-02
RMM:   5    -0.359485081669E+03    0.29633E-04   -0.17895E-04  6861   0.257E-02    0.372E-02
RMM:   6    -0.359485076337E+03    0.53323E-05   -0.72449E-05  5191   0.146E-02
  21 F= -.35948508E+03 E0= -.35949554E+03  d E =-.156237E-02
       N       E                     dE             d eps       ncg     rms          rms(c)
DAV:   1    -0.359491397116E+03   -0.63154E-02   -0.13272E+00  5288   0.341E+00    0.827E-01
RMM:   2    -0.359489084169E+03    0.23129E-02   -0.71267E-02  6809   0.698E-01    0.288E-01
RMM:   3    -0.359487298888E+03    0.17853E-02   -0.11606E-02  7591   0.230E-01    0.192E-01
RMM:   4    -0.359486424988E+03    0.87390E-03   -0.32832E-03  7775   0.106E-01    0.120E-01
RMM:   5    -0.359486279428E+03    0.14556E-03   -0.10364E-03  7636   0.601E-02    0.905E-02
RMM:   6    -0.359486280023E+03   -0.59542E-06   -0.46651E-04  7495   0.346E-02    0.541E-02
RMM:   7    -0.359486273553E+03    0.64705E-05   -0.18761E-04  6401   0.252E-02    0.262E-02
RMM:   8    -0.359486278541E+03   -0.49880E-05   -0.11881E-04  5508   0.181E-02    0.194E-02
RMM:   9    -0.359486278520E+03    0.21024E-07   -0.39615E-05  4283   0.132E-02
  22 F= -.35948628E+03 E0= -.35949667E+03  d E =-.276455E-02
       N       E                     dE             d eps       ncg     rms          rms(c)
DAV:   1    -0.359486353833E+03   -0.75292E-04   -0.10649E-02  5712   0.304E-01    0.807E-02
RMM:   2    -0.359486322536E+03    0.31297E-04   -0.61920E-04  7265   0.635E-02    0.310E-02
RMM:   3    -0.359486307101E+03    0.15435E-04   -0.11312E-04  6334   0.213E-02    0.220E-02
RMM:   4    -0.359486296268E+03    0.10833E-04   -0.29600E-05  3256   0.131E-02    0.139E-02
RMM:   5    -0.359486294221E+03    0.20469E-05   -0.99469E-06  2825   0.989E-03
  23 F= -.35948629E+03 E0= -.35949669E+03  d E =-.278025E-02
       N       E                     dE             d eps       ncg     rms          rms(c)
DAV:   1    -0.359486374011E+03   -0.77743E-04   -0.27594E-02  5376   0.490E-01    0.117E-01
RMM:   2    -0.359486324838E+03    0.49173E-04   -0.14743E-03  7063   0.101E-01    0.413E-02
RMM:   3    -0.359486290627E+03    0.34212E-04   -0.23189E-04  7108   0.321E-02    0.283E-02
RMM:   4    -0.359486274124E+03    0.16502E-04   -0.64202E-05  5247   0.165E-02    0.182E-02
RMM:   5    -0.359486272887E+03    0.12370E-05   -0.16332E-05  2876   0.114E-02
  24 F= -.35948627E+03 E0= -.35949668E+03  d E =-.275892E-02
       N       E                     dE             d eps       ncg     rms          rms(c)
DAV:   1    -0.359486342119E+03   -0.67995E-04   -0.10134E-02  5520   0.296E-01    0.774E-02
RMM:   2    -0.359486330859E+03    0.11261E-04   -0.55226E-04  6782   0.607E-02    0.275E-02
RMM:   3    -0.359486317493E+03    0.13365E-04   -0.88555E-05  5994   0.207E-02    0.183E-02
RMM:   4    -0.359486309113E+03    0.83800E-05   -0.19289E-05  2735   0.119E-02
  25 F= -.35948631E+03 E0= -.35949671E+03  d E =-.279514E-02
       N       E                     dE             d eps       ncg     rms          rms(c)
DAV:   1    -0.359486709727E+03   -0.39223E-03   -0.28866E-02  5104   0.484E-01    0.429E-02
RMM:   2    -0.359486767664E+03   -0.57937E-04   -0.96616E-04  7026   0.891E-02    0.221E-02
RMM:   3    -0.359486760818E+03    0.68458E-05   -0.99323E-05  5150   0.254E-02
  26 F= -.35948676E+03 E0= -.35949713E+03  d E =-.451705E-03
       N       E                     dE             d eps       ncg     rms          rms(c)
DAV:   1    -0.359487389310E+03   -0.62165E-03   -0.25964E-01  5048   0.145E+00    0.131E-01
RMM:   2    -0.359487905394E+03   -0.51608E-03   -0.87882E-03  7208   0.266E-01    0.690E-02
RMM:   3    -0.359487875545E+03    0.29850E-04   -0.11651E-03  7358   0.718E-02    0.517E-02
RMM:   4    -0.359487843639E+03    0.31905E-04   -0.33859E-04  7723   0.283E-02    0.287E-02
RMM:   5    -0.359487838286E+03    0.53536E-05   -0.10901E-04  5503   0.176E-02    0.137E-02
RMM:   6    -0.359487838123E+03    0.16230E-06   -0.48873E-05  4548   0.122E-02
  27 F= -.35948784E+03 E0= -.35949814E+03  d E =-.152901E-02
       N       E                     dE             d eps       ncg     rms          rms(c)
DAV:   1    -0.359486966757E+03    0.87153E-03   -0.10390E+00  5040   0.291E+00    0.255E-01
RMM:   2    -0.359489098436E+03   -0.21317E-02   -0.34500E-02  7200   0.532E-01    0.132E-01
RMM:   3    -0.359488992567E+03    0.10587E-03   -0.44648E-03  7489   0.142E-01    0.102E-01
RMM:   4    -0.359488833570E+03    0.15900E-03   -0.11152E-03  8500   0.526E-02    0.558E-02
RMM:   5    -0.359488823838E+03    0.97317E-05   -0.44910E-04  7453   0.343E-02    0.267E-02
RMM:   6    -0.359488822959E+03    0.87912E-06   -0.16819E-04  6170   0.200E-02    0.131E-02
RMM:   7    -0.359488825636E+03   -0.26773E-05   -0.57817E-05  4751   0.132E-02
  28 F= -.35948883E+03 E0= -.35949898E+03  d E =-.251652E-02
       N       E                     dE             d eps       ncg     rms          rms(c)
DAV:   1    -0.359491268663E+03   -0.24457E-02   -0.24181E-01  5620   0.153E+00    0.471E-01
RMM:   2    -0.359490002960E+03    0.12657E-02   -0.17176E-02  6654   0.339E-01    0.153E-01
RMM:   3    -0.359489594063E+03    0.40890E-03   -0.34994E-03  7657   0.119E-01    0.104E-01
RMM:   4    -0.359489308461E+03    0.28560E-03   -0.92763E-04  7730   0.579E-02    0.639E-02
RMM:   5    -0.359489280202E+03    0.28258E-04   -0.30009E-04  7456   0.316E-02    0.482E-02
RMM:   6    -0.359489301461E+03   -0.21259E-04   -0.12027E-04  6605   0.184E-02    0.273E-02
RMM:   7    -0.359489316598E+03   -0.15137E-04   -0.47196E-05  4367   0.143E-02    0.137E-02
RMM:   8    -0.359489324986E+03   -0.83875E-05   -0.24611E-05  3479   0.114E-02
  29 F= -.35948932E+03 E0= -.35949940E+03  d E =-.499350E-03
       N       E                     dE             d eps       ncg     rms          rms(c)
DAV:   1    -0.359489406764E+03   -0.90166E-04   -0.11036E-02  5752   0.329E-01    0.968E-02
RMM:   2    -0.359489350037E+03    0.56727E-04   -0.75659E-04  6238   0.727E-02    0.301E-02
RMM:   3    -0.359489335284E+03    0.14753E-04   -0.13823E-04  6550   0.253E-02    0.203E-02
RMM:   4    -0.359489326686E+03    0.85975E-05   -0.32517E-05  3524   0.133E-02
  30 F= -.35948933E+03 E0= -.35949939E+03  d E =-.501050E-03
       N       E                     dE             d eps       ncg     rms          rms(c)
DAV:   1    -0.359489525686E+03   -0.19040E-03   -0.19006E-01  5056   0.125E+00    0.108E-01
RMM:   2    -0.359489978427E+03   -0.45274E-03   -0.61670E-03  7396   0.225E-01    0.582E-02
RMM:   3    -0.359489945875E+03    0.32552E-04   -0.71387E-04  7380   0.588E-02    0.437E-02
RMM:   4    -0.359489929058E+03    0.16817E-04   -0.17473E-04  6710   0.216E-02    0.267E-02
RMM:   5    -0.359489926774E+03    0.22837E-05   -0.67733E-05  5275   0.130E-02
  31 F= -.35948993E+03 E0= -.35949995E+03  d E =-.600088E-03
       N       E                     dE             d eps       ncg     rms          rms(c)
DAV:   1    -0.359487125165E+03    0.28039E-02   -0.17085E+00  5040   0.374E+00    0.315E-01
RMM:   2    -0.359491132966E+03   -0.40078E-02   -0.55065E-02  7302   0.671E-01    0.165E-01
RMM:   3    -0.359490848933E+03    0.28403E-03   -0.63114E-03  7530   0.173E-01    0.123E-01
RMM:   4    -0.359490686805E+03    0.16213E-03   -0.13811E-03  8630   0.602E-02    0.787E-02
RMM:   5    -0.359490664372E+03    0.22433E-04   -0.61446E-04  7954   0.408E-02    0.440E-02
RMM:   6    -0.359490639107E+03    0.25265E-04   -0.22652E-04  6961   0.259E-02    0.211E-02
RMM:   7    -0.359490638404E+03    0.70254E-06   -0.65285E-05  4943   0.143E-02
  32 F= -.35949064E+03 E0= -.35950054E+03  d E =-.131172E-02
       N       E                     dE             d eps       ncg     rms          rms(c)
DAV:   1    -0.359491412687E+03   -0.77358E-03   -0.15446E-01  5264   0.119E+00    0.273E-01
RMM:   2    -0.359491179773E+03    0.23291E-03   -0.86819E-03  7242   0.246E-01    0.980E-02
RMM:   3    -0.359491005888E+03    0.17389E-03   -0.13184E-03  7572   0.777E-02    0.654E-02
RMM:   4    -0.359490901967E+03    0.10392E-03   -0.37577E-04  7621   0.355E-02    0.419E-02
RMM:   5    -0.359490880675E+03    0.21293E-04   -0.12765E-04  6656   0.198E-02    0.303E-02
RMM:   6    -0.359490873914E+03    0.67611E-05   -0.51324E-05  4655   0.128E-02
  33 F= -.35949087E+03 E0= -.35950076E+03  d E =-.235509E-03
       N       E                     dE             d eps       ncg     rms          rms(c)
DAV:   1    -0.359490908568E+03   -0.27893E-04   -0.12045E-02  5408   0.332E-01    0.743E-02
RMM:   2    -0.359490888720E+03    0.19848E-04   -0.67695E-04  7372   0.688E-02    0.263E-02
RMM:   3    -0.359490873556E+03    0.15164E-04   -0.10189E-04  6415   0.212E-02    0.181E-02
RMM:   4    -0.359490865043E+03    0.85124E-05   -0.28223E-05  3661   0.124E-02
  34 F= -.35949087E+03 E0= -.35950074E+03  d E =-.226639E-03
       N       E                     dE             d eps       ncg     rms          rms(c)
DAV:   1    -0.359491172080E+03   -0.29852E-03   -0.85526E-02  5064   0.858E-01    0.157E-01
RMM:   2    -0.359491167550E+03    0.45296E-05   -0.39391E-03  7534   0.167E-01    0.666E-02
RMM:   3    -0.359491118430E+03    0.49121E-04   -0.61202E-04  7582   0.472E-02    0.424E-02
RMM:   4    -0.359491083223E+03    0.35207E-04   -0.18309E-04  7006   0.240E-02    0.246E-02
RMM:   5    -0.359491076364E+03    0.68585E-05   -0.56575E-05  4297   0.124E-02
  35 F= -.35949108E+03 E0= -.35950092E+03  d E =-.211321E-03
       N       E                     dE             d eps       ncg     rms          rms(c)
DAV:   1    -0.359491198816E+03   -0.11559E-03   -0.80905E-02  5048   0.835E-01    0.145E-01
RMM:   2    -0.359491195489E+03    0.33266E-05   -0.37006E-03  7528   0.161E-01    0.617E-02
RMM:   3    -0.359491149678E+03    0.45811E-04   -0.56214E-04  7498   0.449E-02    0.401E-02
RMM:   4    -0.359491121908E+03    0.27770E-04   -0.17531E-04  6875   0.232E-02    0.248E-02
RMM:   5    -0.359491119160E+03    0.27482E-05   -0.55962E-05  4301   0.124E-02
  36 F= -.35949112E+03 E0= -.35950094E+03  d E =-.254117E-03
       N       E                     dE             d eps       ncg     rms          rms(c)
DAV:   1    -0.359491133596E+03   -0.11688E-04   -0.21548E-03  5480   0.136E-01    0.286E-02
RMM:   2    -0.359491138376E+03   -0.47791E-05   -0.11103E-04  6939   0.282E-02    0.121E-02
RMM:   3    -0.359491137154E+03    0.12216E-05   -0.10394E-05  2852   0.961E-03
  37 F= -.35949114E+03 E0= -.35950096E+03  d E =-.272111E-03
       N       E                     dE             d eps       ncg     rms          rms(c)
DAV:   1    -0.359491151206E+03   -0.12831E-04   -0.14286E-02  5144   0.350E-01    0.641E-02
RMM:   2    -0.359491148999E+03    0.22070E-05   -0.67113E-04  7531   0.689E-02    0.273E-02
RMM:   3    -0.359491135548E+03    0.13451E-04   -0.90945E-05  6542   0.193E-02    0.173E-02
RMM:   4    -0.359491129221E+03    0.63270E-05   -0.23403E-05  3114   0.124E-02
  38 F= -.35949113E+03 E0= -.35950097E+03  d E =-.264178E-03
       N       E                     dE             d eps       ncg     rms          rms(c)
DAV:   1    -0.359491144221E+03   -0.86723E-05   -0.60121E-03  5128   0.227E-01    0.422E-02
RMM:   2    -0.359491141870E+03    0.23503E-05   -0.25600E-04  7448   0.436E-02    0.169E-02
RMM:   3    -0.359491136908E+03    0.49620E-05   -0.26547E-05  3306   0.115E-02
  39 F= -.35949114E+03 E0= -.35950097E+03  d E =-.271865E-03
       N       E                     dE             d eps       ncg     rms          rms(c)
DAV:   1    -0.359491137270E+03    0.46008E-05   -0.74874E-04  5312   0.790E-02    0.153E-02
RMM:   2    -0.359491136091E+03    0.11785E-05   -0.40170E-05  5045   0.167E-02
  40 F= -.35949114E+03 E0= -.35950096E+03  d E =-.271048E-03
       N       E                     dE             d eps       ncg     rms          rms(c)
DAV:   1    -0.359491215051E+03   -0.77781E-04   -0.87572E-03  5148   0.289E-01    0.656E-02
RMM:   2    -0.359491199203E+03    0.15848E-04   -0.52934E-04  7160   0.616E-02    0.238E-02
RMM:   3    -0.359491190793E+03    0.84095E-05   -0.70745E-05  6136   0.199E-02
  41 F= -.35949119E+03 E0= -.35950101E+03  d E =-.547023E-04
