       N       E                     dE             d eps       ncg     rms          rms(c)
DAV:   1     0.183950974920E+04    0.18395E+04   -0.10941E+05  5480   0.103E+03
DAV:   2    -0.725764727753E+02   -0.19121E+04   -0.18336E+04  5504   0.367E+02
DAV:   3    -0.336207357528E+03   -0.26363E+03   -0.25025E+03  8728   0.103E+02
DAV:   4    -0.369370412985E+03   -0.33163E+02   -0.31687E+02  8432   0.312E+01
DAV:   5    -0.372741196318E+03   -0.33708E+01   -0.33113E+01  7928   0.100E+01    0.651E+01
RMM:   6    -0.362762187799E+03    0.99790E+01   -0.25888E+01  7372   0.995E+00    0.308E+01
RMM:   7    -0.367018528725E+03   -0.42563E+01   -0.30122E+01  7557   0.793E+00    0.147E+01
RMM:   8    -0.358277295167E+03    0.87412E+01   -0.91985E+00  7527   0.461E+00    0.436E+00
RMM:   9    -0.357853469035E+03    0.42383E+00   -0.27169E+00  7645   0.190E+00    0.287E+00
RMM:  10    -0.357858929408E+03   -0.54604E-02   -0.70900E-01  7649   0.114E+00    0.200E+00
RMM:  11    -0.357801061213E+03    0.57868E-01   -0.17182E-01  7541   0.659E-01    0.954E-01
RMM:  12    -0.357800425067E+03    0.63615E-03   -0.84241E-02  7679   0.452E-01    0.442E-01
RMM:  13    -0.357797458863E+03    0.29662E-02   -0.22666E-02  7615   0.222E-01    0.243E-01
RMM:  14    -0.357797636043E+03   -0.17718E-03   -0.10027E-02  7758   0.116E-01    0.153E-01
RMM:  15    -0.357797819169E+03   -0.18313E-03   -0.46952E-03  7785   0.738E-02    0.771E-02
RMM:  16    -0.357797883897E+03   -0.64728E-04   -0.18243E-03  7362   0.432E-02    0.444E-02
RMM:  17    -0.357797887632E+03   -0.37348E-05   -0.79807E-04  6222   0.280E-02    0.212E-02
RMM:  18    -0.357797910180E+03   -0.22548E-04   -0.38334E-04  6088   0.211E-02    0.115E-02
RMM:  19    -0.357797918176E+03   -0.79954E-05   -0.13799E-04  4929   0.136E-02    0.684E-03
RMM:  20    -0.357797921412E+03   -0.32360E-05   -0.75951E-05  4615   0.112E-02
   1 F= -.35779792E+03 E0= -.35780080E+03  d E =-.357798E+03
       N       E                     dE             d eps       ncg     rms          rms(c)
DAV:   1    -0.357875198222E+03   -0.77280E-01   -0.25017E+00  6096   0.498E+00    0.196E+00
RMM:   2    -0.357851707716E+03    0.23491E-01   -0.21088E-01  7350   0.115E+00    0.667E-01
RMM:   3    -0.357844128454E+03    0.75793E-02   -0.65422E-02  7717   0.435E-01    0.506E-01
RMM:   4    -0.357836148466E+03    0.79800E-02   -0.15986E-02  7736   0.266E-01    0.266E-01
RMM:   5    -0.357835660993E+03    0.48747E-03   -0.51616E-03  7647   0.132E-01    0.207E-01
RMM:   6    -0.357835916228E+03   -0.25523E-03   -0.22656E-03  8070   0.739E-02    0.128E-01
RMM:   7    -0.357835956568E+03   -0.40340E-04   -0.89366E-04  7508   0.521E-02    0.667E-02
RMM:   8    -0.357836026969E+03   -0.70401E-04   -0.46154E-04  6880   0.311E-02    0.496E-02
RMM:   9    -0.357836093647E+03   -0.66678E-04   -0.18047E-04  6284   0.226E-02    0.355E-02
RMM:  10    -0.357836140096E+03   -0.46450E-04   -0.10636E-04  5282   0.167E-02    0.217E-02
RMM:  11    -0.357836161235E+03   -0.21139E-04   -0.47902E-05  4555   0.134E-02    0.114E-02
RMM:  12    -0.357836173898E+03   -0.12663E-04   -0.29006E-05  4008   0.123E-02    0.449E-03
RMM:  13    -0.357836177018E+03   -0.31201E-05   -0.15424E-05  3635   0.120E-02
   2 F= -.35783618E+03 E0= -.35783897E+03  d E =-.382556E-01
       N       E                     dE             d eps       ncg     rms          rms(c)
DAV:   1    -0.358022671142E+03   -0.18650E+00   -0.99839E+00  5624   0.996E+00    0.397E+00
RMM:   2    -0.357927339739E+03    0.95331E-01   -0.83087E-01  7310   0.229E+00    0.133E+00
RMM:   3    -0.357897707164E+03    0.29633E-01   -0.26092E-01  7731   0.870E-01    0.101E+00
RMM:   4    -0.357865616615E+03    0.32091E-01   -0.62220E-02  7728   0.526E-01    0.534E-01
RMM:   5    -0.357863831329E+03    0.17853E-02   -0.20442E-02  7676   0.257E-01    0.417E-01
RMM:   6    -0.357864708798E+03   -0.87747E-03   -0.85532E-03  8311   0.146E-01    0.247E-01
RMM:   7    -0.357864872830E+03   -0.16403E-03   -0.36568E-03  8428   0.102E-01    0.131E-01
RMM:   8    -0.357865110013E+03   -0.23718E-03   -0.17600E-03  8068   0.612E-02    0.100E-01
RMM:   9    -0.357865340232E+03   -0.23022E-03   -0.72468E-04  7387   0.422E-02    0.726E-02
RMM:  10    -0.357865484303E+03   -0.14407E-03   -0.36155E-04  6188   0.283E-02    0.450E-02
RMM:  11    -0.357865554486E+03   -0.70183E-04   -0.18930E-04  6408   0.230E-02    0.234E-02
RMM:  12    -0.357865591002E+03   -0.36515E-04   -0.10965E-04  5466   0.180E-02    0.829E-03
RMM:  13    -0.357865597208E+03   -0.62066E-05   -0.49156E-05  4613   0.148E-02
   3 F= -.35786560E+03 E0= -.35786818E+03  d E =-.676758E-01
       N       E                     dE             d eps       ncg     rms          rms(c)
DAV:   1    -0.357897924324E+03   -0.32333E-01   -0.22847E+00  5184   0.393E+00    0.654E-01
RMM:   2    -0.357904423575E+03   -0.64993E-02   -0.82919E-02  7496   0.707E-01    0.454E-01
RMM:   3    -0.357896917539E+03    0.75060E-02   -0.15809E-02  7633   0.246E-01    0.218E-01
RMM:   4    -0.357896367765E+03    0.54977E-03   -0.40192E-03  7589   0.956E-02    0.139E-01
RMM:   5    -0.357896069386E+03    0.29838E-03   -0.13320E-03  7817   0.641E-02    0.837E-02
RMM:   6    -0.357896036693E+03    0.32693E-04   -0.55512E-04  7851   0.373E-02    0.526E-02
RMM:   7    -0.357896024807E+03    0.11886E-04   -0.21650E-04  6707   0.228E-02    0.329E-02
RMM:   8    -0.357896022134E+03    0.26731E-05   -0.93337E-05  5534   0.160E-02
   4 F= -.35789602E+03 E0= -.35789873E+03  d E =-.304249E-01
       N       E                     dE             d eps       ncg     rms          rms(c)
DAV:   1    -0.357962827665E+03   -0.66803E-01   -0.20533E+01  5040   0.118E+01    0.192E+00
RMM:   2    -0.358011721788E+03   -0.48894E-01   -0.71254E-01  7492   0.210E+00    0.127E+00
RMM:   3    -0.357956259910E+03    0.55462E-01   -0.13809E-01  7702   0.717E-01    0.650E-01
RMM:   4    -0.357950849147E+03    0.54108E-02   -0.33442E-02  7616   0.280E-01    0.409E-01
RMM:   5    -0.357948393904E+03    0.24552E-02   -0.11968E-02  7756   0.192E-01    0.249E-01
RMM:   6    -0.357948156077E+03    0.23783E-03   -0.48214E-03  7923   0.111E-01    0.159E-01
RMM:   7    -0.357948134934E+03    0.21143E-04   -0.19733E-03  8449   0.671E-02    0.102E-01
RMM:   8    -0.357948171414E+03   -0.36479E-04   -0.95510E-04  7640   0.418E-02    0.584E-02
RMM:   9    -0.357948178005E+03   -0.65917E-05   -0.41374E-04  6811   0.319E-02    0.334E-02
RMM:  10    -0.357948188135E+03   -0.10130E-04   -0.20270E-04  6146   0.218E-02    0.220E-02
RMM:  11    -0.357948188607E+03   -0.47187E-06   -0.83703E-05  5534   0.165E-02
   5 F= -.35794819E+03 E0= -.35795122E+03  d E =-.825914E-01
       N       E                     dE             d eps       ncg     rms          rms(c)
DAV:   1    -0.357955096447E+03   -0.69083E-02   -0.30777E+00  5064   0.457E+00    0.744E-01
RMM:   2    -0.357961921528E+03   -0.68251E-02   -0.10506E-01  7493   0.809E-01    0.473E-01
RMM:   3    -0.357953839730E+03    0.80818E-02   -0.19596E-02  7623   0.272E-01    0.243E-01
RMM:   4    -0.357953109675E+03    0.73006E-03   -0.50974E-03  7606   0.108E-01    0.154E-01
RMM:   5    -0.357952738947E+03    0.37073E-03   -0.17607E-03  7806   0.734E-02    0.940E-02
RMM:   6    -0.357952711048E+03    0.27899E-04   -0.71718E-04  7827   0.424E-02    0.603E-02
RMM:   7    -0.357952704949E+03    0.60992E-05   -0.29384E-04  6686   0.263E-02    0.389E-02
RMM:   8    -0.357952703259E+03    0.16898E-05   -0.13717E-04  5927   0.191E-02    0.217E-02
RMM:   9    -0.357952701891E+03    0.13678E-05   -0.70771E-05  5201   0.155E-02
   6 F= -.35795270E+03 E0= -.35795586E+03  d E =-.871047E-01
       N       E                     dE             d eps       ncg     rms          rms(c)
DAV:   1    -0.357962352891E+03   -0.96496E-02   -0.66909E-01  5664   0.246E+00    0.673E-01
RMM:   2    -0.357961345359E+03    0.10075E-02   -0.43560E-02  6689   0.530E-01    0.234E-01
RMM:   3    -0.357960374716E+03    0.97064E-03   -0.83375E-03  7641   0.184E-01    0.173E-01
RMM:   4    -0.357959542709E+03    0.83201E-03   -0.20824E-03  7717   0.875E-02    0.942E-02
RMM:   5    -0.357959462139E+03    0.80569E-04   -0.70379E-04  7526   0.498E-02    0.727E-02
RMM:   6    -0.357959455172E+03    0.69679E-05   -0.29452E-04  7078   0.275E-02    0.433E-02
RMM:   7    -0.357959447993E+03    0.71787E-05   -0.10919E-04  6215   0.203E-02    0.233E-02
RMM:   8    -0.357959446771E+03    0.12216E-05   -0.68110E-05  4720   0.142E-02
   7 F= -.35795945E+03 E0= -.35796270E+03  d E =-.674488E-02
       N       E                     dE             d eps       ncg     rms          rms(c)
DAV:   1    -0.357977890765E+03   -0.18443E-01   -0.30118E+00  5376   0.521E+00    0.142E+00
RMM:   2    -0.357973212647E+03    0.46781E-02   -0.19596E-01  6732   0.112E+00    0.498E-01
RMM:   3    -0.357968872258E+03    0.43404E-02   -0.37847E-02  7657   0.387E-01    0.370E-01
RMM:   4    -0.357965135015E+03    0.37372E-02   -0.93872E-03  7735   0.187E-01    0.203E-01
RMM:   5    -0.357964789347E+03    0.34567E-03   -0.32620E-03  7651   0.102E-01    0.156E-01
RMM:   6    -0.357964793133E+03   -0.37858E-05   -0.13111E-03  8118   0.577E-02    0.929E-02
RMM:   7    -0.357964795145E+03   -0.20120E-05   -0.54679E-04  7018   0.420E-02    0.494E-02
RMM:   8    -0.357964807685E+03   -0.12539E-04   -0.30103E-04  6567   0.259E-02    0.348E-02
RMM:   9    -0.357964816523E+03   -0.88386E-05   -0.12442E-04  5282   0.202E-02    0.273E-02
RMM:  10    -0.357964820805E+03   -0.42815E-05   -0.60434E-05  4779   0.142E-02
   8 F= -.35796482E+03 E0= -.35796826E+03  d E =-.121189E-01
       N       E                     dE             d eps       ncg     rms          rms(c)
DAV:   1    -0.357969157868E+03   -0.43413E-02   -0.33792E-01  5296   0.168E+00    0.327E-01
RMM:   2    -0.357969538013E+03   -0.38015E-03   -0.17486E-02  7331   0.338E-01    0.132E-01
RMM:   3    -0.357969231105E+03    0.30691E-03   -0.23920E-03  7459   0.946E-02    0.955E-02
RMM:   4    -0.357969039745E+03    0.19136E-03   -0.63845E-04  7664   0.452E-02    0.547E-02
RMM:   5    -0.357969021784E+03    0.17961E-04   -0.23214E-04  7139   0.280E-02    0.387E-02
RMM:   6    -0.357969025009E+03   -0.32251E-05   -0.10218E-04  6690   0.169E-02    0.221E-02
RMM:   7    -0.357969029015E+03   -0.40066E-05   -0.34013E-05  3678   0.117E-02
   9 F= -.35796903E+03 E0= -.35797247E+03  d E =-.420821E-02
       N       E                     dE             d eps       ncg     rms          rms(c)
DAV:   1    -0.357978211410E+03   -0.91864E-02   -0.30365E+00  5152   0.504E+00    0.976E-01
RMM:   2    -0.357981537987E+03   -0.33266E-02   -0.15428E-01  7195   0.101E+00    0.381E-01
RMM:   3    -0.357978631223E+03    0.29068E-02   -0.20099E-02  7380   0.285E-01    0.275E-01
RMM:   4    -0.357977002590E+03    0.16286E-02   -0.54673E-03  7717   0.132E-01    0.155E-01
RMM:   5    -0.357976881793E+03    0.12080E-03   -0.19732E-03  7645   0.800E-02    0.112E-01
RMM:   6    -0.357976908235E+03   -0.26442E-04   -0.87920E-04  7882   0.490E-02    0.665E-02
RMM:   7    -0.357976935917E+03   -0.27682E-04   -0.35392E-04  6944   0.315E-02    0.354E-02
RMM:   8    -0.357976963236E+03   -0.27319E-04   -0.13611E-04  5759   0.195E-02    0.246E-02
RMM:   9    -0.357976979695E+03   -0.16459E-04   -0.79765E-05  4907   0.159E-02    0.174E-02
RMM:  10    -0.357976991276E+03   -0.11581E-04   -0.34012E-05  4291   0.130E-02    0.103E-02
RMM:  11    -0.357976999435E+03   -0.81593E-05   -0.16386E-05  3549   0.109E-02
  10 F= -.35797700E+03 E0= -.35798040E+03  d E =-.121786E-01
       N       E                     dE             d eps       ncg     rms          rms(c)
DAV:   1    -0.357976933675E+03    0.57601E-04   -0.12150E+01  5152   0.101E+01    0.198E+00
RMM:   2    -0.357989697324E+03   -0.12764E-01   -0.61681E-01  7209   0.202E+00    0.765E-01
RMM:   3    -0.357978415773E+03    0.11282E-01   -0.81386E-02  7424   0.570E-01    0.551E-01
RMM:   4    -0.357971671067E+03    0.67447E-02   -0.21872E-02  7727   0.268E-01    0.308E-01
RMM:   5    -0.357971178423E+03    0.49264E-03   -0.79441E-03  7675   0.160E-01    0.223E-01
RMM:   6    -0.357971221733E+03   -0.43310E-04   -0.34298E-03  8177   0.976E-02    0.133E-01
RMM:   7    -0.357971295610E+03   -0.73877E-04   -0.13893E-03  8168   0.618E-02    0.708E-02
RMM:   8    -0.357971388422E+03   -0.92811E-04   -0.61800E-04  7131   0.351E-02    0.504E-02
RMM:   9    -0.357971430537E+03   -0.42115E-04   -0.22363E-04  5999   0.256E-02    0.362E-02
RMM:  10    -0.357971468623E+03   -0.38086E-04   -0.12626E-04  5658   0.184E-02    0.216E-02
RMM:  11    -0.357971492611E+03   -0.23988E-04   -0.63008E-05  5206   0.150E-02    0.785E-03
RMM:  12    -0.357971498846E+03   -0.62355E-05   -0.26627E-05  4158   0.122E-02
  11 F= -.35797150E+03 E0= -.35797469E+03  d E =-.667804E-02
       N       E                     dE             d eps       ncg     rms          rms(c)
DAV:   1    -0.357980059917E+03   -0.85673E-02   -0.58588E+00  5152   0.702E+00    0.135E+00
RMM:   2    -0.357987836932E+03   -0.77770E-02   -0.29909E-01  7135   0.140E+00    0.531E-01
RMM:   3    -0.357982180284E+03    0.56566E-02   -0.39056E-02  7411   0.408E-01    0.391E-01
RMM:   4    -0.357978843761E+03    0.33365E-02   -0.10174E-02  7673   0.183E-01    0.223E-01
RMM:   5    -0.357978473774E+03    0.36999E-03   -0.36475E-03  7622   0.111E-01    0.159E-01
RMM:   6    -0.357978388583E+03    0.85191E-04   -0.16542E-03  7990   0.681E-02    0.920E-02
RMM:   7    -0.357978361139E+03    0.27444E-04   -0.65862E-04  7432   0.427E-02    0.473E-02
RMM:   8    -0.357978371379E+03   -0.10240E-04   -0.26592E-04  6539   0.242E-02    0.339E-02
RMM:   9    -0.357978375624E+03   -0.42455E-05   -0.11280E-04  5411   0.191E-02    0.245E-02
RMM:  10    -0.357978377173E+03   -0.15485E-05   -0.51107E-05  4712   0.138E-02
  12 F= -.35797838E+03 E0= -.35798173E+03  d E =-.135564E-01
       N       E                     dE             d eps       ncg     rms          rms(c)
DAV:   1    -0.357980368563E+03   -0.19929E-02   -0.20683E-01  5144   0.128E+00    0.855E-02
RMM:   2    -0.357980998785E+03   -0.63022E-03   -0.68195E-03  7113   0.226E-01    0.691E-02
RMM:   3    -0.357980816073E+03    0.18271E-03   -0.68115E-04  7297   0.662E-02    0.380E-02
RMM:   4    -0.357980811784E+03    0.42893E-05   -0.16920E-04  6511   0.179E-02    0.270E-02
RMM:   5    -0.357980805781E+03    0.60030E-05   -0.52772E-05  4665   0.121E-02
  13 F= -.35798081E+03 E0= -.35798416E+03  d E =-.242861E-02
       N       E                     dE             d eps       ncg     rms          rms(c)
DAV:   1    -0.357982695730E+03   -0.18839E-02   -0.18615E+00  5040   0.384E+00    0.254E-01
RMM:   2    -0.357988235680E+03   -0.55399E-02   -0.60560E-02  6939   0.675E-01    0.196E-01
RMM:   3    -0.357986864807E+03    0.13709E-02   -0.64814E-03  7404   0.199E-01    0.113E-01
RMM:   4    -0.357986847090E+03    0.17717E-04   -0.16392E-03  8625   0.535E-02    0.781E-02
RMM:   5    -0.357986813789E+03    0.33301E-04   -0.56843E-04  7836   0.382E-02    0.460E-02
RMM:   6    -0.357986811443E+03    0.23461E-05   -0.24511E-04  7325   0.267E-02    0.209E-02
RMM:   7    -0.357986805885E+03    0.55581E-05   -0.79878E-05  5125   0.146E-02
  14 F= -.35798681E+03 E0= -.35799017E+03  d E =-.842871E-02
       N       E                     dE             d eps       ncg     rms          rms(c)
DAV:   1    -0.357976464254E+03    0.10347E-01   -0.74539E+00  5040   0.769E+00    0.514E-01
RMM:   2    -0.357998259589E+03   -0.21795E-01   -0.24165E-01  6867   0.134E+00    0.381E-01
RMM:   3    -0.357993148779E+03    0.51108E-02   -0.25834E-02  7403   0.403E-01    0.222E-01
RMM:   4    -0.357993057163E+03    0.91616E-04   -0.65478E-03  8740   0.107E-01    0.153E-01
RMM:   5    -0.357992919832E+03    0.13733E-03   -0.22071E-03  8303   0.757E-02    0.918E-02
RMM:   6    -0.357992911493E+03    0.83391E-05   -0.96511E-04  8334   0.533E-02    0.414E-02
RMM:   7    -0.357992892587E+03    0.18906E-04   -0.35596E-04  7600   0.273E-02    0.233E-02
RMM:   8    -0.357992898234E+03   -0.56470E-05   -0.12440E-04  5686   0.176E-02    0.153E-02
RMM:   9    -0.357992906260E+03   -0.80260E-05   -0.80400E-05  5019   0.148E-02
  15 F= -.35799291E+03 E0= -.35799625E+03  d E =-.145291E-01
       N       E                     dE             d eps       ncg     rms          rms(c)
DAV:   1    -0.357992198136E+03    0.70010E-03   -0.43062E-01  5320   0.185E+00    0.122E-01
RMM:   2    -0.357993502037E+03   -0.13039E-02   -0.14397E-02  7002   0.328E-01    0.945E-02
RMM:   3    -0.357993190044E+03    0.31199E-03   -0.15589E-03  7323   0.960E-02    0.547E-02
RMM:   4    -0.357993188365E+03    0.16794E-05   -0.40874E-04  7828   0.264E-02    0.386E-02
RMM:   5    -0.357993181801E+03    0.65643E-05   -0.13946E-04  6365   0.188E-02    0.225E-02
RMM:   6    -0.357993182717E+03   -0.91653E-06   -0.64215E-05  5101   0.146E-02
  16 F= -.35799318E+03 E0= -.35799652E+03  d E =-.148055E-01
       N       E                     dE             d eps       ncg     rms          rms(c)
DAV:   1    -0.357998514324E+03   -0.53325E-02   -0.91066E-01  5288   0.289E+00    0.724E-01
RMM:   2    -0.357997721231E+03    0.79309E-03   -0.57652E-02  7028   0.616E-01    0.269E-01
RMM:   3    -0.357996228978E+03    0.14923E-02   -0.10459E-02  7645   0.214E-01    0.191E-01
RMM:   4    -0.357995319562E+03    0.90942E-03   -0.26254E-03  7741   0.983E-02    0.106E-01
RMM:   5    -0.357995178484E+03    0.14108E-03   -0.88673E-04  7665   0.548E-02    0.810E-02
RMM:   6    -0.357995161179E+03    0.17305E-04   -0.36686E-04  7298   0.319E-02    0.487E-02
RMM:   7    -0.357995148295E+03    0.12885E-04   -0.14472E-04  6353   0.227E-02    0.247E-02
RMM:   8    -0.357995147152E+03    0.11427E-05   -0.79655E-05  5073   0.156E-02
  17 F= -.35799515E+03 E0= -.35799852E+03  d E =-.196443E-02
       N       E                     dE             d eps       ncg     rms          rms(c)
DAV:   1    -0.357998143780E+03   -0.29955E-02   -0.94104E-01  5272   0.294E+00    0.725E-01
RMM:   2    -0.357997340328E+03    0.80345E-03   -0.59083E-02  7006   0.624E-01    0.267E-01
RMM:   3    -0.357995792542E+03    0.15478E-02   -0.10430E-02  7631   0.215E-01    0.188E-01
RMM:   4    -0.357994914513E+03    0.87803E-03   -0.26371E-03  7728   0.985E-02    0.106E-01
RMM:   5    -0.357994783728E+03    0.13078E-03   -0.89136E-04  7710   0.547E-02    0.821E-02
RMM:   6    -0.357994774947E+03    0.87814E-05   -0.37431E-04  7331   0.320E-02    0.504E-02
RMM:   7    -0.357994766816E+03    0.81308E-05   -0.15146E-04  6390   0.230E-02    0.261E-02
RMM:   8    -0.357994768137E+03   -0.13202E-05   -0.92730E-05  5112   0.165E-02
  18 F= -.35799477E+03 E0= -.35799817E+03  d E =-.158542E-02
       N       E                     dE             d eps       ncg     rms          rms(c)
DAV:   1    -0.357996428651E+03   -0.16618E-02   -0.29997E-01  5376   0.166E+00    0.423E-01
RMM:   2    -0.357996094564E+03    0.33409E-03   -0.19147E-02  7038   0.354E-01    0.159E-01
RMM:   3    -0.357995598043E+03    0.49652E-03   -0.35036E-03  7626   0.122E-01    0.113E-01
RMM:   4    -0.357995285846E+03    0.31220E-03   -0.86932E-04  7716   0.574E-02    0.621E-02
RMM:   5    -0.357995239828E+03    0.46018E-04   -0.29229E-04  7152   0.314E-02    0.462E-02
RMM:   6    -0.357995244570E+03   -0.47423E-05   -0.11083E-04  6715   0.189E-02    0.268E-02
RMM:   7    -0.357995250654E+03   -0.60844E-05   -0.39826E-05  4008   0.133E-02
  19 F= -.35799525E+03 E0= -.35799863E+03  d E =-.206794E-02
       N       E                     dE             d eps       ncg     rms          rms(c)
DAV:   1    -0.357995823597E+03   -0.57903E-03   -0.19344E-01  5104   0.128E+00    0.126E-01
RMM:   2    -0.357996324259E+03   -0.50066E-03   -0.70023E-03  7310   0.236E-01    0.677E-02
RMM:   3    -0.357996214272E+03    0.10999E-03   -0.68734E-04  7408   0.629E-02    0.465E-02
RMM:   4    -0.357996194169E+03    0.20103E-04   -0.15610E-04  7024   0.216E-02    0.292E-02
RMM:   5    -0.357996195170E+03   -0.10006E-05   -0.62953E-05  4868   0.135E-02
  20 F= -.35799620E+03 E0= -.35799954E+03  d E =-.944515E-03
       N       E                     dE             d eps       ncg     rms          rms(c)
DAV:   1    -0.357994017533E+03    0.21766E-02   -0.17384E+00  5040   0.384E+00    0.388E-01
RMM:   2    -0.357998499999E+03   -0.44825E-02   -0.63502E-02  7437   0.709E-01    0.209E-01
RMM:   3    -0.357997660706E+03    0.83929E-03   -0.67693E-03  7508   0.187E-01    0.145E-01
RMM:   4    -0.357997446316E+03    0.21439E-03   -0.16009E-03  8244   0.672E-02    0.898E-02
RMM:   5    -0.357997434416E+03    0.11900E-04   -0.72295E-04  8125   0.438E-02    0.543E-02
RMM:   6    -0.357997427382E+03    0.70338E-05   -0.28267E-04  7512   0.286E-02    0.303E-02
RMM:   7    -0.357997434077E+03   -0.66954E-05   -0.88464E-05  5179   0.166E-02
  21 F= -.35799743E+03 E0= -.35800065E+03  d E =-.218342E-02
       N       E                     dE             d eps       ncg     rms          rms(c)
DAV:   1    -0.357998224993E+03   -0.79761E-03   -0.31451E-02  5840   0.554E-01    0.199E-01
RMM:   2    -0.357997992390E+03    0.23260E-03   -0.26503E-03  7228   0.131E-01    0.664E-02
RMM:   3    -0.357997899840E+03    0.92550E-04   -0.68542E-04  7622   0.481E-02    0.483E-02
RMM:   4    -0.357997837324E+03    0.62516E-04   -0.16926E-04  7050   0.263E-02    0.268E-02
RMM:   5    -0.357997833193E+03    0.41306E-05   -0.46577E-05  4416   0.156E-02
  22 F= -.35799783E+03 E0= -.35800105E+03  d E =-.399116E-03
       N       E                     dE             d eps       ncg     rms          rms(c)
DAV:   1    -0.358000110034E+03   -0.22727E-02   -0.16260E-01  5568   0.126E+00    0.455E-01
RMM:   2    -0.357998911340E+03    0.11987E-02   -0.13730E-02  7396   0.298E-01    0.153E-01
RMM:   3    -0.357998437071E+03    0.47427E-03   -0.36103E-03  7751   0.108E-01    0.115E-01
RMM:   4    -0.357998073800E+03    0.36327E-03   -0.88035E-04  7651   0.614E-02    0.642E-02
RMM:   5    -0.357998047152E+03    0.26648E-04   -0.29627E-04  7099   0.313E-02    0.507E-02
RMM:   6    -0.357998074036E+03   -0.26884E-04   -0.12339E-04  6558   0.189E-02    0.307E-02
RMM:   7    -0.357998090244E+03   -0.16208E-04   -0.54673E-05  4495   0.146E-02    0.168E-02
RMM:   8    -0.357998100428E+03   -0.10184E-04   -0.33835E-05  3775   0.120E-02    0.112E-02
RMM:   9    -0.357998109124E+03   -0.86959E-05   -0.20196E-05  3724   0.113E-02
  23 F= -.35799811E+03 E0= -.35800128E+03  d E =-.675046E-03
       N       E                     dE             d eps       ncg     rms          rms(c)
DAV:   1    -0.357998377154E+03   -0.27673E-03   -0.23083E-02  5352   0.426E-01    0.638E-02
RMM:   2    -0.357998422582E+03   -0.45428E-04   -0.91307E-04  7381   0.816E-02    0.313E-02
RMM:   3    -0.357998411672E+03    0.10910E-04   -0.14151E-04  6131   0.233E-02    0.227E-02
RMM:   4    -0.357998403982E+03    0.76902E-05   -0.35144E-05  3937   0.125E-02
  24 F= -.35799840E+03 E0= -.35800158E+03  d E =-.294858E-03
       N       E                     dE             d eps       ncg     rms          rms(c)
DAV:   1    -0.357998612514E+03   -0.20084E-03   -0.20649E-01  5056   0.128E+00    0.180E-01
RMM:   2    -0.357998992645E+03   -0.38013E-03   -0.77681E-03  7485   0.241E-01    0.903E-02
RMM:   3    -0.357998892670E+03    0.99975E-04   -0.11120E-03  7478   0.637E-02    0.634E-02
RMM:   4    -0.357998832550E+03    0.60120E-04   -0.28044E-04  7378   0.278E-02    0.395E-02
RMM:   5    -0.357998822116E+03    0.10434E-04   -0.11951E-04  6558   0.179E-02    0.240E-02
RMM:   6    -0.357998815520E+03    0.65961E-05   -0.40155E-05  4024   0.113E-02
  25 F= -.35799882E+03 E0= -.35800202E+03  d E =-.706396E-03
       N       E                     dE             d eps       ncg     rms          rms(c)
DAV:   1    -0.357999264570E+03   -0.44245E-03   -0.16917E-02  5864   0.422E-01    0.162E-01
RMM:   2    -0.357999107834E+03    0.15674E-03   -0.15968E-03  7140   0.104E-01    0.519E-02
RMM:   3    -0.357999053919E+03    0.53915E-04   -0.43891E-04  7569   0.380E-02    0.391E-02
RMM:   4    -0.357999005489E+03    0.48430E-04   -0.10227E-04  6008   0.212E-02    0.221E-02
RMM:   5    -0.357998997688E+03    0.78006E-05   -0.21863E-05  3019   0.133E-02
  26 F= -.35799900E+03 E0= -.35800222E+03  d E =-.182168E-03
       N       E                     dE             d eps       ncg     rms          rms(c)
DAV:   1    -0.357999821142E+03   -0.81565E-03   -0.47781E-02  5572   0.712E-01    0.272E-01
RMM:   2    -0.357999383651E+03    0.43749E-03   -0.45703E-03  7379   0.176E-01    0.893E-02
RMM:   3    -0.357999226705E+03    0.15695E-03   -0.12411E-03  7702   0.634E-02    0.679E-02
RMM:   4    -0.357999086417E+03    0.14029E-03   -0.30347E-04  7455   0.368E-02    0.382E-02
RMM:   5    -0.357999071406E+03    0.15011E-04   -0.97534E-05  6179   0.196E-02    0.299E-02
RMM:   6    -0.357999067154E+03    0.42518E-05   -0.40751E-05  3861   0.124E-02
  27 F= -.35799907E+03 E0= -.35800233E+03  d E =-.251634E-03
       N       E                     dE             d eps       ncg     rms          rms(c)
DAV:   1    -0.357999190233E+03   -0.11883E-03   -0.17835E-02  5112   0.386E-01    0.464E-02
RMM:   2    -0.357999230460E+03   -0.40227E-04   -0.69285E-04  7440   0.736E-02    0.261E-02
RMM:   3    -0.357999221548E+03    0.89123E-05   -0.80588E-05  5330   0.212E-02
  28 F= -.35799922E+03 E0= -.35800249E+03  d E =-.154394E-03
       N       E                     dE             d eps       ncg     rms          rms(c)
DAV:   1    -0.357999201380E+03    0.29080E-04   -0.16014E-01  5056   0.116E+00    0.131E-01
RMM:   2    -0.357999540947E+03   -0.33957E-03   -0.59314E-03  7488   0.214E-01    0.681E-02
RMM:   3    -0.357999486900E+03    0.54047E-04   -0.70769E-04  7461   0.550E-02    0.476E-02
RMM:   4    -0.357999468600E+03    0.18300E-04   -0.19008E-04  6866   0.222E-02    0.309E-02
RMM:   5    -0.357999465433E+03    0.31667E-05   -0.79420E-05  5618   0.142E-02
  29 F= -.35799947E+03 E0= -.35800274E+03  d E =-.398279E-03
       N       E                     dE             d eps       ncg     rms          rms(c)
DAV:   1    -0.357999456842E+03    0.11758E-04   -0.72403E-03  5376   0.246E-01    0.275E-02
RMM:   2    -0.357999477632E+03   -0.20790E-04   -0.29752E-04  7327   0.467E-02    0.170E-02
RMM:   3    -0.357999473718E+03    0.39143E-05   -0.36485E-05  3757   0.137E-02
  30 F= -.35799947E+03 E0= -.35800274E+03  d E =-.406564E-03
       N       E                     dE             d eps       ncg     rms          rms(c)
DAV:   1    -0.357999812500E+03   -0.33487E-03   -0.27119E-02  5472   0.508E-01    0.153E-01
RMM:   2    -0.357999707714E+03    0.10479E-03   -0.19157E-03  7180   0.113E-01    0.541E-02
RMM:   3    -0.357999656468E+03    0.51246E-04   -0.43133E-04  7607   0.393E-02    0.405E-02
RMM:   4    -0.357999615144E+03    0.41324E-04   -0.11425E-04  6605   0.214E-02    0.224E-02
RMM:   5    -0.357999613448E+03    0.16958E-05   -0.29913E-05  3534   0.133E-02
  31 F= -.35799961E+03 E0= -.35800288E+03  d E =-.139730E-03
       N       E                     dE             d eps       ncg     rms          rms(c)
DAV:   1    -0.357999934920E+03   -0.31978E-03   -0.41162E-02  5328   0.629E-01    0.184E-01
RMM:   2    -0.357999792871E+03    0.14205E-03   -0.28493E-03  7118   0.140E-01    0.642E-02
RMM:   3    -0.357999712426E+03    0.80444E-04   -0.59619E-04  7612   0.476E-02    0.486E-02
RMM:   4    -0.357999653692E+03    0.58734E-04   -0.16537E-04  7249   0.257E-02    0.277E-02
RMM:   5    -0.357999653519E+03    0.17253E-06   -0.48997E-05  4713   0.156E-02
  32 F= -.35799965E+03 E0= -.35800291E+03  d E =-.179801E-03
       N       E                     dE             d eps       ncg     rms          rms(c)
DAV:   1    -0.357999766571E+03   -0.11288E-03   -0.10784E-02  5336   0.298E-01    0.451E-02
RMM:   2    -0.357999799249E+03   -0.32678E-04   -0.48120E-04  7373   0.565E-02    0.239E-02
RMM:   3    -0.357999794111E+03    0.51383E-05   -0.64830E-05  5167   0.170E-02
  33 F= -.35799979E+03 E0= -.35800305E+03  d E =-.140592E-03
       N       E                     dE             d eps       ncg     rms          rms(c)
DAV:   1    -0.357999901191E+03   -0.10194E-03   -0.96582E-02  5048   0.891E-01    0.115E-01
RMM:   2    -0.358000097007E+03   -0.19582E-03   -0.38460E-03  7485   0.166E-01    0.567E-02
RMM:   3    -0.358000056725E+03    0.40282E-04   -0.48011E-04  7380   0.433E-02    0.392E-02
RMM:   4    -0.358000041654E+03    0.15071E-04   -0.13121E-04  6487   0.201E-02    0.250E-02
RMM:   5    -0.358000035447E+03    0.62069E-05   -0.42615E-05  4091   0.111E-02
  34 F= -.35800004E+03 E0= -.35800332E+03  d E =-.381928E-03
       N       E                     dE             d eps       ncg     rms          rms(c)
DAV:   1    -0.357999400151E+03    0.64150E-03   -0.38607E-01  5040   0.178E+00    0.219E-01
RMM:   2    -0.358000206817E+03   -0.80667E-03   -0.14782E-02  7491   0.330E-01    0.105E-01
RMM:   3    -0.358000068162E+03    0.13866E-03   -0.17339E-03  7486   0.853E-02    0.737E-02
RMM:   4    -0.358000008037E+03    0.60124E-04   -0.45593E-04  7723   0.371E-02    0.472E-02
RMM:   5    -0.357999993425E+03    0.14613E-04   -0.18336E-04  6821   0.222E-02    0.301E-02
RMM:   6    -0.357999984040E+03    0.93844E-05   -0.77411E-05  5519   0.150E-02
  35 F= -.35799998E+03 E0= -.35800335E+03  d E =-.330521E-03
       N       E                     dE             d eps       ncg     rms          rms(c)
DAV:   1    -0.357999908450E+03    0.84975E-04   -0.12478E-01  5040   0.102E+00    0.129E-01
RMM:   2    -0.358000161431E+03   -0.25298E-03   -0.47200E-03  7416   0.188E-01    0.578E-02
RMM:   3    -0.358000114440E+03    0.46991E-04   -0.50829E-04  7457   0.492E-02    0.412E-02
RMM:   4    -0.358000089999E+03    0.24441E-04   -0.12020E-04  6570   0.204E-02    0.253E-02
RMM:   5    -0.358000085430E+03    0.45684E-05   -0.38855E-05  4236   0.109E-02
  36 F= -.35800009E+03 E0= -.35800341E+03  d E =-.431911E-03
       N       E                     dE             d eps       ncg     rms          rms(c)
DAV:   1    -0.358000155114E+03   -0.65115E-04   -0.96758E-03  5328   0.291E-01    0.565E-02
RMM:   2    -0.358000178904E+03   -0.23790E-04   -0.52016E-04  6894   0.580E-02    0.202E-02
RMM:   3    -0.358000171693E+03    0.72108E-05   -0.63185E-05  5439   0.186E-02
  37 F= -.35800017E+03 E0= -.35800351E+03  d E =-.862628E-04
       N       E                     dE             d eps       ncg     rms          rms(c)
DAV:   1    -0.358000273750E+03   -0.94846E-04   -0.86015E-02  5160   0.862E-01    0.158E-01
RMM:   2    -0.358000423788E+03   -0.15004E-03   -0.46316E-03  7034   0.172E-01    0.602E-02
RMM:   3    -0.358000346930E+03    0.76858E-04   -0.56988E-04  7270   0.517E-02    0.452E-02
RMM:   4    -0.358000305699E+03    0.41230E-04   -0.15296E-04  6797   0.224E-02    0.274E-02
RMM:   5    -0.358000297988E+03    0.77112E-05   -0.52272E-05  4596   0.142E-02
  38 F= -.35800030E+03 E0= -.35800366E+03  d E =-.212558E-03
       N       E                     dE             d eps       ncg     rms          rms(c)
DAV:   1    -0.358000293921E+03    0.11778E-04   -0.16297E-02  5208   0.376E-01    0.644E-02
RMM:   2    -0.358000325765E+03   -0.31843E-04   -0.85688E-04  7054   0.749E-02    0.258E-02
RMM:   3    -0.358000310704E+03    0.15060E-04   -0.11174E-04  6332   0.232E-02    0.201E-02
RMM:   4    -0.358000302486E+03    0.82185E-05   -0.26842E-05  3489   0.123E-02
  39 F= -.35800030E+03 E0= -.35800369E+03  d E =-.217056E-03
