       N       E                     dE             d eps       ncg     rms          rms(c)
DAV:   1     0.186716622413E+04    0.18672E+04   -0.10984E+05  5488   0.104E+03
DAV:   2    -0.739220510503E+02   -0.19411E+04   -0.18643E+04  5576   0.373E+02
DAV:   3    -0.336725043093E+03   -0.26280E+03   -0.24937E+03  8752   0.102E+02
DAV:   4    -0.368906985551E+03   -0.32182E+02   -0.30756E+02  8448   0.309E+01
DAV:   5    -0.372067796938E+03   -0.31608E+01   -0.31081E+01  7856   0.981E+00    0.653E+01
RMM:   6    -0.362334091076E+03    0.97337E+01   -0.26528E+01  7318   0.991E+00    0.311E+01
RMM:   7    -0.366088578878E+03   -0.37545E+01   -0.31801E+01  7620   0.805E+00    0.141E+01
RMM:   8    -0.357873261769E+03    0.82153E+01   -0.84434E+00  7428   0.417E+00    0.451E+00
RMM:   9    -0.357431892121E+03    0.44137E+00   -0.30946E+00  7614   0.211E+00    0.282E+00
RMM:  10    -0.357422943709E+03    0.89484E-02   -0.55889E-01  7691   0.112E+00    0.157E+00
RMM:  11    -0.357406152600E+03    0.16791E-01   -0.16572E-01  7517   0.596E-01    0.857E-01
RMM:  12    -0.357398473878E+03    0.76787E-02   -0.61965E-02  7720   0.383E-01    0.416E-01
RMM:  13    -0.357396743742E+03    0.17301E-02   -0.19933E-02  7694   0.199E-01    0.243E-01
RMM:  14    -0.357396715417E+03    0.28325E-04   -0.75463E-03  7882   0.106E-01    0.143E-01
RMM:  15    -0.357396888719E+03   -0.17330E-03   -0.37672E-03  7754   0.636E-02    0.807E-02
RMM:  16    -0.357396931019E+03   -0.42300E-04   -0.14957E-03  6990   0.415E-02    0.456E-02
RMM:  17    -0.357396909300E+03    0.21719E-04   -0.55880E-04  6230   0.270E-02    0.179E-02
RMM:  18    -0.357396923899E+03   -0.14598E-04   -0.25756E-04  5627   0.195E-02    0.923E-03
RMM:  19    -0.357396929619E+03   -0.57200E-05   -0.10760E-04  4839   0.135E-02    0.493E-03
RMM:  20    -0.357396931428E+03   -0.18089E-05   -0.49867E-05  4134   0.110E-02
   1 F= -.35739693E+03 E0= -.35740662E+03  d E =-.357397E+03
       N       E                     dE             d eps       ncg     rms          rms(c)
DAV:   1    -0.357463287196E+03   -0.66358E-01   -0.24748E+00  5984   0.497E+00    0.180E+00
RMM:   2    -0.357442582649E+03    0.20705E-01   -0.21742E-01  6713   0.119E+00    0.547E-01
RMM:   3    -0.357437775626E+03    0.48070E-02   -0.47242E-02  7636   0.421E-01    0.386E-01
RMM:   4    -0.357433382979E+03    0.43926E-02   -0.10819E-02  7783   0.205E-01    0.241E-01
RMM:   5    -0.357432893000E+03    0.48998E-03   -0.37312E-03  7723   0.104E-01    0.184E-01
RMM:   6    -0.357432901358E+03   -0.83579E-05   -0.13015E-03  8065   0.618E-02    0.103E-01
RMM:   7    -0.357432948196E+03   -0.46838E-04   -0.74231E-04  7325   0.435E-02    0.507E-02
RMM:   8    -0.357432966035E+03   -0.17839E-04   -0.32430E-04  6642   0.281E-02    0.371E-02
RMM:   9    -0.357432979305E+03   -0.13270E-04   -0.14151E-04  5358   0.207E-02    0.316E-02
RMM:  10    -0.357432985181E+03   -0.58759E-05   -0.63889E-05  4859   0.148E-02
   2 F= -.35743299E+03 E0= -.35744279E+03  d E =-.360538E-01
       N       E                     dE             d eps       ncg     rms          rms(c)
DAV:   1    -0.357664569885E+03   -0.23159E+00   -0.16423E+01  5644   0.128E+01    0.455E+00
RMM:   2    -0.357526184997E+03    0.13838E+00   -0.14127E+00  6730   0.305E+00    0.140E+00
RMM:   3    -0.357492682366E+03    0.33503E-01   -0.30918E-01  7675   0.107E+00    0.991E-01
RMM:   4    -0.357464125094E+03    0.28557E-01   -0.71001E-02  7775   0.524E-01    0.612E-01
RMM:   5    -0.357460700583E+03    0.34245E-02   -0.24292E-02  7699   0.275E-01    0.467E-01
RMM:   6    -0.357461009815E+03   -0.30923E-03   -0.89621E-03  8411   0.158E-01    0.265E-01
RMM:   7    -0.357461483296E+03   -0.47348E-03   -0.46969E-03  8424   0.115E-01    0.131E-01
RMM:   8    -0.357461708572E+03   -0.22528E-03   -0.24012E-03  8309   0.689E-02    0.994E-02
RMM:   9    -0.357461823596E+03   -0.11502E-03   -0.81283E-04  7641   0.475E-02    0.837E-02
RMM:  10    -0.357461918088E+03   -0.94492E-04   -0.36461E-04  6628   0.283E-02    0.523E-02
RMM:  11    -0.357461948999E+03   -0.30912E-04   -0.20237E-04  6367   0.247E-02    0.178E-02
RMM:  12    -0.357461950030E+03   -0.10303E-05   -0.15166E-04  5692   0.200E-02    0.892E-03
RMM:  13    -0.357461950685E+03   -0.65488E-06   -0.47312E-05  4742   0.142E-02
   3 F= -.35746195E+03 E0= -.35747183E+03  d E =-.650193E-01
       N       E                     dE             d eps       ncg     rms          rms(c)
DAV:   1    -0.357484292347E+03   -0.22342E-01   -0.21901E+00  5280   0.404E+00    0.624E-01
RMM:   2    -0.357489173816E+03   -0.48815E-02   -0.87584E-02  7346   0.766E-01    0.298E-01
RMM:   3    -0.357486578486E+03    0.25953E-02   -0.11651E-02  7587   0.212E-01    0.215E-01
RMM:   4    -0.357485952012E+03    0.62647E-03   -0.28341E-03  7804   0.855E-02    0.130E-01
RMM:   5    -0.357485808001E+03    0.14401E-03   -0.11095E-03  7748   0.595E-02    0.758E-02
RMM:   6    -0.357485813241E+03   -0.52397E-05   -0.43989E-04  7576   0.336E-02    0.458E-02
RMM:   7    -0.357485825797E+03   -0.12556E-04   -0.16515E-04  6719   0.213E-02    0.280E-02
RMM:   8    -0.357485838388E+03   -0.12591E-04   -0.61927E-05  5033   0.134E-02    0.155E-02
RMM:   9    -0.357485844185E+03   -0.57962E-05   -0.29713E-05  3958   0.111E-02
   4 F= -.35748584E+03 E0= -.35749557E+03  d E =-.238935E-01
       N       E                     dE             d eps       ncg     rms          rms(c)
DAV:   1    -0.357508014405E+03   -0.22176E-01   -0.19707E+01  5152   0.121E+01    0.189E+00
RMM:   2    -0.357553552575E+03   -0.45538E-01   -0.79570E-01  7332   0.233E+00    0.897E-01
RMM:   3    -0.357528243284E+03    0.25309E-01   -0.10296E-01  7600   0.633E-01    0.628E-01
RMM:   4    -0.357522885183E+03    0.53581E-02   -0.26088E-02  7839   0.256E-01    0.377E-01
RMM:   5    -0.357521655559E+03    0.12296E-02   -0.97658E-03  7800   0.176E-01    0.222E-01
RMM:   6    -0.357521721907E+03   -0.66348E-04   -0.39042E-03  8032   0.989E-02    0.137E-01
RMM:   7    -0.357521803479E+03   -0.81573E-04   -0.15207E-03  8366   0.627E-02    0.831E-02
RMM:   8    -0.357521896174E+03   -0.92695E-04   -0.64579E-04  7297   0.344E-02    0.500E-02
RMM:   9    -0.357521924221E+03   -0.28046E-04   -0.28187E-04  6874   0.274E-02    0.299E-02
RMM:  10    -0.357521944090E+03   -0.19869E-04   -0.98468E-05  5538   0.172E-02    0.160E-02
RMM:  11    -0.357521952272E+03   -0.81823E-05   -0.48436E-05  4569   0.138E-02
   5 F= -.35752195E+03 E0= -.35753106E+03  d E =-.600016E-01
       N       E                     dE             d eps       ncg     rms          rms(c)
DAV:   1    -0.357522255373E+03   -0.31128E-03   -0.53199E-01  5488   0.199E+00    0.306E-01
RMM:   2    -0.357523448760E+03   -0.11934E-02   -0.21141E-02  7330   0.375E-01    0.146E-01
RMM:   3    -0.357522860846E+03    0.58791E-03   -0.28710E-03  7613   0.104E-01    0.104E-01
RMM:   4    -0.357522716601E+03    0.14425E-03   -0.69778E-04  7682   0.417E-02    0.625E-02
RMM:   5    -0.357522691697E+03    0.24903E-04   -0.28371E-04  7600   0.294E-02    0.362E-02
RMM:   6    -0.357522698486E+03   -0.67890E-05   -0.10935E-04  5975   0.168E-02    0.220E-02
RMM:   7    -0.357522704679E+03   -0.61922E-05   -0.39767E-05  4356   0.123E-02
   6 F= -.35752270E+03 E0= -.35753169E+03  d E =-.607540E-01
       N       E                     dE             d eps       ncg     rms          rms(c)
DAV:   1    -0.357546827755E+03   -0.24129E-01   -0.97954E-01  5840   0.323E+00    0.122E+00
RMM:   2    -0.357536146019E+03    0.10682E-01   -0.10134E-01  7012   0.828E-01    0.364E-01
RMM:   3    -0.357533530101E+03    0.26159E-02   -0.20294E-02  7685   0.273E-01    0.244E-01
RMM:   4    -0.357531876978E+03    0.16531E-02   -0.46603E-03  7743   0.139E-01    0.161E-01
RMM:   5    -0.357531674556E+03    0.20242E-03   -0.15999E-03  7718   0.690E-02    0.122E-01
RMM:   6    -0.357531753534E+03   -0.78978E-04   -0.63068E-04  7723   0.423E-02    0.712E-02
RMM:   7    -0.357531820697E+03   -0.67163E-04   -0.32448E-04  6765   0.299E-02    0.350E-02
RMM:   8    -0.357531854492E+03   -0.33795E-04   -0.15012E-04  5636   0.195E-02    0.269E-02
RMM:   9    -0.357531874510E+03   -0.20017E-04   -0.57776E-05  4580   0.160E-02    0.202E-02
RMM:  10    -0.357531895028E+03   -0.20518E-04   -0.35463E-05  4120   0.122E-02    0.101E-02
RMM:  11    -0.357531904716E+03   -0.96884E-05   -0.20345E-05  3790   0.118E-02
   7 F= -.35753190E+03 E0= -.35754096E+03  d E =-.920004E-02
       N       E                     dE             d eps       ncg     rms          rms(c)
DAV:   1    -0.357558100526E+03   -0.26205E-01   -0.15216E+00  5784   0.404E+00    0.153E+00
RMM:   2    -0.357541441072E+03    0.16659E-01   -0.15700E-01  7005   0.103E+00    0.453E-01
RMM:   3    -0.357537415674E+03    0.40254E-02   -0.31382E-02  7675   0.342E-01    0.302E-01
RMM:   4    -0.357534921578E+03    0.24941E-02   -0.73266E-03  7747   0.175E-01    0.201E-01
RMM:   5    -0.357534617360E+03    0.30422E-03   -0.25049E-03  7725   0.848E-02    0.153E-01
RMM:   6    -0.357534728038E+03   -0.11068E-03   -0.97498E-04  7951   0.532E-02    0.884E-02
RMM:   7    -0.357534825648E+03   -0.97611E-04   -0.53101E-04  7026   0.367E-02    0.436E-02
RMM:   8    -0.357534873446E+03   -0.47797E-04   -0.22259E-04  5979   0.233E-02    0.331E-02
RMM:   9    -0.357534902320E+03   -0.28874E-04   -0.95219E-05  5251   0.190E-02    0.256E-02
RMM:  10    -0.357534929808E+03   -0.27488E-04   -0.53038E-05  4514   0.138E-02    0.138E-02
RMM:  11    -0.357534944049E+03   -0.14241E-04   -0.30076E-05  4095   0.126E-02    0.722E-03
RMM:  12    -0.357534949952E+03   -0.59034E-05   -0.18037E-05  3677   0.116E-02
   8 F= -.35753495E+03 E0= -.35754406E+03  d E =-.122453E-01
       N       E                     dE             d eps       ncg     rms          rms(c)
DAV:   1    -0.357539121112E+03   -0.41771E-02   -0.10452E+00  5176   0.297E+00    0.387E-01
RMM:   2    -0.357541566883E+03   -0.24458E-02   -0.44636E-02  7361   0.566E-01    0.172E-01
RMM:   3    -0.357541217453E+03    0.34943E-03   -0.47087E-03  7533   0.147E-01    0.126E-01
RMM:   4    -0.357540997491E+03    0.21996E-03   -0.12055E-03  7959   0.555E-02    0.814E-02
RMM:   5    -0.357540961915E+03    0.35576E-04   -0.50736E-04  7645   0.393E-02    0.492E-02
RMM:   6    -0.357540941113E+03    0.20802E-04   -0.19480E-04  7153   0.242E-02    0.270E-02
RMM:   7    -0.357540937197E+03    0.39153E-05   -0.63783E-05  4776   0.146E-02
   9 F= -.35754094E+03 E0= -.35755019E+03  d E =-.598725E-02
       N       E                     dE             d eps       ncg     rms          rms(c)
DAV:   1    -0.357539738499E+03    0.12026E-02   -0.26811E+00  5080   0.476E+00    0.612E-01
RMM:   2    -0.357546115798E+03   -0.63773E-02   -0.11453E-01  7350   0.908E-01    0.274E-01
RMM:   3    -0.357545218561E+03    0.89724E-03   -0.11904E-02  7495   0.232E-01    0.201E-01
RMM:   4    -0.357544675209E+03    0.54335E-03   -0.30203E-03  8001   0.869E-02    0.130E-01
RMM:   5    -0.357544598927E+03    0.76282E-04   -0.13048E-03  7736   0.616E-02    0.784E-02
RMM:   6    -0.357544560865E+03    0.38063E-04   -0.50783E-04  7876   0.385E-02    0.442E-02
RMM:   7    -0.357544560544E+03    0.32080E-06   -0.19288E-04  6080   0.211E-02    0.280E-02
RMM:   8    -0.357544558355E+03    0.21888E-05   -0.81350E-05  5024   0.163E-02
  10 F= -.35754456E+03 E0= -.35755402E+03  d E =-.960840E-02
       N       E                     dE             d eps       ncg     rms          rms(c)
DAV:   1    -0.357550041938E+03   -0.54814E-02   -0.47878E-01  5488   0.212E+00    0.548E-01
RMM:   2    -0.357548971171E+03    0.10708E-02   -0.31212E-02  6399   0.456E-01    0.179E-01
RMM:   3    -0.357548349362E+03    0.62181E-03   -0.50087E-03  7567   0.154E-01    0.122E-01
RMM:   4    -0.357547954468E+03    0.39489E-03   -0.12566E-03  7735   0.643E-02    0.761E-02
RMM:   5    -0.357547903327E+03    0.51141E-04   -0.41498E-04  7521   0.389E-02    0.579E-02
RMM:   6    -0.357547897701E+03    0.56256E-05   -0.17440E-04  6892   0.223E-02    0.352E-02
RMM:   7    -0.357547893122E+03    0.45791E-05   -0.72814E-05  5483   0.165E-02
  11 F= -.35754789E+03 E0= -.35755733E+03  d E =-.333477E-02
       N       E                     dE             d eps       ncg     rms          rms(c)
DAV:   1    -0.357558852231E+03   -0.10955E-01   -0.19254E+00  5348   0.425E+00    0.110E+00
RMM:   2    -0.357554396648E+03    0.44556E-02   -0.12605E-01  6451   0.916E-01    0.361E-01
RMM:   3    -0.357551898961E+03    0.24977E-02   -0.20232E-02  7578   0.309E-01    0.248E-01
RMM:   4    -0.357550299223E+03    0.15997E-02   -0.51188E-03  7763   0.130E-01    0.156E-01
RMM:   5    -0.357550105397E+03    0.19383E-03   -0.17340E-03  7640   0.767E-02    0.118E-01
RMM:   6    -0.357550111684E+03   -0.62871E-05   -0.72978E-04  7876   0.450E-02    0.703E-02
RMM:   7    -0.357550120708E+03   -0.90240E-05   -0.31406E-04  6754   0.320E-02    0.365E-02
RMM:   8    -0.357550127764E+03   -0.70561E-05   -0.18315E-04  6074   0.212E-02    0.261E-02
RMM:   9    -0.357550130747E+03   -0.29826E-05   -0.67369E-05  4844   0.163E-02
  12 F= -.35755013E+03 E0= -.35755950E+03  d E =-.557239E-02
       N       E                     dE             d eps       ncg     rms          rms(c)
DAV:   1    -0.357551712169E+03   -0.15844E-02   -0.13810E-01  5424   0.107E+00    0.155E-01
RMM:   2    -0.357551990037E+03   -0.27787E-03   -0.57979E-03  7325   0.203E-01    0.697E-02
RMM:   3    -0.357551909998E+03    0.80039E-04   -0.73976E-04  7547   0.567E-02    0.530E-02
RMM:   4    -0.357551869952E+03    0.40045E-04   -0.19848E-04  6985   0.231E-02    0.319E-02
RMM:   5    -0.357551863686E+03    0.62660E-05   -0.78408E-05  6151   0.155E-02
  13 F= -.35755186E+03 E0= -.35756119E+03  d E =-.173294E-02
       N       E                     dE             d eps       ncg     rms          rms(c)
DAV:   1    -0.357554168702E+03   -0.22988E-02   -0.12364E+00  5152   0.321E+00    0.443E-01
RMM:   2    -0.357556849549E+03   -0.26808E-02   -0.50404E-02  7189   0.601E-01    0.192E-01
RMM:   3    -0.357556049035E+03    0.80051E-03   -0.59033E-03  7508   0.167E-01    0.147E-01
RMM:   4    -0.357555735230E+03    0.31381E-03   -0.15248E-03  7871   0.631E-02    0.889E-02
RMM:   5    -0.357555699709E+03    0.35521E-04   -0.62287E-04  7756   0.431E-02    0.560E-02
RMM:   6    -0.357555706323E+03   -0.66142E-05   -0.24748E-04  7165   0.258E-02    0.328E-02
RMM:   7    -0.357555718142E+03   -0.11819E-04   -0.88698E-05  5527   0.165E-02    0.193E-02
RMM:   8    -0.357555728519E+03   -0.10376E-04   -0.44875E-05  4179   0.130E-02    0.111E-02
RMM:   9    -0.357555733585E+03   -0.50665E-05   -0.21943E-05  3550   0.115E-02
  14 F= -.35755573E+03 E0= -.35756493E+03  d E =-.560284E-02
       N       E                     dE             d eps       ncg     rms          rms(c)
DAV:   1    -0.357551134205E+03    0.45943E-02   -0.49500E+00  5152   0.643E+00    0.896E-01
RMM:   2    -0.357561829336E+03   -0.10695E-01   -0.20217E-01  7166   0.121E+00    0.380E-01
RMM:   3    -0.357558655602E+03    0.31737E-02   -0.23440E-02  7503   0.336E-01    0.289E-01
RMM:   4    -0.357557363490E+03    0.12921E-02   -0.60323E-03  7872   0.126E-01    0.173E-01
RMM:   5    -0.357557207725E+03    0.15576E-03   -0.24234E-03  7809   0.842E-02    0.108E-01
RMM:   6    -0.357557213460E+03   -0.57348E-05   -0.93561E-04  8052   0.504E-02    0.637E-02
RMM:   7    -0.357557247028E+03   -0.33568E-04   -0.37379E-04  7113   0.305E-02    0.372E-02
RMM:   8    -0.357557274965E+03   -0.27937E-04   -0.13430E-04  5889   0.195E-02    0.227E-02
RMM:   9    -0.357557289570E+03   -0.14605E-04   -0.79270E-05  5088   0.161E-02    0.153E-02
RMM:  10    -0.357557298796E+03   -0.92256E-05   -0.32283E-05  4178   0.128E-02
  15 F= -.35755730E+03 E0= -.35756620E+03  d E =-.716805E-02
       N       E                     dE             d eps       ncg     rms          rms(c)
DAV:   1    -0.357557127761E+03    0.16181E-03   -0.51189E-01  5264   0.207E+00    0.287E-01
RMM:   2    -0.357558242729E+03   -0.11150E-02   -0.20923E-02  7077   0.388E-01    0.122E-01
RMM:   3    -0.357557904513E+03    0.33822E-03   -0.24042E-03  7413   0.113E-01    0.959E-02
RMM:   4    -0.357557754821E+03    0.14969E-03   -0.61118E-04  7825   0.410E-02    0.577E-02
RMM:   5    -0.357557728728E+03    0.26093E-04   -0.23908E-04  7398   0.283E-02    0.357E-02
RMM:   6    -0.357557716082E+03    0.12646E-04   -0.94883E-05  6506   0.167E-02    0.202E-02
RMM:   7    -0.357557710939E+03    0.51424E-05   -0.26471E-05  3481   0.110E-02
  16 F= -.35755771E+03 E0= -.35756671E+03  d E =-.758019E-02
       N       E                     dE             d eps       ncg     rms          rms(c)
DAV:   1    -0.357558954756E+03   -0.12387E-02   -0.99843E-02  5144   0.917E-01    0.134E-01
RMM:   2    -0.357559097008E+03   -0.14225E-03   -0.41422E-03  7487   0.174E-01    0.558E-02
RMM:   3    -0.357559058273E+03    0.38736E-04   -0.46233E-04  7470   0.454E-02    0.373E-02
RMM:   4    -0.357559036385E+03    0.21888E-04   -0.12068E-04  6472   0.183E-02    0.239E-02
RMM:   5    -0.357559031429E+03    0.49560E-05   -0.42769E-05  4336   0.112E-02
  17 F= -.35755903E+03 E0= -.35756805E+03  d E =-.132049E-02
       N       E                     dE             d eps       ncg     rms          rms(c)
DAV:   1    -0.357561150642E+03   -0.21143E-02   -0.89734E-01  5040   0.275E+00    0.394E-01
RMM:   2    -0.357562448499E+03   -0.12979E-02   -0.36970E-02  7502   0.520E-01    0.165E-01
RMM:   3    -0.357562102938E+03    0.34556E-03   -0.41998E-03  7483   0.133E-01    0.111E-01
RMM:   4    -0.357561904725E+03    0.19821E-03   -0.11389E-03  7775   0.544E-02    0.714E-02
RMM:   5    -0.357561874392E+03    0.30334E-04   -0.49180E-04  7718   0.360E-02    0.461E-02
RMM:   6    -0.357561876689E+03   -0.22975E-05   -0.17883E-04  6797   0.219E-02    0.280E-02
RMM:   7    -0.357561886606E+03   -0.99169E-05   -0.62795E-05  4858   0.144E-02
  18 F= -.35756189E+03 E0= -.35757095E+03  d E =-.417567E-02
       N       E                     dE             d eps       ncg     rms          rms(c)
DAV:   1    -0.357559621114E+03    0.22556E-02   -0.35916E+00  5040   0.550E+00    0.795E-01
RMM:   2    -0.357564752868E+03   -0.51318E-02   -0.14768E-01  7500   0.104E+00    0.329E-01
RMM:   3    -0.357563377286E+03    0.13756E-02   -0.16537E-02  7479   0.264E-01    0.219E-01
RMM:   4    -0.357562589245E+03    0.78804E-03   -0.45270E-03  7815   0.108E-01    0.139E-01
RMM:   5    -0.357562462453E+03    0.12679E-03   -0.19372E-03  7822   0.715E-02    0.896E-02
RMM:   6    -0.357562464169E+03   -0.17154E-05   -0.71721E-04  8095   0.430E-02    0.547E-02
RMM:   7    -0.357562493312E+03   -0.29143E-04   -0.26601E-04  6295   0.252E-02    0.313E-02
RMM:   8    -0.357562512389E+03   -0.19077E-04   -0.14500E-04  5949   0.201E-02    0.192E-02
RMM:   9    -0.357562523034E+03   -0.10645E-04   -0.58552E-05  5090   0.143E-02    0.133E-02
RMM:  10    -0.357562531832E+03   -0.87982E-05   -0.26706E-05  4192   0.122E-02
  19 F= -.35756253E+03 E0= -.35757166E+03  d E =-.482089E-02
       N       E                     dE             d eps       ncg     rms          rms(c)
DAV:   1    -0.357562658363E+03   -0.13533E-03   -0.60729E-01  5040   0.227E+00    0.325E-01
RMM:   2    -0.357563570674E+03   -0.91231E-03   -0.24933E-02  7476   0.428E-01    0.136E-01
RMM:   3    -0.357563317731E+03    0.25294E-03   -0.27159E-03  7482   0.110E-01    0.926E-02
RMM:   4    -0.357563165392E+03    0.15234E-03   -0.70142E-04  7583   0.439E-02    0.596E-02
RMM:   5    -0.357563128216E+03    0.37176E-04   -0.29131E-04  7471   0.288E-02    0.381E-02
RMM:   6    -0.357563114196E+03    0.14020E-04   -0.10407E-04  6610   0.176E-02    0.226E-02
RMM:   7    -0.357563109616E+03    0.45802E-05   -0.37998E-05  4076   0.114E-02
  20 F= -.35756311E+03 E0= -.35757221E+03  d E =-.539868E-02
       N       E                     dE             d eps       ncg     rms          rms(c)
DAV:   1    -0.357565065924E+03   -0.19517E-02   -0.17092E-01  5368   0.125E+00    0.316E-01
RMM:   2    -0.357564690518E+03    0.37541E-03   -0.10191E-02  6474   0.266E-01    0.107E-01
RMM:   3    -0.357564423635E+03    0.26688E-03   -0.15171E-03  7331   0.897E-02    0.671E-02
RMM:   4    -0.357564317601E+03    0.10603E-03   -0.43696E-04  7668   0.402E-02    0.440E-02
RMM:   5    -0.357564297410E+03    0.20192E-04   -0.11848E-04  6666   0.210E-02    0.330E-02
RMM:   6    -0.357564291229E+03    0.61809E-05   -0.50382E-05  4171   0.126E-02
  21 F= -.35756429E+03 E0= -.35757342E+03  d E =-.118161E-02
       N       E                     dE             d eps       ncg     rms          rms(c)
DAV:   1    -0.357568998386E+03   -0.47010E-02   -0.83731E-01  5360   0.277E+00    0.704E-01
RMM:   2    -0.357566928158E+03    0.20702E-02   -0.49872E-02  6711   0.580E-01    0.239E-01
RMM:   3    -0.357565707038E+03    0.12211E-02   -0.80367E-03  7571   0.197E-01    0.149E-01
RMM:   4    -0.357565232916E+03    0.47412E-03   -0.23491E-03  7746   0.922E-02    0.985E-02
RMM:   5    -0.357565162731E+03    0.70185E-04   -0.69051E-04  7696   0.463E-02    0.742E-02
RMM:   6    -0.357565161800E+03    0.93150E-06   -0.30540E-04  6997   0.278E-02    0.451E-02
RMM:   7    -0.357565157013E+03    0.47864E-05   -0.13160E-04  6174   0.205E-02    0.218E-02
RMM:   8    -0.357565158509E+03   -0.14955E-05   -0.77257E-05  4946   0.154E-02
  22 F= -.35756516E+03 E0= -.35757436E+03  d E =-.204889E-02
       N       E                     dE             d eps       ncg     rms          rms(c)
DAV:   1    -0.357565657786E+03   -0.50077E-03   -0.72532E-02  5472   0.751E-01    0.490E-02
RMM:   2    -0.357565839152E+03   -0.18137E-03   -0.20922E-03  6489   0.126E-01    0.261E-02
RMM:   3    -0.357565822969E+03    0.16183E-04   -0.21960E-04  6326   0.370E-02    0.220E-02
RMM:   4    -0.357565821144E+03    0.18251E-05   -0.60328E-05  4631   0.116E-02
  23 F= -.35756582E+03 E0= -.35757501E+03  d E =-.662635E-03
       N       E                     dE             d eps       ncg     rms          rms(c)
DAV:   1    -0.357566035497E+03   -0.21253E-03   -0.65215E-01  5272   0.225E+00    0.147E-01
RMM:   2    -0.357567635827E+03   -0.16003E-02   -0.18563E-02  6599   0.377E-01    0.762E-02
RMM:   3    -0.357567545381E+03    0.90446E-04   -0.21417E-03  7356   0.110E-01    0.655E-02
RMM:   4    -0.357567527591E+03    0.17790E-04   -0.45855E-04  8063   0.292E-02    0.463E-02
RMM:   5    -0.357567523486E+03    0.41056E-05   -0.15865E-04  6759   0.212E-02    0.257E-02
RMM:   6    -0.357567515416E+03    0.80701E-05   -0.66891E-05  5931   0.161E-02
  24 F= -.35756752E+03 E0= -.35757664E+03  d E =-.235691E-02
       N       E                     dE             d eps       ncg     rms          rms(c)
DAV:   1    -0.357563628832E+03    0.38947E-02   -0.26096E+00  5264   0.451E+00    0.296E-01
RMM:   2    -0.357570043469E+03   -0.64146E-02   -0.74388E-02  6555   0.755E-01    0.146E-01
RMM:   3    -0.357569660261E+03    0.38321E-03   -0.83431E-03  7500   0.223E-01    0.127E-01
RMM:   4    -0.357569598654E+03    0.61608E-04   -0.17020E-03  8835   0.563E-02    0.908E-02
RMM:   5    -0.357569586473E+03    0.12181E-04   -0.58781E-04  7942   0.397E-02    0.542E-02
RMM:   6    -0.357569558235E+03    0.28238E-04   -0.25839E-04  7569   0.311E-02    0.188E-02
RMM:   7    -0.357569555869E+03    0.23664E-05   -0.70156E-05  4868   0.133E-02
  25 F= -.35756956E+03 E0= -.35757856E+03  d E =-.439736E-02
       N       E                     dE             d eps       ncg     rms          rms(c)
DAV:   1    -0.357543999065E+03    0.25559E-01   -0.10438E+01  5040   0.901E+00    0.608E-01
RMM:   2    -0.357570001664E+03   -0.26003E-01   -0.30001E-01  6522   0.153E+00    0.292E-01
RMM:   3    -0.357568615708E+03    0.13860E-02   -0.33968E-02  7523   0.447E-01    0.258E-01
RMM:   4    -0.357568346837E+03    0.26887E-03   -0.68118E-03  8959   0.114E-01    0.187E-01
RMM:   5    -0.357568289510E+03    0.57327E-04   -0.22417E-03  8297   0.786E-02    0.111E-01
RMM:   6    -0.357568180309E+03    0.10920E-03   -0.10551E-03  7881   0.634E-02    0.391E-02
RMM:   7    -0.357568179772E+03    0.53697E-06   -0.35027E-04  7558   0.262E-02    0.257E-02
RMM:   8    -0.357568183150E+03   -0.33782E-05   -0.13128E-04  5975   0.174E-02    0.174E-02
RMM:   9    -0.357568184224E+03   -0.10745E-05   -0.64588E-05  4804   0.140E-02
  26 F= -.35756818E+03 E0= -.35757685E+03  d E =-.302572E-02
       N       E                     dE             d eps       ncg     rms          rms(c)
DAV:   1    -0.357557751588E+03    0.10432E-01   -0.55135E+00  5168   0.654E+00    0.417E-01
RMM:   2    -0.357571053417E+03   -0.13302E-01   -0.15618E-01  6396   0.110E+00    0.209E-01
RMM:   3    -0.357570091917E+03    0.96150E-03   -0.16715E-02  7456   0.332E-01    0.178E-01
RMM:   4    -0.357569959694E+03    0.13222E-03   -0.34355E-03  8829   0.808E-02    0.124E-01
RMM:   5    -0.357569935437E+03    0.24257E-04   -0.11500E-03  8154   0.575E-02    0.748E-02
RMM:   6    -0.357569898822E+03    0.36615E-04   -0.48997E-04  8038   0.418E-02    0.258E-02
RMM:   7    -0.357569900096E+03   -0.12743E-05   -0.15373E-04  6210   0.182E-02    0.167E-02
RMM:   8    -0.357569904300E+03   -0.42041E-05   -0.61141E-05  4367   0.148E-02
  27 F= -.35756990E+03 E0= -.35757882E+03  d E =-.474579E-02
       N       E                     dE             d eps       ncg     rms          rms(c)
DAV:   1    -0.357573999728E+03   -0.40996E-02   -0.44337E-01  5456   0.204E+00    0.598E-01
RMM:   2    -0.357571973515E+03    0.20262E-02   -0.28616E-02  6607   0.436E-01    0.195E-01
RMM:   3    -0.357571255575E+03    0.71794E-03   -0.54634E-03  7565   0.152E-01    0.125E-01
RMM:   4    -0.357570846905E+03    0.40867E-03   -0.14037E-03  7733   0.740E-02    0.799E-02
RMM:   5    -0.357570804049E+03    0.42856E-04   -0.45023E-04  7623   0.379E-02    0.599E-02
RMM:   6    -0.357570831649E+03   -0.27600E-04   -0.16549E-04  6777   0.225E-02    0.346E-02
RMM:   7    -0.357570856889E+03   -0.25240E-04   -0.79787E-05  5455   0.170E-02    0.159E-02
RMM:   8    -0.357570869316E+03   -0.12427E-04   -0.39556E-05  3860   0.133E-02    0.120E-02
RMM:   9    -0.357570877163E+03   -0.78469E-05   -0.25539E-05  3915   0.119E-02
  28 F= -.35757088E+03 E0= -.35757975E+03  d E =-.972863E-03
       N       E                     dE             d eps       ncg     rms          rms(c)
DAV:   1    -0.357571313190E+03   -0.44387E-03   -0.63846E-02  5640   0.774E-01    0.224E-01
RMM:   2    -0.357571020604E+03    0.29259E-03   -0.40457E-03  6516   0.164E-01    0.715E-02
RMM:   3    -0.357570926534E+03    0.94071E-04   -0.77305E-04  7534   0.580E-02    0.451E-02
RMM:   4    -0.357570878412E+03    0.48122E-04   -0.20450E-04  7099   0.277E-02    0.295E-02
RMM:   5    -0.357570876957E+03    0.14550E-05   -0.61197E-05  5015   0.157E-02
  29 F= -.35757088E+03 E0= -.35757973E+03  d E =-.972656E-03
       N       E                     dE             d eps       ncg     rms          rms(c)
DAV:   1    -0.357571216713E+03   -0.33830E-03   -0.23334E-01  5048   0.135E+00    0.108E-01
RMM:   2    -0.357571664095E+03   -0.44738E-03   -0.70098E-03  7216   0.241E-01    0.581E-02
RMM:   3    -0.357571645384E+03    0.18711E-04   -0.87592E-04  7293   0.657E-02    0.417E-02
RMM:   4    -0.357571629217E+03    0.16167E-04   -0.26178E-04  7581   0.250E-02    0.236E-02
RMM:   5    -0.357571631760E+03   -0.25437E-05   -0.85440E-05  4892   0.150E-02
  30 F= -.35757163E+03 E0= -.35758052E+03  d E =-.754804E-03
       N       E                     dE             d eps       ncg     rms          rms(c)
DAV:   1    -0.357571767423E+03   -0.13821E-03   -0.13054E-01  5064   0.101E+00    0.800E-02
RMM:   2    -0.357572032098E+03   -0.26468E-03   -0.40352E-03  7271   0.181E-01    0.430E-02
RMM:   3    -0.357572026523E+03    0.55754E-05   -0.54894E-04  7011   0.503E-02    0.314E-02
RMM:   4    -0.357572017495E+03    0.90278E-05   -0.16827E-04  6302   0.196E-02    0.173E-02
RMM:   5    -0.357572019694E+03   -0.21993E-05   -0.68185E-05  4372   0.120E-02
  31 F= -.35757202E+03 E0= -.35758092E+03  d E =-.114274E-02
       N       E                     dE             d eps       ncg     rms          rms(c)
DAV:   1    -0.357571457790E+03    0.55971E-03   -0.52255E-01  5048   0.202E+00    0.159E-01
RMM:   2    -0.357572470333E+03   -0.10125E-02   -0.15756E-02  7204   0.360E-01    0.840E-02
RMM:   3    -0.357572433277E+03    0.37056E-04   -0.20604E-03  7400   0.984E-02    0.611E-02
RMM:   4    -0.357572385570E+03    0.47707E-04   -0.54449E-04  8308   0.358E-02    0.339E-02
RMM:   5    -0.357572385937E+03   -0.36740E-06   -0.19005E-04  6058   0.231E-02    0.179E-02
RMM:   6    -0.357572385820E+03    0.11654E-06   -0.85715E-05  4798   0.158E-02
  32 F= -.35757239E+03 E0= -.35758133E+03  d E =-.150886E-02
       N       E                     dE             d eps       ncg     rms          rms(c)
DAV:   1    -0.357577753623E+03   -0.53677E-02   -0.27652E-01  6192   0.174E+00    0.670E-01
RMM:   2    -0.357574261518E+03    0.34921E-02   -0.30079E-02  7326   0.436E-01    0.216E-01
RMM:   3    -0.357573220399E+03    0.10411E-02   -0.64593E-03  7716   0.143E-01    0.135E-01
RMM:   4    -0.357572754177E+03    0.46622E-03   -0.16045E-03  7717   0.881E-02    0.859E-02
RMM:   5    -0.357572659970E+03    0.94207E-04   -0.47626E-04  7665   0.390E-02    0.644E-02
RMM:   6    -0.357572658053E+03    0.19171E-05   -0.19108E-04  6882   0.221E-02    0.394E-02
RMM:   7    -0.357572649970E+03    0.80826E-05   -0.89296E-05  5814   0.171E-02
  33 F= -.35757265E+03 E0= -.35758164E+03  d E =-.264150E-03
       N       E                     dE             d eps       ncg     rms          rms(c)
DAV:   1    -0.357573323628E+03   -0.66558E-03   -0.32151E-02  6248   0.593E-01    0.235E-01
RMM:   2    -0.357572912890E+03    0.41074E-03   -0.35571E-03  7406   0.147E-01    0.792E-02
RMM:   3    -0.357572796411E+03    0.11648E-03   -0.80998E-04  7689   0.498E-02    0.511E-02
RMM:   4    -0.357572734968E+03    0.61442E-04   -0.20527E-04  7124   0.310E-02    0.301E-02
RMM:   5    -0.357572722929E+03    0.12039E-04   -0.59556E-05  4875   0.151E-02    0.211E-02
RMM:   6    -0.357572726381E+03   -0.34516E-05   -0.18454E-05  2998   0.970E-03
  34 F= -.35757273E+03 E0= -.35758170E+03  d E =-.340561E-03
       N       E                     dE             d eps       ncg     rms          rms(c)
DAV:   1    -0.357572838456E+03   -0.11553E-03   -0.69310E-02  5112   0.755E-01    0.530E-02
RMM:   2    -0.357573007302E+03   -0.16885E-03   -0.22205E-03  6944   0.134E-01    0.274E-02
RMM:   3    -0.357572995041E+03    0.12261E-04   -0.19817E-04  6439   0.377E-02    0.214E-02
RMM:   4    -0.357572992486E+03    0.25551E-05   -0.72676E-05  4903   0.139E-02
  35 F= -.35757299E+03 E0= -.35758199E+03  d E =-.266105E-03
       N       E                     dE             d eps       ncg     rms          rms(c)
DAV:   1    -0.357572590034E+03    0.40501E-03   -0.28781E-01  5056   0.154E+00    0.109E-01
RMM:   2    -0.357573295728E+03   -0.70569E-03   -0.93297E-03  7132   0.273E-01    0.583E-02
RMM:   3    -0.357573270607E+03    0.25120E-04   -0.10474E-03  7307   0.745E-02    0.456E-02
RMM:   4    -0.357573246672E+03    0.23935E-04   -0.26785E-04  7796   0.258E-02    0.256E-02
RMM:   5    -0.357573247558E+03   -0.88600E-06   -0.87856E-05  5251   0.163E-02
  36 F= -.35757325E+03 E0= -.35758227E+03  d E =-.521177E-03
       N       E                     dE             d eps       ncg     rms          rms(c)
DAV:   1    -0.357573898711E+03   -0.65204E-03   -0.74771E-02  5400   0.839E-01    0.229E-01
RMM:   2    -0.357573575752E+03    0.32296E-03   -0.46746E-03  7250   0.181E-01    0.779E-02
RMM:   3    -0.357573470048E+03    0.10570E-03   -0.84590E-04  7631   0.600E-02    0.532E-02
RMM:   4    -0.357573401621E+03    0.68428E-04   -0.24030E-04  7649   0.298E-02    0.333E-02
RMM:   5    -0.357573394517E+03    0.71032E-05   -0.80319E-05  6527   0.166E-02
  37 F= -.35757339E+03 E0= -.35758245E+03  d E =-.146959E-03
       N       E                     dE             d eps       ncg     rms          rms(c)
DAV:   1    -0.357573517723E+03   -0.11610E-03   -0.20462E-02  5328   0.441E-01    0.112E-01
RMM:   2    -0.357573437175E+03    0.80548E-04   -0.12418E-03  7340   0.930E-02    0.389E-02
RMM:   3    -0.357573408934E+03    0.28241E-04   -0.21079E-04  6977   0.283E-02    0.279E-02
RMM:   4    -0.357573395554E+03    0.13379E-04   -0.55871E-05  5241   0.168E-02    0.205E-02
RMM:   5    -0.357573396060E+03   -0.50619E-06   -0.18386E-05  3065   0.108E-02
  38 F= -.35757340E+03 E0= -.35758247E+03  d E =-.148502E-03
       N       E                     dE             d eps       ncg     rms          rms(c)
DAV:   1    -0.357573464131E+03   -0.68577E-04   -0.14908E-02  5144   0.341E-01    0.368E-02
RMM:   2    -0.357573490043E+03   -0.25912E-04   -0.51310E-04  7496   0.631E-02    0.203E-02
RMM:   3    -0.357573488159E+03    0.18831E-05   -0.62662E-05  4582   0.187E-02
  39 F= -.35757349E+03 E0= -.35758258E+03  d E =-.920990E-04
       N       E                     dE             d eps       ncg     rms          rms(c)
DAV:   1    -0.357573476803E+03    0.13240E-04   -0.13411E-01  5056   0.103E+00    0.102E-01
RMM:   2    -0.357573674805E+03   -0.19800E-03   -0.44168E-03  7458   0.185E-01    0.540E-02
RMM:   3    -0.357573645673E+03    0.29132E-04   -0.58232E-04  7172   0.512E-02    0.340E-02
RMM:   4    -0.357573636324E+03    0.93492E-05   -0.21277E-04  6768   0.222E-02    0.193E-02
RMM:   5    -0.357573634745E+03    0.15781E-05   -0.69810E-05  4452   0.128E-02
  40 F= -.35757363E+03 E0= -.35758278E+03  d E =-.238685E-03
       N       E                     dE             d eps       ncg     rms          rms(c)
DAV:   1    -0.357573625152E+03    0.11172E-04   -0.17081E-02  5296   0.366E-01    0.355E-02
RMM:   2    -0.357573656997E+03   -0.31846E-04   -0.60606E-04  7438   0.672E-02    0.197E-02
RMM:   3    -0.357573653963E+03    0.30346E-05   -0.78876E-05  4992   0.196E-02
  41 F= -.35757365E+03 E0= -.35758281E+03  d E =-.257902E-03
       N       E                     dE             d eps       ncg     rms          rms(c)
DAV:   1    -0.357573558844E+03    0.98154E-04   -0.68168E-02  5056   0.731E-01    0.733E-02
RMM:   2    -0.357573660249E+03   -0.10140E-03   -0.22959E-03  7450   0.132E-01    0.392E-02
RMM:   3    -0.357573643782E+03    0.16466E-04   -0.30872E-04  6734   0.364E-02    0.246E-02
RMM:   4    -0.357573640329E+03    0.34528E-05   -0.12443E-04  5526   0.172E-02    0.139E-02
RMM:   5    -0.357573640199E+03    0.13080E-06   -0.51583E-05  4339   0.107E-02
  42 F= -.35757364E+03 E0= -.35758284E+03  d E =-.244138E-03
       N       E                     dE             d eps       ncg     rms          rms(c)
DAV:   1    -0.357573641398E+03   -0.10690E-05   -0.21689E-02  5088   0.413E-01    0.407E-02
RMM:   2    -0.357573667984E+03   -0.26585E-04   -0.65486E-04  6927   0.735E-02    0.199E-02
RMM:   3    -0.357573659934E+03    0.80498E-05   -0.56940E-05  4625   0.204E-02
  43 F= -.35757366E+03 E0= -.35758285E+03  d E =-.263873E-03
       N       E                     dE             d eps       ncg     rms          rms(c)
DAV:   1    -0.357574018617E+03   -0.35063E-03   -0.35596E-02  5384   0.587E-01    0.162E-01
RMM:   2    -0.357573876935E+03    0.14168E-03   -0.22493E-03  6971   0.129E-01    0.535E-02
RMM:   3    -0.357573823249E+03    0.53686E-04   -0.38557E-04  7558   0.445E-02    0.344E-02
RMM:   4    -0.357573793121E+03    0.30128E-04   -0.10836E-04  6805   0.202E-02    0.217E-02
RMM:   5    -0.357573785588E+03    0.75329E-05   -0.26913E-05  3387   0.115E-02
  44 F= -.35757379E+03 E0= -.35758298E+03  d E =-.125654E-03
       N       E                     dE             d eps       ncg     rms          rms(c)
DAV:   1    -0.357573941325E+03   -0.14820E-03   -0.21286E-02  5416   0.455E-01    0.121E-01
RMM:   2    -0.357573859396E+03    0.81929E-04   -0.13761E-03  7201   0.100E-01    0.401E-02
RMM:   3    -0.357573822560E+03    0.36836E-04   -0.23410E-04  7427   0.329E-02    0.275E-02
RMM:   4    -0.357573804251E+03    0.18310E-04   -0.64830E-05  5452   0.168E-02    0.193E-02
RMM:   5    -0.357573800127E+03    0.41243E-05   -0.18240E-05  3043   0.107E-02
  45 F= -.35757380E+03 E0= -.35758301E+03  d E =-.140193E-03
       N       E                     dE             d eps       ncg     rms          rms(c)
DAV:   1    -0.357573914648E+03   -0.11040E-03   -0.11706E-02  5128   0.326E-01    0.727E-02
RMM:   2    -0.357573893702E+03    0.20946E-04   -0.69253E-04  7503   0.668E-02    0.317E-02
RMM:   3    -0.357573883314E+03    0.10389E-04   -0.13493E-04  6691   0.217E-02    0.217E-02
RMM:   4    -0.357573872935E+03    0.10378E-04   -0.41820E-05  4403   0.134E-02    0.120E-02
RMM:   5    -0.357573870349E+03    0.25860E-05   -0.12764E-05  2950   0.878E-03
  46 F= -.35757387E+03 E0= -.35758308E+03  d E =-.702228E-04
