       N       E                     dE             d eps       ncg     rms          rms(c)
DAV:   1     0.234592200393E+04    0.23459E+04   -0.12718E+05  5944   0.109E+03
DAV:   2    -0.290119872761E+02   -0.23749E+04   -0.22991E+04  6132   0.417E+02
DAV:   3    -0.326933547946E+03   -0.29792E+03   -0.28363E+03  9216   0.103E+02
DAV:   4    -0.363476171110E+03   -0.36543E+02   -0.34794E+02  9296   0.330E+01
DAV:   5    -0.367294710374E+03   -0.38185E+01   -0.37343E+01  8752   0.104E+01    0.629E+01
RMM:   6    -0.357213070726E+03    0.10082E+02   -0.24605E+01  7561   0.102E+01    0.294E+01
RMM:   7    -0.359417071188E+03   -0.22040E+01   -0.25308E+01  7998   0.819E+00    0.122E+01
RMM:   8    -0.353310739211E+03    0.61063E+01   -0.63014E+00  8000   0.359E+00    0.443E+00
RMM:   9    -0.353142481990E+03    0.16826E+00   -0.21981E+00  8102   0.186E+00    0.303E+00
RMM:  10    -0.353089865061E+03    0.52617E-01   -0.44402E-01  8094   0.118E+00    0.144E+00
RMM:  11    -0.353068002088E+03    0.21863E-01   -0.14971E-01  8083   0.602E-01    0.690E-01
RMM:  12    -0.353062881774E+03    0.51203E-02   -0.54037E-02  8180   0.314E-01    0.440E-01
RMM:  13    -0.353061376264E+03    0.15055E-02   -0.17707E-02  8332   0.175E-01    0.239E-01
RMM:  14    -0.353061723981E+03   -0.34772E-03   -0.82106E-03  8298   0.103E-01    0.140E-01
RMM:  15    -0.353061897645E+03   -0.17366E-03   -0.35730E-03  8469   0.630E-02    0.722E-02
RMM:  16    -0.353061950310E+03   -0.52665E-04   -0.16512E-03  7383   0.398E-02    0.355E-02
RMM:  17    -0.353061981136E+03   -0.30826E-04   -0.71093E-04  6346   0.262E-02    0.193E-02
RMM:  18    -0.353061998432E+03   -0.17297E-04   -0.32991E-04  6111   0.203E-02    0.999E-03
RMM:  19    -0.353062007177E+03   -0.87442E-05   -0.13838E-04  5286   0.137E-02    0.601E-03
RMM:  20    -0.353062012134E+03   -0.49569E-05   -0.81469E-05  5002   0.114E-02
   1 F= -.35306201E+03 E0= -.35306550E+03  d E =-.353062E+03
       N       E                     dE             d eps       ncg     rms          rms(c)
DAV:   1    -0.353137285662E+03   -0.75278E-01   -0.30241E+00  6632   0.557E+00    0.196E+00
RMM:   2    -0.353117026973E+03    0.20259E-01   -0.31458E-01  7391   0.147E+00    0.633E-01
RMM:   3    -0.353108745563E+03    0.82814E-02   -0.56959E-02  8216   0.451E-01    0.494E-01
RMM:   4    -0.353101537562E+03    0.72080E-02   -0.15557E-02  8275   0.244E-01    0.279E-01
RMM:   5    -0.353100805013E+03    0.73255E-03   -0.47378E-03  8227   0.129E-01    0.214E-01
RMM:   6    -0.353100859497E+03   -0.54485E-04   -0.21797E-03  8545   0.753E-02    0.137E-01
RMM:   7    -0.353100862915E+03   -0.34172E-05   -0.96030E-04  8400   0.564E-02    0.679E-02
RMM:   8    -0.353100888270E+03   -0.25356E-04   -0.51565E-04  7464   0.319E-02    0.484E-02
RMM:   9    -0.353100908696E+03   -0.20426E-04   -0.19524E-04  6628   0.258E-02    0.376E-02
RMM:  10    -0.353100924767E+03   -0.16070E-04   -0.10297E-04  5652   0.170E-02    0.230E-02
RMM:  11    -0.353100922293E+03    0.24735E-05   -0.67702E-05  4883   0.150E-02
   2 F= -.35310092E+03 E0= -.35310466E+03  d E =-.389102E-01
       N       E                     dE             d eps       ncg     rms          rms(c)
DAV:   1    -0.353311642072E+03   -0.21072E+00   -0.14552E+01  6240   0.122E+01    0.423E+00
RMM:   2    -0.353212917967E+03    0.98724E-01   -0.14728E+00  7351   0.321E+00    0.138E+00
RMM:   3    -0.353172323031E+03    0.40595E-01   -0.26711E-01  8212   0.980E-01    0.108E+00
RMM:   4    -0.353138385910E+03    0.33937E-01   -0.73646E-02  8274   0.531E-01    0.609E-01
RMM:   5    -0.353134875708E+03    0.35102E-02   -0.22757E-02  8256   0.283E-01    0.465E-01
RMM:   6    -0.353135271646E+03   -0.39594E-03   -0.10327E-02  8706   0.163E-01    0.298E-01
RMM:   7    -0.353135416503E+03   -0.14486E-03   -0.46015E-03  8862   0.124E-01    0.147E-01
RMM:   8    -0.353135621640E+03   -0.20514E-03   -0.25910E-03  9126   0.689E-02    0.108E-01
RMM:   9    -0.353135746245E+03   -0.12461E-03   -0.81068E-04  8149   0.497E-02    0.830E-02
RMM:  10    -0.353135885689E+03   -0.13944E-03   -0.51903E-04  7827   0.332E-02    0.522E-02
RMM:  11    -0.353135919554E+03   -0.33865E-04   -0.29312E-04  6538   0.264E-02    0.184E-02
RMM:  12    -0.353135920312E+03   -0.75839E-06   -0.15058E-04  6291   0.202E-02    0.107E-02
RMM:  13    -0.353135920675E+03   -0.36251E-06   -0.49486E-05  5277   0.142E-02
   3 F= -.35313592E+03 E0= -.35314010E+03  d E =-.739085E-01
       N       E                     dE             d eps       ncg     rms          rms(c)
DAV:   1    -0.353166249367E+03   -0.30329E-01   -0.39338E+00  5872   0.565E+00    0.108E+00
RMM:   2    -0.353179237356E+03   -0.12988E-01   -0.24754E-01  7103   0.125E+00    0.476E-01
RMM:   3    -0.353170779766E+03    0.84576E-02   -0.30060E-02  8018   0.378E-01    0.346E-01
RMM:   4    -0.353168619038E+03    0.21607E-02   -0.71731E-03  8267   0.154E-01    0.191E-01
RMM:   5    -0.353168439611E+03    0.17943E-03   -0.25857E-03  8210   0.969E-02    0.132E-01
RMM:   6    -0.353168494581E+03   -0.54970E-04   -0.12896E-03  8590   0.558E-02    0.903E-02
RMM:   7    -0.353168474932E+03    0.19648E-04   -0.49533E-04  7879   0.374E-02    0.493E-02
RMM:   8    -0.353168516665E+03   -0.41733E-04   -0.23860E-04  7029   0.227E-02    0.329E-02
RMM:   9    -0.353168541822E+03   -0.25157E-04   -0.10879E-04  5941   0.176E-02    0.202E-02
RMM:  10    -0.353168557695E+03   -0.15872E-04   -0.46269E-05  4835   0.130E-02    0.127E-02
RMM:  11    -0.353168566398E+03   -0.87030E-05   -0.17492E-05  3751   0.112E-02
   4 F= -.35316857E+03 E0= -.35317265E+03  d E =-.326457E-01
       N       E                     dE             d eps       ncg     rms          rms(c)
DAV:   1    -0.353194409957E+03   -0.25852E-01   -0.22115E+01  5600   0.134E+01    0.259E+00
RMM:   2    -0.353268282636E+03   -0.73873E-01   -0.13963E+00  7169   0.299E+00    0.114E+00
RMM:   3    -0.353218325599E+03    0.49957E-01   -0.16508E-01  7923   0.883E-01    0.806E-01
RMM:   4    -0.353206616876E+03    0.11709E-01   -0.40955E-02  8291   0.368E-01    0.442E-01
RMM:   5    -0.353205759151E+03    0.85773E-03   -0.14213E-02  8178   0.232E-01    0.309E-01
RMM:   6    -0.353206049897E+03   -0.29075E-03   -0.71891E-03  8833   0.130E-01    0.213E-01
RMM:   7    -0.353205948904E+03    0.10099E-03   -0.26894E-03  9097   0.884E-02    0.119E-01
RMM:   8    -0.353206158027E+03   -0.20912E-03   -0.14458E-03  8837   0.503E-02    0.811E-02
RMM:   9    -0.353206262734E+03   -0.10471E-03   -0.54880E-04  7920   0.368E-02    0.506E-02
RMM:  10    -0.353206332683E+03   -0.69949E-04   -0.23123E-04  6972   0.235E-02    0.305E-02
RMM:  11    -0.353206367132E+03   -0.34449E-04   -0.13534E-04  5819   0.194E-02    0.151E-02
RMM:  12    -0.353206377279E+03   -0.10147E-04   -0.66666E-05  5489   0.152E-02    0.681E-03
RMM:  13    -0.353206380447E+03   -0.31682E-05   -0.23888E-05  4101   0.117E-02
   5 F= -.35320638E+03 E0= -.35321016E+03  d E =-.704598E-01
       N       E                     dE             d eps       ncg     rms          rms(c)
DAV:   1    -0.353206707554E+03   -0.33028E-03   -0.60895E-01  6048   0.223E+00    0.426E-01
RMM:   2    -0.353208719191E+03   -0.20116E-02   -0.38503E-02  7060   0.493E-01    0.185E-01
RMM:   3    -0.353207431713E+03    0.12875E-02   -0.46875E-03  8000   0.150E-01    0.134E-01
RMM:   4    -0.353207113263E+03    0.31845E-03   -0.10988E-03  8169   0.599E-02    0.736E-02
RMM:   5    -0.353207096669E+03    0.16594E-04   -0.40679E-04  7993   0.382E-02    0.507E-02
RMM:   6    -0.353207115038E+03   -0.18369E-04   -0.20323E-04  7281   0.223E-02    0.347E-02
RMM:   7    -0.353207119816E+03   -0.47783E-05   -0.77018E-05  5647   0.160E-02
   6 F= -.35320712E+03 E0= -.35321083E+03  d E =-.711991E-01
       N       E                     dE             d eps       ncg     rms          rms(c)
DAV:   1    -0.353212409106E+03   -0.52941E-02   -0.13819E+00  5568   0.338E+00    0.355E-01
RMM:   2    -0.353217509963E+03   -0.51009E-02   -0.64458E-02  6970   0.686E-01    0.172E-01
RMM:   3    -0.353216949356E+03    0.56061E-03   -0.67524E-03  8041   0.198E-01    0.148E-01
RMM:   4    -0.353216682444E+03    0.26691E-03   -0.13080E-03  8523   0.568E-02    0.903E-02
RMM:   5    -0.353216663050E+03    0.19395E-04   -0.60963E-04  7998   0.400E-02    0.557E-02
RMM:   6    -0.353216631896E+03    0.31154E-04   -0.26041E-04  7620   0.308E-02    0.244E-02
RMM:   7    -0.353216628679E+03    0.32177E-05   -0.87001E-05  5440   0.148E-02
   7 F= -.35321663E+03 E0= -.35322031E+03  d E =-.950886E-02
       N       E                     dE             d eps       ncg     rms          rms(c)
DAV:   1    -0.353208307023E+03    0.83249E-02   -0.74790E+00  5488   0.786E+00    0.804E-01
RMM:   2    -0.353236365358E+03   -0.28058E-01   -0.35159E-01  6814   0.160E+00    0.389E-01
RMM:   3    -0.353233280736E+03    0.30846E-02   -0.36288E-02  8034   0.461E-01    0.340E-01
RMM:   4    -0.353231971350E+03    0.13094E-02   -0.70769E-03  8635   0.131E-01    0.210E-01
RMM:   5    -0.353231890017E+03    0.81333E-04   -0.32317E-03  8301   0.924E-02    0.131E-01
RMM:   6    -0.353231750733E+03    0.13928E-03   -0.14632E-03  8326   0.725E-02    0.575E-02
RMM:   7    -0.353231753218E+03   -0.24852E-05   -0.56473E-04  8005   0.328E-02    0.397E-02
RMM:   8    -0.353231754055E+03   -0.83704E-06   -0.18426E-04  6347   0.205E-02    0.284E-02
RMM:   9    -0.353231758794E+03   -0.47388E-05   -0.11812E-04  6051   0.172E-02    0.171E-02
RMM:  10    -0.353231756767E+03    0.20263E-05   -0.42867E-05  5038   0.136E-02
   8 F= -.35323176E+03 E0= -.35323539E+03  d E =-.246370E-01
       N       E                     dE             d eps       ncg     rms          rms(c)
DAV:   1    -0.353135036201E+03    0.96723E-01   -0.29915E+01  5488   0.157E+01    0.159E+00
RMM:   2    -0.353251886663E+03   -0.11685E+00   -0.14446E+00  6723   0.322E+00    0.778E-01
RMM:   3    -0.353238994444E+03    0.12892E-01   -0.14752E-01  8134   0.956E-01    0.686E-01
RMM:   4    -0.353233969185E+03    0.50253E-02   -0.28787E-02  8591   0.263E-01    0.431E-01
RMM:   5    -0.353233552349E+03    0.41684E-03   -0.12842E-02  8239   0.189E-01    0.271E-01
RMM:   6    -0.353232930087E+03    0.62226E-03   -0.59669E-03  8299   0.151E-01    0.112E-01
RMM:   7    -0.353232968025E+03   -0.37938E-04   -0.22981E-03  9457   0.659E-02    0.796E-02
RMM:   8    -0.353232991718E+03   -0.23693E-04   -0.79969E-04  8148   0.363E-02    0.579E-02
RMM:   9    -0.353233018890E+03   -0.27171E-04   -0.39100E-04  7541   0.286E-02    0.367E-02
RMM:  10    -0.353233025477E+03   -0.65872E-05   -0.17298E-04  6521   0.208E-02    0.175E-02
RMM:  11    -0.353233026579E+03   -0.11023E-05   -0.10205E-04  5950   0.164E-02    0.100E-02
RMM:  12    -0.353233026562E+03    0.17404E-07   -0.40860E-05  4956   0.128E-02
   9 F= -.35323303E+03 E0= -.35323660E+03  d E =-.259067E-01
       N       E                     dE             d eps       ncg     rms          rms(c)
DAV:   1    -0.353217338862E+03    0.15688E-01   -0.68018E+00  5560   0.745E+00    0.768E-01
RMM:   2    -0.353241480755E+03   -0.24142E-01   -0.31275E-01  6776   0.149E+00    0.361E-01
RMM:   3    -0.353238635481E+03    0.28453E-02   -0.31840E-02  7993   0.439E-01    0.311E-01
RMM:   4    -0.353237303031E+03    0.13324E-02   -0.61852E-03  8656   0.126E-01    0.181E-01
RMM:   5    -0.353237264447E+03    0.38584E-04   -0.28782E-03  8553   0.871E-02    0.114E-01
RMM:   6    -0.353237200466E+03    0.63981E-04   -0.11876E-03  8609   0.622E-02    0.549E-02
RMM:   7    -0.353237219560E+03   -0.19095E-04   -0.45260E-04  7852   0.296E-02    0.378E-02
RMM:   8    -0.353237233263E+03   -0.13703E-04   -0.14510E-04  6199   0.195E-02    0.258E-02
RMM:   9    -0.353237251036E+03   -0.17773E-04   -0.99504E-05  5884   0.166E-02    0.143E-02
RMM:  10    -0.353237258484E+03   -0.74481E-05   -0.34439E-05  4720   0.131E-02
  10 F= -.35323726E+03 E0= -.35324085E+03  d E =-.301387E-01
       N       E                     dE             d eps       ncg     rms          rms(c)
DAV:   1    -0.353260006192E+03   -0.22755E-01   -0.21697E+00  6100   0.468E+00    0.141E+00
RMM:   2    -0.353252288342E+03    0.77179E-02   -0.18819E-01  7578   0.114E+00    0.496E-01
RMM:   3    -0.353245425719E+03    0.68626E-02   -0.34075E-02  8220   0.356E-01    0.374E-01
RMM:   4    -0.353241515213E+03    0.39105E-02   -0.92931E-03  8271   0.188E-01    0.204E-01
RMM:   5    -0.353241152000E+03    0.36321E-03   -0.28425E-03  8182   0.104E-01    0.154E-01
RMM:   6    -0.353241273765E+03   -0.12177E-03   -0.13142E-03  8722   0.586E-02    0.105E-01
RMM:   7    -0.353241338342E+03   -0.64577E-04   -0.55746E-04  7892   0.416E-02    0.546E-02
RMM:   8    -0.353241389992E+03   -0.51650E-04   -0.29013E-04  6969   0.262E-02    0.363E-02
RMM:   9    -0.353241431075E+03   -0.41083E-04   -0.13096E-04  5707   0.205E-02    0.276E-02
RMM:  10    -0.353241466525E+03   -0.35450E-04   -0.67083E-05  4932   0.149E-02    0.147E-02
RMM:  11    -0.353241487241E+03   -0.20716E-04   -0.40919E-05  4454   0.139E-02    0.634E-03
RMM:  12    -0.353241490772E+03   -0.35306E-05   -0.19147E-05  3967   0.127E-02
  11 F= -.35324149E+03 E0= -.35324503E+03  d E =-.423229E-02
       N       E                     dE             d eps       ncg     rms          rms(c)
DAV:   1    -0.353241687395E+03   -0.20015E-03   -0.21798E-02  6352   0.469E-01    0.139E-01
RMM:   2    -0.353241603907E+03    0.83488E-04   -0.18609E-03  7422   0.114E-01    0.483E-02
RMM:   3    -0.353241537610E+03    0.66297E-04   -0.32871E-04  7823   0.358E-02    0.354E-02
RMM:   4    -0.353241504016E+03    0.33594E-04   -0.91725E-05  5995   0.188E-02    0.190E-02
RMM:   5    -0.353241502870E+03    0.11461E-05   -0.21144E-05  3432   0.133E-02
  12 F= -.35324150E+03 E0= -.35324504E+03  d E =-.424439E-02
       N       E                     dE             d eps       ncg     rms          rms(c)
DAV:   1    -0.353243283577E+03   -0.17796E-02   -0.13116E+00  5512   0.332E+00    0.390E-01
RMM:   2    -0.353246314010E+03   -0.30304E-02   -0.52090E-02  7866   0.647E-01    0.183E-01
RMM:   3    -0.353246067199E+03    0.24681E-03   -0.58387E-03  8024   0.173E-01    0.133E-01
RMM:   4    -0.353245786371E+03    0.28083E-03   -0.15347E-03  8453   0.642E-02    0.796E-02
RMM:   5    -0.353245751808E+03    0.34564E-04   -0.65217E-04  8496   0.435E-02    0.487E-02
RMM:   6    -0.353245735614E+03    0.16193E-04   -0.25224E-04  7933   0.254E-02    0.301E-02
RMM:   7    -0.353245728545E+03    0.70693E-05   -0.91750E-05  5524   0.162E-02
  13 F= -.35324573E+03 E0= -.35324930E+03  d E =-.422568E-02
       N       E                     dE             d eps       ncg     rms          rms(c)
DAV:   1    -0.353239503527E+03    0.62321E-02   -0.48706E+00  5488   0.639E+00    0.734E-01
RMM:   2    -0.353250776664E+03   -0.11273E-01   -0.19321E-01  7865   0.124E+00    0.344E-01
RMM:   3    -0.353249820395E+03    0.95627E-03   -0.21205E-02  8028   0.331E-01    0.250E-01
RMM:   4    -0.353248859138E+03    0.96126E-03   -0.56633E-03  8527   0.123E-01    0.151E-01
RMM:   5    -0.353248761765E+03    0.97374E-04   -0.24139E-03  8698   0.841E-02    0.942E-02
RMM:   6    -0.353248730190E+03    0.31574E-04   -0.99632E-04  9208   0.493E-02    0.594E-02
RMM:   7    -0.353248722751E+03    0.74398E-05   -0.40678E-04  7734   0.293E-02    0.362E-02
RMM:   8    -0.353248726885E+03   -0.41345E-05   -0.19128E-04  6931   0.216E-02    0.223E-02
RMM:   9    -0.353248730224E+03   -0.33389E-05   -0.10259E-04  6129   0.171E-02    0.146E-02
RMM:  10    -0.353248729198E+03    0.10255E-05   -0.42106E-05  5137   0.139E-02
  14 F= -.35324873E+03 E0= -.35325237E+03  d E =-.722633E-02
       N       E                     dE             d eps       ncg     rms          rms(c)
DAV:   1    -0.353249196590E+03   -0.46637E-03   -0.69793E-01  5496   0.238E+00    0.216E-01
RMM:   2    -0.353250879680E+03   -0.16831E-02   -0.24365E-02  7831   0.454E-01    0.110E-01
RMM:   3    -0.353250802561E+03    0.77118E-04   -0.26306E-03  7995   0.120E-01    0.790E-02
RMM:   4    -0.353250755040E+03    0.47521E-04   -0.62701E-04  8934   0.386E-02    0.539E-02
RMM:   5    -0.353250750268E+03    0.47717E-05   -0.27241E-04  8163   0.296E-02    0.296E-02
RMM:   6    -0.353250748996E+03    0.12726E-05   -0.10953E-04  6371   0.178E-02    0.171E-02
RMM:   7    -0.353250751308E+03   -0.23121E-05   -0.40903E-05  4143   0.140E-02
  15 F= -.35325075E+03 E0= -.35325437E+03  d E =-.202211E-02
       N       E                     dE             d eps       ncg     rms          rms(c)
DAV:   1    -0.353240749977E+03    0.99990E-02   -0.54815E+00  5488   0.667E+00    0.605E-01
RMM:   2    -0.353253945497E+03   -0.13196E-01   -0.19046E-01  7723   0.127E+00    0.301E-01
RMM:   3    -0.353253304401E+03    0.64110E-03   -0.20215E-02  7986   0.338E-01    0.216E-01
RMM:   4    -0.353252960345E+03    0.34406E-03   -0.48316E-03  9249   0.107E-01    0.145E-01
RMM:   5    -0.353252939040E+03    0.21305E-04   -0.20387E-03  8846   0.814E-02    0.811E-02
RMM:   6    -0.353252930910E+03    0.81299E-05   -0.88981E-04  9272   0.489E-02    0.460E-02
RMM:   7    -0.353252948387E+03   -0.17477E-04   -0.34321E-04  8048   0.276E-02    0.303E-02
RMM:   8    -0.353252962196E+03   -0.13809E-04   -0.12952E-04  6467   0.182E-02    0.193E-02
RMM:   9    -0.353252974322E+03   -0.12127E-04   -0.77108E-05  5486   0.153E-02    0.122E-02
RMM:  10    -0.353252980864E+03   -0.65419E-05   -0.32585E-05  4401   0.128E-02
  16 F= -.35325298E+03 E0= -.35325655E+03  d E =-.425167E-02
       N       E                     dE             d eps       ncg     rms          rms(c)
DAV:   1    -0.353259076690E+03   -0.61024E-02   -0.13003E+00  5784   0.348E+00    0.822E-01
RMM:   2    -0.353258258970E+03    0.81772E-03   -0.80888E-02  7242   0.780E-01    0.315E-01
RMM:   3    -0.353255861867E+03    0.23971E-02   -0.13719E-02  8075   0.256E-01    0.234E-01
RMM:   4    -0.353254410255E+03    0.14516E-02   -0.36442E-03  8279   0.115E-01    0.129E-01
RMM:   5    -0.353254256109E+03    0.15415E-03   -0.12028E-03  8380   0.628E-02    0.969E-02
RMM:   6    -0.353254246223E+03    0.98852E-05   -0.54696E-04  8317   0.373E-02    0.635E-02
RMM:   7    -0.353254223094E+03    0.23130E-04   -0.24256E-04  7085   0.275E-02    0.310E-02
RMM:   8    -0.353254221404E+03    0.16895E-05   -0.12569E-04  6030   0.185E-02    0.201E-02
RMM:   9    -0.353254222875E+03   -0.14707E-05   -0.60850E-05  5007   0.150E-02
  17 F= -.35325422E+03 E0= -.35325777E+03  d E =-.124201E-02
       N       E                     dE             d eps       ncg     rms          rms(c)
DAV:   1    -0.353254224299E+03   -0.28954E-05   -0.61067E-03  6208   0.240E-01    0.518E-02
RMM:   2    -0.353254226118E+03   -0.18186E-05   -0.37376E-04  7390   0.524E-02    0.191E-02
RMM:   3    -0.353254214073E+03    0.12045E-04   -0.54803E-05  5209   0.167E-02    0.143E-02
RMM:   4    -0.353254208225E+03    0.58481E-05   -0.16885E-05  3275   0.117E-02
  18 F= -.35325421E+03 E0= -.35325776E+03  d E =-.122736E-02
       N       E                     dE             d eps       ncg     rms          rms(c)
DAV:   1    -0.353254038678E+03    0.17540E-03   -0.95295E-01  5504   0.280E+00    0.304E-01
RMM:   2    -0.353256062609E+03   -0.20239E-02   -0.35832E-02  7954   0.540E-01    0.146E-01
RMM:   3    -0.353255841302E+03    0.22131E-03   -0.37012E-03  7980   0.141E-01    0.104E-01
RMM:   4    -0.353255687622E+03    0.15368E-03   -0.10399E-03  8771   0.529E-02    0.626E-02
RMM:   5    -0.353255672896E+03    0.14726E-04   -0.43542E-04  8434   0.358E-02    0.386E-02
RMM:   6    -0.353255670234E+03    0.26620E-05   -0.16759E-04  7187   0.215E-02    0.227E-02
RMM:   7    -0.353255674637E+03   -0.44027E-05   -0.60323E-05  4906   0.150E-02
  19 F= -.35325567E+03 E0= -.35325913E+03  d E =-.146641E-02
       N       E                     dE             d eps       ncg     rms          rms(c)
DAV:   1    -0.353253070743E+03    0.25995E-02   -0.18194E+00  5488   0.387E+00    0.415E-01
RMM:   2    -0.353256943875E+03   -0.38731E-02   -0.68502E-02  7937   0.745E-01    0.198E-01
RMM:   3    -0.353256516073E+03    0.42780E-03   -0.70208E-03  7971   0.195E-01    0.141E-01
RMM:   4    -0.353256244581E+03    0.27149E-03   -0.20131E-03  8875   0.728E-02    0.852E-02
RMM:   5    -0.353256229094E+03    0.15487E-04   -0.85041E-04  8784   0.499E-02    0.532E-02
RMM:   6    -0.353256233574E+03   -0.44801E-05   -0.34683E-04  8489   0.298E-02    0.321E-02
RMM:   7    -0.353256243722E+03   -0.10148E-04   -0.11866E-04  5910   0.184E-02    0.195E-02
RMM:   8    -0.353256254741E+03   -0.11019E-04   -0.85922E-05  5233   0.160E-02    0.118E-02
RMM:   9    -0.353256260286E+03   -0.55453E-05   -0.36162E-05  4745   0.133E-02
  20 F= -.35325626E+03 E0= -.35325958E+03  d E =-.205206E-02
       N       E                     dE             d eps       ncg     rms          rms(c)
DAV:   1    -0.353256225726E+03    0.29015E-04   -0.47085E-02  5632   0.622E-01    0.679E-02
RMM:   2    -0.353256328927E+03   -0.10320E-03   -0.17712E-03  7699   0.120E-01    0.316E-02
RMM:   3    -0.353256311440E+03    0.17487E-04   -0.16226E-04  7354   0.334E-02    0.245E-02
RMM:   4    -0.353256301044E+03    0.10396E-04   -0.37400E-05  4534   0.126E-02    0.148E-02
RMM:   5    -0.353256298160E+03    0.28836E-05   -0.12257E-05  3074   0.908E-03
  21 F= -.35325630E+03 E0= -.35325964E+03  d E =-.208993E-02
       N       E                     dE             d eps       ncg     rms          rms(c)
DAV:   1    -0.353256207421E+03    0.93623E-04   -0.36368E-01  5496   0.172E+00    0.163E-01
RMM:   2    -0.353257077400E+03   -0.86998E-03   -0.12817E-02  7709   0.327E-01    0.781E-02
RMM:   3    -0.353257022701E+03    0.54699E-04   -0.12748E-03  7963   0.882E-02    0.555E-02
RMM:   4    -0.353256997292E+03    0.25410E-04   -0.32754E-04  8457   0.287E-02    0.366E-02
RMM:   5    -0.353256990553E+03    0.67386E-05   -0.13663E-04  6961   0.204E-02    0.221E-02
RMM:   6    -0.353256983304E+03    0.72487E-05   -0.55426E-05  5009   0.136E-02
  22 F= -.35325698E+03 E0= -.35326029E+03  d E =-.685144E-03
       N       E                     dE             d eps       ncg     rms          rms(c)
DAV:   1    -0.353255599655E+03    0.13909E-02   -0.80264E-01  5488   0.256E+00    0.243E-01
RMM:   2    -0.353257540144E+03   -0.19405E-02   -0.28662E-02  7769   0.487E-01    0.119E-01
RMM:   3    -0.353257440052E+03    0.10009E-03   -0.30423E-03  7970   0.131E-01    0.829E-02
RMM:   4    -0.353257397080E+03    0.42972E-04   -0.80368E-04  8965   0.438E-02    0.551E-02
RMM:   5    -0.353257387147E+03    0.99333E-05   -0.33735E-04  8295   0.312E-02    0.333E-02
RMM:   6    -0.353257375209E+03    0.11937E-04   -0.13743E-04  6771   0.198E-02    0.187E-02
RMM:   7    -0.353257373247E+03    0.19621E-05   -0.48448E-05  4740   0.147E-02
  23 F= -.35325737E+03 E0= -.35326064E+03  d E =-.107509E-02
       N       E                     dE             d eps       ncg     rms          rms(c)
DAV:   1    -0.353259124001E+03   -0.17488E-02   -0.36164E-01  5808   0.183E+00    0.446E-01
RMM:   2    -0.353258827059E+03    0.29694E-03   -0.23579E-02  7202   0.412E-01    0.168E-01
RMM:   3    -0.353258123351E+03    0.70371E-03   -0.37630E-03  8111   0.132E-01    0.125E-01
RMM:   4    -0.353257731122E+03    0.39223E-03   -0.11265E-03  8225   0.630E-02    0.679E-02
RMM:   5    -0.353257701854E+03    0.29268E-04   -0.34939E-04  8118   0.353E-02    0.518E-02
RMM:   6    -0.353257717751E+03   -0.15897E-04   -0.15859E-04  7080   0.198E-02    0.341E-02
RMM:   7    -0.353257728612E+03   -0.10861E-04   -0.62035E-05  5363   0.153E-02    0.169E-02
RMM:   8    -0.353257738721E+03   -0.10109E-04   -0.42692E-05  4572   0.126E-02    0.973E-03
RMM:   9    -0.353257744483E+03   -0.57615E-05   -0.17855E-05  3762   0.107E-02
  24 F= -.35325774E+03 E0= -.35326099E+03  d E =-.371236E-03
       N       E                     dE             d eps       ncg     rms          rms(c)
DAV:   1    -0.353257761417E+03   -0.22696E-04   -0.67461E-03  6096   0.251E-01    0.569E-02
RMM:   2    -0.353257758430E+03    0.29875E-05   -0.42866E-04  7153   0.558E-02    0.207E-02
RMM:   3    -0.353257746706E+03    0.11724E-04   -0.56009E-05  5355   0.177E-02    0.149E-02
RMM:   4    -0.353257743606E+03    0.30994E-05   -0.16104E-05  3232   0.117E-02
  25 F= -.35325774E+03 E0= -.35326098E+03  d E =-.370359E-03
       N       E                     dE             d eps       ncg     rms          rms(c)
DAV:   1    -0.353257792474E+03   -0.45768E-04   -0.14049E-01  5624   0.105E+00    0.986E-02
RMM:   2    -0.353258126325E+03   -0.33385E-03   -0.45839E-03  7734   0.195E-01    0.489E-02
RMM:   3    -0.353258111157E+03    0.15169E-04   -0.53330E-04  7882   0.537E-02    0.355E-02
RMM:   4    -0.353258103655E+03    0.75023E-05   -0.13107E-04  7141   0.178E-02    0.235E-02
RMM:   5    -0.353258101154E+03    0.25010E-05   -0.40403E-05  4383   0.113E-02
  26 F= -.35325810E+03 E0= -.35326136E+03  d E =-.357547E-03
       N       E                     dE             d eps       ncg     rms          rms(c)
DAV:   1    -0.353255895187E+03    0.22085E-02   -0.12000E+00  5488   0.307E+00    0.280E-01
RMM:   2    -0.353258686741E+03   -0.27916E-02   -0.39030E-02  7671   0.570E-01    0.136E-01
RMM:   3    -0.353258548436E+03    0.13831E-03   -0.43979E-03  7972   0.156E-01    0.994E-02
RMM:   4    -0.353258481377E+03    0.67059E-04   -0.10386E-03  9108   0.494E-02    0.677E-02
RMM:   5    -0.353258469550E+03    0.11827E-04   -0.42169E-04  8394   0.353E-02    0.382E-02
RMM:   6    -0.353258451459E+03    0.18091E-04   -0.17571E-04  7531   0.225E-02    0.204E-02
RMM:   7    -0.353258449239E+03    0.22206E-05   -0.50952E-05  4680   0.140E-02
  27 F= -.35325845E+03 E0= -.35326177E+03  d E =-.705632E-03
       N       E                     dE             d eps       ncg     rms          rms(c)
DAV:   1    -0.353258413825E+03    0.37634E-04   -0.25613E-02  5752   0.447E-01    0.431E-02
RMM:   2    -0.353258467294E+03   -0.53469E-04   -0.80973E-04  7049   0.830E-02    0.185E-02
RMM:   3    -0.353258459909E+03    0.73854E-05   -0.71284E-05  5456   0.250E-02
  28 F= -.35325846E+03 E0= -.35326178E+03  d E =-.716302E-03
       N       E                     dE             d eps       ncg     rms          rms(c)
DAV:   1    -0.353258469503E+03   -0.22093E-05   -0.20077E-01  5712   0.128E+00    0.187E-01
RMM:   2    -0.353258763696E+03   -0.29419E-03   -0.84773E-03  7188   0.251E-01    0.751E-02
RMM:   3    -0.353258629716E+03    0.13398E-03   -0.92223E-04  7807   0.780E-02    0.601E-02
RMM:   4    -0.353258571573E+03    0.58143E-04   -0.28376E-04  8020   0.285E-02    0.346E-02
RMM:   5    -0.353258570143E+03    0.14301E-05   -0.10117E-04  6634   0.187E-02    0.238E-02
RMM:   6    -0.353258575624E+03   -0.54810E-05   -0.39920E-05  4198   0.116E-02
  29 F= -.35325858E+03 E0= -.35326191E+03  d E =-.115715E-03
       N       E                     dE             d eps       ncg     rms          rms(c)
DAV:   1    -0.353258577827E+03   -0.76839E-05   -0.12815E-03  6160   0.102E-01    0.140E-02
RMM:   2    -0.353258583613E+03   -0.57863E-05   -0.69053E-05  5429   0.212E-02
  30 F= -.35325858E+03 E0= -.35326192E+03  d E =-.123704E-03
       N       E                     dE             d eps       ncg     rms          rms(c)
DAV:   1    -0.353258734993E+03   -0.15717E-03   -0.10792E-01  5728   0.925E-01    0.155E-01
RMM:   2    -0.353258904484E+03   -0.16949E-03   -0.46617E-03  7563   0.183E-01    0.645E-02
RMM:   3    -0.353258830151E+03    0.74332E-04   -0.64043E-04  7999   0.558E-02    0.480E-02
RMM:   4    -0.353258783877E+03    0.46274E-04   -0.18679E-04  7568   0.236E-02    0.261E-02
RMM:   5    -0.353258776309E+03    0.75681E-05   -0.66290E-05  5668   0.148E-02
  31 F= -.35325878E+03 E0= -.35326214E+03  d E =-.192696E-03
       N       E                     dE             d eps       ncg     rms          rms(c)
DAV:   1    -0.353258791366E+03   -0.74886E-05   -0.63640E-03  5688   0.224E-01    0.338E-02
RMM:   2    -0.353258804002E+03   -0.12636E-04   -0.28900E-04  7620   0.438E-02    0.172E-02
RMM:   3    -0.353258795250E+03    0.87518E-05   -0.36571E-05  4395   0.135E-02
  32 F= -.35325880E+03 E0= -.35326217E+03  d E =-.211637E-03
       N       E                     dE             d eps       ncg     rms          rms(c)
DAV:   1    -0.353258811295E+03   -0.72935E-05   -0.25593E-02  5616   0.448E-01    0.719E-02
RMM:   2    -0.353258849901E+03   -0.38605E-04   -0.11258E-03  7666   0.882E-02    0.314E-02
RMM:   3    -0.353258827939E+03    0.21962E-04   -0.15588E-04  6964   0.262E-02    0.236E-02
RMM:   4    -0.353258817057E+03    0.10882E-04   -0.44633E-05  4711   0.141E-02    0.146E-02
RMM:   5    -0.353258814146E+03    0.29111E-05   -0.15978E-05  3269   0.104E-02
  33 F= -.35325881E+03 E0= -.35326220E+03  d E =-.230533E-03
       N       E                     dE             d eps       ncg     rms          rms(c)
DAV:   1    -0.353258851186E+03   -0.34129E-04   -0.22852E-02  5504   0.434E-01    0.425E-02
RMM:   2    -0.353258898752E+03   -0.47566E-04   -0.85695E-04  7768   0.843E-02    0.219E-02
RMM:   3    -0.353258893376E+03    0.53761E-05   -0.91038E-05  5301   0.241E-02
  34 F= -.35325889E+03 E0= -.35326229E+03  d E =-.792304E-04
       N       E                     dE             d eps       ncg     rms          rms(c)
DAV:   1    -0.353258608089E+03    0.29066E-03   -0.20528E-01  5488   0.130E+00    0.123E-01
RMM:   2    -0.353259044976E+03   -0.43689E-03   -0.76408E-03  7745   0.251E-01    0.640E-02
RMM:   3    -0.353259020261E+03    0.24715E-04   -0.94928E-04  7821   0.690E-02    0.441E-02
RMM:   4    -0.353259005136E+03    0.15126E-04   -0.30031E-04  8082   0.271E-02    0.256E-02
RMM:   5    -0.353259003999E+03    0.11369E-05   -0.92600E-05  5258   0.162E-02
  35 F= -.35325900E+03 E0= -.35326244E+03  d E =-.189853E-03
