<?xml version="1.0" encoding="ISO-8859-1"?>
<modeling>
 <generator>
  <i name="program" type="string">vasp </i>
  <i name="version" type="string">5.4.1  </i>
  <i name="subversion" type="string">05Feb16 (build Jan 29 2020 16:04:39) complex                          parallel </i>
  <i name="platform" type="string">IFC91_ompi </i>
  <i name="date" type="string">2020 06 15 </i>
  <i name="time" type="string">06:25:44 </i>
 </generator>
 <incar>
  <i type="string" name="SYSTEM"> automatically generated by mexm</i>
  <i type="int" name="ISTART">     0</i>
  <i type="string" name="PREC">accurate               ! avoid wrap aro</i>
  <i type="string" name="ALGO"> Fast                   ! blocked Davids</i>
  <i type="int" name="ISPIN">     1</i>
  <i type="int" name="ICHARG">     2</i>
  <i type="int" name="NELM">    70</i>
  <i type="int" name="IBRION">     2</i>
  <i name="EDIFF">      0.00001000</i>
  <i name="EDIFFG">     -0.01000000</i>
  <i type="int" name="NSW">   300</i>
  <i type="int" name="ISIF">     3</i>
  <i type="int" name="ISYM">     1</i>
  <i name="ENCUT">    300.00000000</i>
  <i name="POTIM">      0.15000000</i>
  <i type="string" name="LREAL"> Auto                  ! unpublished met</i>
  <i type="int" name="ISMEAR">     1</i>
  <i name="SIGMA">      0.15000000</i>
  <i type="logical" name="LWAVE"> F  </i>
  <i type="logical" name="LCHARG"> F  </i>
  <i type="logical" name="LVTOT"> F  </i>
  <v type="int" name="KPOINT_BSE">    -1     0     0     0</v>
  <i type="int" name="NELM">    70</i>
 </incar>
 <kpoints>
  <generation param="Gamma">
   <v type="int" name="divisions">       3        3        3 </v>
   <v name="usershift">      0.00000000       0.00000000       0.00000000 </v>
   <v name="genvec1">      0.33333333       0.00000000       0.00000000 </v>
   <v name="genvec2">     -0.00000000       0.33333333      -0.00000000 </v>
   <v name="genvec3">      0.00000000      -0.00000000       0.33333333 </v>
   <v name="shift">      0.00000000       0.00000000       0.00000000 </v>
  </generation>
  <varray name="kpointlist" >
   <v>       0.00000000       0.00000000       0.00000000 </v>
   <v>       0.33333333      -0.00000000       0.00000000 </v>
   <v>      -0.00000000       0.33333333      -0.00000000 </v>
   <v>       0.33333333       0.33333333      -0.00000000 </v>
   <v>      -0.33333333       0.33333333       0.00000000 </v>
   <v>       0.00000000       0.00000000       0.33333333 </v>
   <v>       0.33333333       0.00000000       0.33333333 </v>
   <v>      -0.33333333       0.00000000       0.33333333 </v>
   <v>      -0.00000000       0.33333333       0.33333333 </v>
   <v>       0.33333333       0.33333333       0.33333333 </v>
   <v>      -0.33333333       0.33333333       0.33333333 </v>
   <v>       0.00000000      -0.33333333       0.33333333 </v>
   <v>       0.33333333      -0.33333333       0.33333333 </v>
   <v>      -0.33333333      -0.33333333       0.33333333 </v>
  </varray>
  <varray name="weights" >
   <v>       0.03703704 </v>
   <v>       0.07407407 </v>
   <v>       0.07407407 </v>
   <v>       0.07407407 </v>
   <v>       0.07407407 </v>
   <v>       0.07407407 </v>
   <v>       0.07407407 </v>
   <v>       0.07407407 </v>
   <v>       0.07407407 </v>
   <v>       0.07407407 </v>
   <v>       0.07407407 </v>
   <v>       0.07407407 </v>
   <v>       0.07407407 </v>
   <v>       0.07407407 </v>
  </varray>
 </kpoints>
 <parameters>
  <separator name="general" >
   <i type="string" name="SYSTEM">automatically generated by mexm</i>
   <i type="logical" name="LCOMPAT"> F  </i>
  </separator>
  <separator name="electronic" >
   <i type="string" name="PREC">accura</i>
   <i name="ENMAX">    300.00000000</i>
   <i name="ENAUG">    461.25700000</i>
   <i name="EDIFF">      0.00001000</i>
   <i type="int" name="IALGO">    68</i>
   <i type="int" name="IWAVPR">    11</i>
   <i type="int" name="NBANDS">   196</i>
   <i name="NELECT">    328.00000000</i>
   <i type="int" name="TURBO">     0</i>
   <i type="int" name="IRESTART">     0</i>
   <i type="int" name="NREBOOT">     0</i>
   <i type="int" name="NMIN">     0</i>
   <i name="EREF">      0.00000000</i>
   <separator name="electronic smearing" >
    <i type="int" name="ISMEAR">     1</i>
    <i name="SIGMA">      0.15000000</i>
    <i name="KSPACING">      0.50000000</i>
    <i type="logical" name="KGAMMA"> T  </i>
   </separator>
   <separator name="electronic projectors" >
    <i type="logical" name="LREAL"> T  </i>
    <v name="ROPT">     -0.00025000     -0.00025000     -0.00025000     -0.00025000</v>
    <i type="int" name="LMAXPAW">  -100</i>
    <i type="int" name="LMAXMIX">     2</i>
    <i type="logical" name="NLSPLINE"> F  </i>
   </separator>
   <separator name="electronic startup" >
    <i type="int" name="ISTART">     0</i>
    <i type="int" name="ICHARG">     2</i>
    <i type="int" name="INIWAV">     1</i>
   </separator>
   <separator name="electronic spin" >
    <i type="int" name="ISPIN">     1</i>
    <i type="logical" name="LNONCOLLINEAR"> F  </i>
    <v name="MAGMOM">      1.00000000      1.00000000      1.00000000      1.00000000      1.00000000      1.00000000      1.00000000      1.00000000      1.00000000      1.00000000      1.00000000      1.00000000      1.00000000      1.00000000      1.00000000      1.00000000      1.00000000      1.00000000      1.00000000      1.00000000
      1.00000000      1.00000000      1.00000000      1.00000000      1.00000000      1.00000000      1.00000000      1.00000000      1.00000000      1.00000000      1.00000000      1.00000000      1.00000000      1.00000000      1.00000000      1.00000000</v>
    <i name="NUPDOWN">     -1.00000000</i>
    <i type="logical" name="LSORBIT"> F  </i>
    <v name="SAXIS">      0.00000000      0.00000000      1.00000000</v>
    <i type="logical" name="LSPIRAL"> F  </i>
    <v name="QSPIRAL">      0.00000000      0.00000000      0.00000000</v>
    <i type="logical" name="LZEROZ"> F  </i>
   </separator>
   <separator name="electronic exchange-correlation" >
    <i type="logical" name="LASPH"> F  </i>
    <i type="logical" name="LMETAGGA"> F  </i>
   </separator>
   <separator name="electronic convergence" >
    <i type="int" name="NELM">    70</i>
    <i type="int" name="NELMDL">    -5</i>
    <i type="int" name="NELMIN">     2</i>
    <i name="ENINI">    300.00000000</i>
    <separator name="electronic convergence detail" >
     <i type="logical" name="LDIAG"> T  </i>
     <i type="logical" name="LSUBROT"> F  </i>
     <i name="WEIMIN">      0.00100000</i>
     <i name="EBREAK">      0.00000001</i>
     <i name="DEPER">      0.30000000</i>
     <i type="int" name="NRMM">     4</i>
     <i name="TIME">      0.40000000</i>
    </separator>
   </separator>
   <separator name="electronic mixer" >
    <i name="AMIX">      0.40000000</i>
    <i name="BMIX">      1.00000000</i>
    <i name="AMIN">      0.10000000</i>
    <i name="AMIX_MAG">      1.60000000</i>
    <i name="BMIX_MAG">      1.00000000</i>
    <separator name="electronic mixer details" >
     <i type="int" name="IMIX">     4</i>
     <i type="logical" name="MIXFIRST"> F  </i>
     <i type="int" name="MAXMIX">   -45</i>
     <i name="WC">    100.00000000</i>
     <i type="int" name="INIMIX">     1</i>
     <i type="int" name="MIXPRE">     1</i>
     <i type="int" name="MREMOVE">     5</i>
    </separator>
   </separator>
   <separator name="electronic dipolcorrection" >
    <i type="logical" name="LDIPOL"> F  </i>
    <i type="logical" name="LMONO"> F  </i>
    <i type="int" name="IDIPOL">     0</i>
    <i name="EPSILON">      1.00000000</i>
    <v name="DIPOL">   -100.00000000   -100.00000000   -100.00000000</v>
    <i name="EFIELD">      0.00000000</i>
   </separator>
  </separator>
  <separator name="grids" >
   <i type="int" name="NGX">    40</i>
   <i type="int" name="NGY">    60</i>
   <i type="int" name="NGZ">    60</i>
   <i type="int" name="NGXF">    80</i>
   <i type="int" name="NGYF">   120</i>
   <i type="int" name="NGZF">   120</i>
   <i type="logical" name="ADDGRID"> F  </i>
  </separator>
  <separator name="ionic" >
   <i type="int" name="NSW">   300</i>
   <i type="int" name="IBRION">     2</i>
   <i type="int" name="ISIF">     3</i>
   <i name="PSTRESS">      0.00000000</i>
   <i name="EDIFFG">     -0.01000000</i>
   <i type="int" name="NFREE">     1</i>
   <i name="POTIM">      0.15000000</i>
   <i name="SMASS">     -3.00000000</i>
   <i name="SCALEE">      1.00000000</i>
  </separator>
  <separator name="ionic md" >
   <i name="TEBEG">      0.00010000</i>
   <i name="TEEND">      0.00010000</i>
   <i type="int" name="NBLOCK">     1</i>
   <i type="int" name="KBLOCK">   300</i>
   <i type="int" name="NPACO">   256</i>
   <i name="APACO">     16.00000000</i>
  </separator>
  <separator name="symmetry" >
   <i type="int" name="ISYM">     1</i>
   <i name="SYMPREC">      0.00001000</i>
  </separator>
  <separator name="dos" >
   <i type="logical" name="LORBIT"> F  </i>
   <v name="RWIGS">     -1.00000000     -1.00000000     -1.00000000     -1.00000000</v>
   <i type="int" name="NEDOS">   301</i>
   <i name="EMIN">     10.00000000</i>
   <i name="EMAX">    -10.00000000</i>
   <i name="EFERMI">      0.00000000</i>
  </separator>
  <separator name="writing" >
   <i type="int" name="NWRITE">     2</i>
   <i type="logical" name="LWAVE"> F  </i>
   <i type="logical" name="LCHARG"> F  </i>
   <i type="logical" name="LPARD"> F  </i>
   <i type="logical" name="LVTOT"> F  </i>
   <i type="logical" name="LVHAR"> F  </i>
   <i type="logical" name="LELF"> F  </i>
   <i type="logical" name="LOPTICS"> F  </i>
   <v name="STM">      0.00000000      0.00000000      0.00000000      0.00000000      0.00000000      0.00000000      0.00000000</v>
  </separator>
  <separator name="performance" >
   <i type="int" name="NPAR">     4</i>
   <i type="int" name="NSIM">     4</i>
   <i type="int" name="NBLK">    -1</i>
   <i type="logical" name="LPLANE"> T  </i>
   <i type="logical" name="LSCALAPACK"> T  </i>
   <i type="logical" name="LSCAAWARE"> F  </i>
   <i type="logical" name="LSCALU"> F  </i>
   <i type="logical" name="LASYNC"> F  </i>
   <i type="logical" name="LORBITALREAL"> F  </i>
  </separator>
  <separator name="miscellaneous" >
   <i type="int" name="IDIOT">     3</i>
   <i type="logical" name="LMUSIC"> F  </i>
   <v name="POMASS">    180.94800000    178.49000000     91.22400000     92.91000000</v>
   <v name="DARWINR">      0.00000000      0.00000000      0.00000000      0.00000000</v>
   <v name="DARWINV">      1.00000000      1.00000000      1.00000000      1.00000000</v>
   <i type="logical" name="LCORR"> T  </i>
  </separator>
  <i type="logical" name="GGA_COMPAT"> T  </i>
  <i type="logical" name="LBERRY"> F  </i>
  <i type="int" name="ICORELEVEL">     0</i>
  <i type="logical" name="LDAU"> F  </i>
  <i type="int" name="I_CONSTRAINED_M">     0</i>
  <separator name="electronic exchange-correlation" >
   <i type="string" name="GGA">--</i>
   <i type="int" name="VOSKOWN">     0</i>
   <i type="logical" name="LHFCALC"> F  </i>
   <i type="string" name="PRECFOCK"></i>
   <i type="logical" name="LSYMGRAD"> F  </i>
   <i type="logical" name="LHFONE"> F  </i>
   <i type="logical" name="LRHFCALC"> F  </i>
   <i type="logical" name="LTHOMAS"> F  </i>
   <i type="logical" name="LMODELHF"> F  </i>
   <i name="ENCUT4O">     -1.00000000</i>
   <i type="int" name="EXXOEP">     0</i>
   <i type="int" name="FOURORBIT">     0</i>
   <i name="AEXX">      0.00000000</i>
   <i name="HFALPHA">      0.00000000</i>
   <i name="MCALPHA">      0.00000000</i>
   <i name="ALDAX">      1.00000000</i>
   <i name="AGGAX">      1.00000000</i>
   <i name="ALDAC">      1.00000000</i>
   <i name="AGGAC">      1.00000000</i>
   <i type="int" name="NKREDX">     1</i>
   <i type="int" name="NKREDY">     1</i>
   <i type="int" name="NKREDZ">     1</i>
   <i type="logical" name="SHIFTRED"> F  </i>
   <i type="logical" name="ODDONLY"> F  </i>
   <i type="logical" name="EVENONLY"> F  </i>
   <i type="int" name="LMAXFOCK">     0</i>
   <i type="int" name="NMAXFOCKAE">     0</i>
   <i type="logical" name="LFOCKAEDFT"> F  </i>
   <i name="HFSCREEN">      0.00000000</i>
   <i name="HFSCREENC">      0.00000000</i>
   <i type="int" name="NBANDSGWLOW">     0</i>
  </separator>
  <separator name="vdW DFT" >
   <i type="logical" name="LUSE_VDW"> F  </i>
   <i name="Zab_VDW">     -0.84910000</i>
   <i name="PARAM1">      0.12340000</i>
   <i name="PARAM2">      1.00000000</i>
   <i name="PARAM3">      0.00000000</i>
  </separator>
  <separator name="model GW" >
   <i type="int" name="MODEL_GW">     0</i>
   <i name="MODEL_EPS0">     12.19755831</i>
   <i name="MODEL_ALPHA">      1.00000000</i>
  </separator>
  <separator name="linear response parameters" >
   <i type="logical" name="LEPSILON"> F  </i>
   <i type="logical" name="LRPA"> F  </i>
   <i type="logical" name="LNABLA"> F  </i>
   <i type="logical" name="LVEL"> F  </i>
   <i type="int" name="KINTER">     0</i>
   <i name="CSHIFT">      0.10000000</i>
   <i name="OMEGAMAX">     -1.00000000</i>
   <i name="DEG_THRESHOLD">      0.00200000</i>
  </separator>
  <separator name="orbital magnetization" >
   <i type="logical" name="NUCIND"> F  </i>
   <v name="MAGPOS">      0.00000000      0.00000000      0.00000000</v>
   <i type="logical" name="LNICSALL"> T  </i>
   <i type="logical" name="ORBITALMAG"> F  </i>
   <i type="logical" name="LMAGBLOCH"> F  </i>
   <i type="logical" name="LCHIMAG"> F  </i>
   <i type="logical" name="LGAUGE"> T  </i>
   <i type="int" name="MAGATOM">     0</i>
   <v name="MAGDIPOL">      0.00000000      0.00000000      0.00000000</v>
   <v name="AVECCONST">      0.00000000      0.00000000      0.00000000</v>
  </separator>
  <separator name="response functions" >
   <i type="logical" name="LADDER"> F  </i>
   <i type="logical" name="LFXC"> F  </i>
   <i type="logical" name="LHARTREE"> T  </i>
   <i type="int" name="IBSE">     0</i>
   <v type="int" name="KPOINT">    -1     0     0     0</v>
   <i type="logical" name="LTCTE"> F  </i>
   <i type="logical" name="LTETE"> F  </i>
   <i type="logical" name="LTRIPLET"> F  </i>
   <i type="logical" name="LFXCEPS"> F  </i>
   <i type="logical" name="LFXHEG"> F  </i>
   <i type="int" name="NATURALO">     0</i>
   <i type="logical" name="L2ORDER"> F  </i>
   <i type="logical" name="LUSEW"> F  </i>
   <i name="ENCUTGW">     -2.00000000</i>
   <i name="ENCUTGWSOFT">     -2.00000000</i>
   <i name="ENCUTLF">     -1.00000000</i>
   <i type="int" name="LMAXMP2">    -1</i>
   <i name="SCISSOR">      0.00000000</i>
   <i type="int" name="NOMEGA">     0</i>
   <i type="int" name="NOMEGAR">     0</i>
   <i type="int" name="NBANDSGW">    -1</i>
   <i type="int" name="NBANDSO">    -1</i>
   <i type="int" name="NBANDSV">    -1</i>
   <i type="int" name="NELM">    70</i>
   <i type="int" name="NELMHF">     1</i>
   <i type="int" name="DIM">     3</i>
   <i type="int" name="ANTIRES">     0</i>
   <i name="OMEGAMAX">    -30.00000000</i>
   <i name="OMEGAMIN">    -30.00000000</i>
   <i name="OMEGATL">   -200.00000000</i>
   <i type="int" name="OMEGAGRID">     0</i>
   <i name="CSHIFT">     -0.10000000</i>
   <i type="logical" name="SELFENERGY"> F  </i>
   <i type="logical" name="LSPECTRAL"> F  </i>
   <i type="logical" name="LSPECTRALGW"> F  </i>
   <i type="logical" name="LSINGLES"> F  </i>
   <i type="logical" name="LFERMIGW"> F  </i>
   <i type="logical" name="ODDONLYGW"> F  </i>
   <i type="logical" name="EVENONLYGW"> F  </i>
   <i type="int" name="NKREDLFX">     1</i>
   <i type="int" name="NKREDLFY">     1</i>
   <i type="int" name="NKREDLFZ">     1</i>
   <i type="int" name="MAXMEM">  1800</i>
   <i type="int" name="TELESCOPE">     0</i>
   <i type="int" name="TAUPAR">     1</i>
   <i type="int" name="OMEGAPAR">    -1</i>
   <i name="LAMBDA">      1.00000000</i>
  </separator>
  <separator name="External order field" >
   <i name="OFIELD_KAPPA">      0.00000000</i>
   <v name="OFIELD_K">      0.00000000      0.00000000      0.00000000</v>
   <i name="OFIELD_Q6_NEAR">      0.00000000</i>
   <i name="OFIELD_Q6_FAR">      0.00000000</i>
   <i name="OFIELD_A">      0.00000000</i>
  </separator>
 </parameters>
 <atominfo>
  <atoms>      36 </atoms>
  <types>       4 </types>
  <array name="atoms" >
   <dimension dim="1">ion</dimension>
   <field type="string">element</field>
   <field type="int">atomtype</field>
   <set>
    <rc><c>Ta</c><c>   1</c></rc>
    <rc><c>Ta</c><c>   1</c></rc>
    <rc><c>Ta</c><c>   1</c></rc>
    <rc><c>Ta</c><c>   1</c></rc>
    <rc><c>Ta</c><c>   1</c></rc>
    <rc><c>Ta</c><c>   1</c></rc>
    <rc><c>Hf</c><c>   2</c></rc>
    <rc><c>Hf</c><c>   2</c></rc>
    <rc><c>Hf</c><c>   2</c></rc>
    <rc><c>Hf</c><c>   2</c></rc>
    <rc><c>Hf</c><c>   2</c></rc>
    <rc><c>Hf</c><c>   2</c></rc>
    <rc><c>Hf</c><c>   2</c></rc>
    <rc><c>Hf</c><c>   2</c></rc>
    <rc><c>Hf</c><c>   2</c></rc>
    <rc><c>Zr</c><c>   3</c></rc>
    <rc><c>Zr</c><c>   3</c></rc>
    <rc><c>Zr</c><c>   3</c></rc>
    <rc><c>Zr</c><c>   3</c></rc>
    <rc><c>Zr</c><c>   3</c></rc>
    <rc><c>Zr</c><c>   3</c></rc>
    <rc><c>Zr</c><c>   3</c></rc>
    <rc><c>Zr</c><c>   3</c></rc>
    <rc><c>Zr</c><c>   3</c></rc>
    <rc><c>Zr</c><c>   3</c></rc>
    <rc><c>Zr</c><c>   3</c></rc>
    <rc><c>Nb</c><c>   4</c></rc>
    <rc><c>Nb</c><c>   4</c></rc>
    <rc><c>Nb</c><c>   4</c></rc>
    <rc><c>Nb</c><c>   4</c></rc>
    <rc><c>Nb</c><c>   4</c></rc>
    <rc><c>Nb</c><c>   4</c></rc>
    <rc><c>Nb</c><c>   4</c></rc>
    <rc><c>Nb</c><c>   4</c></rc>
    <rc><c>Nb</c><c>   4</c></rc>
    <rc><c>Nb</c><c>   4</c></rc>
   </set>
  </array>
  <array name="atomtypes" >
   <dimension dim="1">type</dimension>
   <field type="int">atomspertype</field>
   <field type="string">element</field>
   <field>mass</field>
   <field>valence</field>
   <field type="string">pseudopotential</field>
   <set>
    <rc><c>   6</c><c>Ta</c><c>    180.94800000</c><c>      5.00000000</c><c>  PAW_PBE Ta 17Jan2003                  </c></rc>
    <rc><c>   9</c><c>Hf</c><c>    178.49000000</c><c>      4.00000000</c><c>  PAW_PBE Hf 20Jan2003                  </c></rc>
    <rc><c>  11</c><c>Zr</c><c>     91.22400000</c><c>     12.00000000</c><c>  PAW_PBE Zr_sv 04Jan2005               </c></rc>
    <rc><c>  10</c><c>Nb</c><c>     92.91000000</c><c>     13.00000000</c><c>  PAW_PBE Nb_sv 25May2007               </c></rc>
   </set>
  </array>
 </atominfo>
 <structure name="initialpos" >
  <crystal>
   <varray name="basis" >
    <v>       6.98393330       0.02092596      -0.00252408 </v>
    <v>       0.03068309      10.23163737       0.00912861 </v>
    <v>      -0.00374622       0.00842027      10.24196317 </v>
   </varray>
   <i name="volume">    731.85349856 </i>
   <varray name="rec_basis" >
    <v>       0.14318709      -0.00042944       0.00005273 </v>
    <v>      -0.00029288       0.09773702      -0.00008046 </v>
    <v>       0.00003555      -0.00008722       0.09763762 </v>
   </varray>
  </crystal>
  <varray name="positions" >
   <v>       0.72968100       0.49649800       0.17619000 </v>
   <v>       0.53261500       0.66776500       0.01045600 </v>
   <v>       0.04244700       0.00515500       0.66319200 </v>
   <v>       0.51718100       0.66956900       0.33824800 </v>
   <v>       0.76141800       0.49799800       0.48930300 </v>
   <v>       0.98140400       0.66831800       0.32584400 </v>
   <v>       0.23386700       0.16689500       0.48961400 </v>
   <v>       0.26456400       0.50548100       0.16865700 </v>
   <v>       0.00614200       0.33642800       0.00250100 </v>
   <v>       0.96899400       0.66179700       0.01117800 </v>
   <v>       0.25809900       0.82606900       0.16892700 </v>
   <v>       0.46822000       0.00286000       0.66156700 </v>
   <v>       0.76430900       0.83903500       0.50354800 </v>
   <v>       0.02532000       0.65344700       0.66282300 </v>
   <v>       0.25129300       0.82159600       0.85075300 </v>
   <v>       0.25802800       0.16889800       0.17946600 </v>
   <v>       0.98629700       0.00565100       0.00845100 </v>
   <v>       0.76371300       0.16382800       0.50215800 </v>
   <v>       0.76088500       0.17142300       0.82102600 </v>
   <v>       0.51467700       0.99864100       0.99611600 </v>
   <v>       0.72692500       0.17765600       0.17711500 </v>
   <v>       0.74111900       0.49027200       0.82821300 </v>
   <v>       0.48845500       0.66355600       0.65292000 </v>
   <v>       0.48025400       0.33044600       0.66086600 </v>
   <v>       0.76542200       0.83850600       0.81369200 </v>
   <v>       0.23825300       0.49513300       0.47638500 </v>
   <v>       0.00462200       0.98992100       0.33199400 </v>
   <v>       0.49126900       0.98976200       0.34594900 </v>
   <v>       0.74030100       0.83254600       0.18549000 </v>
   <v>       0.50590500       0.33947800       0.34694400 </v>
   <v>       0.26429900       0.50265700       0.84852500 </v>
   <v>       0.98498700       0.34225700       0.32484800 </v>
   <v>       0.01882500       0.33786700       0.67082200 </v>
   <v>       0.24185600       0.83549000       0.48406100 </v>
   <v>       0.47979700       0.33475100       0.98907300 </v>
   <v>       0.23855700       0.17235400       0.83307900 </v>
  </varray>
 </structure>
 <calculation>
  <scstep>
   <time name="dav">    1.25    1.26</time>
   <time name="total">    1.34    1.92</time>
   <energy>
    <i name="alphaZ">   1690.88800064 </i>
    <i name="ewald"> -23514.00674013 </i>
    <i name="hartreedc">  -8256.45398942 </i>
    <i name="XCdc">    240.58660763 </i>
    <i name="pawpsdc">  25630.28267656 </i>
    <i name="pawaedc"> -24259.43879658 </i>
    <i name="eentropy">     -0.00086994 </i>
    <i name="bandstr">   -329.97939598 </i>
    <i name="atom">  31144.04451113 </i>
    <i name="e_fr_energy">   2345.92200393 </i>
    <i name="e_wo_entrp">   2345.92287386 </i>
    <i name="e_0_energy">   2345.92229390 </i>
   </energy>
  </scstep>
  <scstep>
   <time name="dav">    1.07    1.08</time>
   <time name="total">    1.07    1.28</time>
   <energy>
    <i name="e_fr_energy">    -29.01198728 </i>
    <i name="e_wo_entrp">    -29.02285726 </i>
    <i name="e_0_energy">    -29.01561060 </i>
   </energy>
  </scstep>
  <scstep>
   <time name="dav">    1.52    1.53</time>
   <time name="total">    1.52    1.60</time>
   <energy>
    <i name="e_fr_energy">   -326.93354795 </i>
    <i name="e_wo_entrp">   -326.91969205 </i>
    <i name="e_0_energy">   -326.92892931 </i>
   </energy>
  </scstep>
  <scstep>
   <time name="dav">    1.71    1.72</time>
   <time name="total">    1.71    1.77</time>
   <energy>
    <i name="e_fr_energy">   -363.47617111 </i>
    <i name="e_wo_entrp">   -363.47386175 </i>
    <i name="e_0_energy">   -363.47540132 </i>
   </energy>
  </scstep>
  <scstep>
   <time name="dav">    1.46    1.47</time>
   <time name="total">    1.50    1.55</time>
   <energy>
    <i name="e_fr_energy">   -367.29471037 </i>
    <i name="e_wo_entrp">   -367.29635640 </i>
    <i name="e_0_energy">   -367.29525905 </i>
   </energy>
  </scstep>
  <scstep>
   <time name="diag">    0.10    0.10</time>
   <time name="diis">    0.78    0.79</time>
   <time name="orth">    0.01    0.01</time>
   <time name="total">    0.96    1.03</time>
   <energy>
    <i name="e_fr_energy">   -357.21307073 </i>
    <i name="e_wo_entrp">   -357.22257954 </i>
    <i name="e_0_energy">   -357.21624033 </i>
   </energy>
  </scstep>
  <scstep>
   <time name="diag">    0.09    0.10</time>
   <time name="diis">    0.82    0.82</time>
   <time name="orth">    0.01    0.01</time>
   <time name="total">    1.01    1.10</time>
   <energy>
    <i name="e_fr_energy">   -359.41707119 </i>
    <i name="e_wo_entrp">   -359.41379984 </i>
    <i name="e_0_energy">   -359.41598074 </i>
   </energy>
  </scstep>
  <scstep>
   <time name="diag">    0.09    0.09</time>
   <time name="diis">    0.84    0.87</time>
   <time name="orth">    0.02    0.02</time>
   <time name="total">    1.07    1.17</time>
   <energy>
    <i name="e_fr_energy">   -353.31073921 </i>
    <i name="e_wo_entrp">   -353.31928990 </i>
    <i name="e_0_energy">   -353.31358944 </i>
   </energy>
  </scstep>
  <scstep>
   <time name="diag">    0.09    0.10</time>
   <time name="diis">    0.85    0.86</time>
   <time name="orth">    0.02    0.02</time>
   <time name="total">    1.03    1.09</time>
   <energy>
    <i name="e_fr_energy">   -353.14248199 </i>
    <i name="e_wo_entrp">   -353.15654175 </i>
    <i name="e_0_energy">   -353.14716858 </i>
   </energy>
  </scstep>
  <scstep>
   <time name="diag">    0.09    0.09</time>
   <time name="diis">    0.82    0.82</time>
   <time name="orth">    0.01    0.01</time>
   <time name="total">    0.98    1.04</time>
   <energy>
    <i name="e_fr_energy">   -353.08986506 </i>
    <i name="e_wo_entrp">   -353.09983158 </i>
    <i name="e_0_energy">   -353.09318724 </i>
   </energy>
  </scstep>
  <scstep>
   <time name="diag">    0.09    0.09</time>
   <time name="diis">    0.81    0.82</time>
   <time name="orth">    0.01    0.01</time>
   <time name="total">    0.99    1.05</time>
   <energy>
    <i name="e_fr_energy">   -353.06800209 </i>
    <i name="e_wo_entrp">   -353.07869488 </i>
    <i name="e_0_energy">   -353.07156635 </i>
   </energy>
  </scstep>
  <scstep>
   <time name="diag">    0.09    0.09</time>
   <time name="diis">    0.83    0.83</time>
   <time name="orth">    0.01    0.02</time>
   <time name="total">    1.00    1.05</time>
   <energy>
    <i name="e_fr_energy">   -353.06288177 </i>
    <i name="e_wo_entrp">   -353.07347489 </i>
    <i name="e_0_energy">   -353.06641281 </i>
   </energy>
  </scstep>
  <scstep>
   <time name="diag">    0.09    0.09</time>
   <time name="diis">    0.90    0.91</time>
   <time name="orth">    0.01    0.01</time>
   <time name="total">    1.08    1.13</time>
   <energy>
    <i name="e_fr_energy">   -353.06137626 </i>
    <i name="e_wo_entrp">   -353.07179829 </i>
    <i name="e_0_energy">   -353.06485027 </i>
   </energy>
  </scstep>
  <scstep>
   <time name="diag">    0.09    0.09</time>
   <time name="diis">    0.86    0.87</time>
   <time name="orth">    0.02    0.02</time>
   <time name="total">    1.04    1.10</time>
   <energy>
    <i name="e_fr_energy">   -353.06172398 </i>
    <i name="e_wo_entrp">   -353.07218582 </i>
    <i name="e_0_energy">   -353.06521126 </i>
   </energy>
  </scstep>
  <scstep>
   <time name="diag">    0.15    0.15</time>
   <time name="diis">    0.86    0.87</time>
   <time name="orth">    0.02    0.02</time>
   <time name="total">    1.10    1.14</time>
   <energy>
    <i name="e_fr_energy">   -353.06189764 </i>
    <i name="e_wo_entrp">   -353.07231562 </i>
    <i name="e_0_energy">   -353.06537030 </i>
   </energy>
  </scstep>
  <scstep>
   <time name="diag">    0.09    0.09</time>
   <time name="diis">    0.76    0.76</time>
   <time name="orth">    0.01    0.01</time>
   <time name="total">    0.93    0.98</time>
   <energy>
    <i name="e_fr_energy">   -353.06195031 </i>
    <i name="e_wo_entrp">   -353.07245932 </i>
    <i name="e_0_energy">   -353.06545331 </i>
   </energy>
  </scstep>
  <scstep>
   <time name="diag">    0.09    0.09</time>
   <time name="diis">    0.64    0.66</time>
   <time name="orth">    0.02    0.02</time>
   <time name="total">    0.84    0.91</time>
   <energy>
    <i name="e_fr_energy">   -353.06198114 </i>
    <i name="e_wo_entrp">   -353.07246367 </i>
    <i name="e_0_energy">   -353.06547531 </i>
   </energy>
  </scstep>
  <scstep>
   <time name="diag">    0.12    0.12</time>
   <time name="diis">    0.66    0.67</time>
   <time name="orth">    0.02    0.02</time>
   <time name="total">    0.97    1.05</time>
   <energy>
    <i name="e_fr_energy">   -353.06199843 </i>
    <i name="e_wo_entrp">   -353.07247575 </i>
    <i name="e_0_energy">   -353.06549087 </i>
   </energy>
  </scstep>
  <scstep>
   <time name="diag">    0.10    0.10</time>
   <time name="diis">    0.56    0.57</time>
   <time name="orth">    0.01    0.01</time>
   <time name="total">    0.75    0.80</time>
   <energy>
    <i name="e_fr_energy">   -353.06200718 </i>
    <i name="e_wo_entrp">   -353.07248329 </i>
    <i name="e_0_energy">   -353.06549921 </i>
   </energy>
  </scstep>
  <scstep>
   <time name="diag">    0.09    0.09</time>
   <time name="diis">    0.54    0.54</time>
   <time name="orth">    0.01    0.01</time>
   <time name="total">    0.67    0.73</time>
   <energy>
    <i name="alphaZ">   1690.88800064 </i>
    <i name="ewald"> -23514.00674013 </i>
    <i name="hartreedc">  -7973.81165516 </i>
    <i name="XCdc">    234.53230258 </i>
    <i name="pawpsdc">  38668.23486935 </i>
    <i name="pawaedc"> -37266.31673894 </i>
    <i name="eentropy">      0.01047381 </i>
    <i name="bandstr">  -3336.63703541 </i>
    <i name="atom">  31144.04451113 </i>
    <i name="e_fr_energy">   -353.06201213 </i>
    <i name="e_wo_entrp">   -353.07248595 </i>
    <i name="e_0_energy">   -353.06550340 </i>
   </energy>
  </scstep>
  <structure>
   <crystal>
    <varray name="basis" >
     <v>       6.98393330       0.02092596      -0.00252408 </v>
     <v>       0.03068309      10.23163737       0.00912861 </v>
     <v>      -0.00374622       0.00842027      10.24196317 </v>
    </varray>
    <i name="volume">    731.85349856 </i>
    <varray name="rec_basis" >
     <v>       0.14318709      -0.00042944       0.00005273 </v>
     <v>      -0.00029288       0.09773702      -0.00008046 </v>
     <v>       0.00003555      -0.00008722       0.09763762 </v>
    </varray>
   </crystal>
   <varray name="positions" >
    <v>       0.72968100       0.49649800       0.17619000 </v>
    <v>       0.53261500       0.66776500       0.01045600 </v>
    <v>       0.04244700       0.00515500       0.66319200 </v>
    <v>       0.51718100       0.66956900       0.33824800 </v>
    <v>       0.76141800       0.49799800       0.48930300 </v>
    <v>       0.98140400       0.66831800       0.32584400 </v>
    <v>       0.23386700       0.16689500       0.48961400 </v>
    <v>       0.26456400       0.50548100       0.16865700 </v>
    <v>       0.00614200       0.33642800       0.00250100 </v>
    <v>       0.96899400       0.66179700       0.01117800 </v>
    <v>       0.25809900       0.82606900       0.16892700 </v>
    <v>       0.46822000       0.00286000       0.66156700 </v>
    <v>       0.76430900       0.83903500       0.50354800 </v>
    <v>       0.02532000       0.65344700       0.66282300 </v>
    <v>       0.25129300       0.82159600       0.85075300 </v>
    <v>       0.25802800       0.16889800       0.17946600 </v>
    <v>       0.98629700       0.00565100       0.00845100 </v>
    <v>       0.76371300       0.16382800       0.50215800 </v>
    <v>       0.76088500       0.17142300       0.82102600 </v>
    <v>       0.51467700       0.99864100       0.99611600 </v>
    <v>       0.72692500       0.17765600       0.17711500 </v>
    <v>       0.74111900       0.49027200       0.82821300 </v>
    <v>       0.48845500       0.66355600       0.65292000 </v>
    <v>       0.48025400       0.33044600       0.66086600 </v>
    <v>       0.76542200       0.83850600       0.81369200 </v>
    <v>       0.23825300       0.49513300       0.47638500 </v>
    <v>       0.00462200       0.98992100       0.33199400 </v>
    <v>       0.49126900       0.98976200       0.34594900 </v>
    <v>       0.74030100       0.83254600       0.18549000 </v>
    <v>       0.50590500       0.33947800       0.34694400 </v>
    <v>       0.26429900       0.50265700       0.84852500 </v>
    <v>       0.98498700       0.34225700       0.32484800 </v>
    <v>       0.01882500       0.33786700       0.67082200 </v>
    <v>       0.24185600       0.83549000       0.48406100 </v>
    <v>       0.47979700       0.33475100       0.98907300 </v>
    <v>       0.23855700       0.17235400       0.83307900 </v>
   </varray>
  </structure>
  <varray name="forces" >
   <v>       0.00468282      -0.04102313      -0.00864161 </v>
   <v>      -0.00528734       0.00852188      -0.01629291 </v>
   <v>      -0.17703356      -0.49754987       0.52732097 </v>
   <v>       0.00715708      -0.02085768       0.00355370 </v>
   <v>       0.01638488       0.02843592       0.00388183 </v>
   <v>      -0.01138042      -0.02250553       0.01950392 </v>
   <v>      -0.07655693       0.28123717      -0.38782285 </v>
   <v>       0.00278392       0.04387242      -0.00882431 </v>
   <v>      -0.01408906       0.00092784       0.00949943 </v>
   <v>      -0.02448551      -0.01998751      -0.00718989 </v>
   <v>       0.00441411      -0.02567488       0.00033202 </v>
   <v>       0.17445393      -0.28426716       0.28188961 </v>
   <v>       0.02258882      -0.00311952      -0.00420313 </v>
   <v>      -0.03190828      -0.00273439       0.00081581 </v>
   <v>      -0.03391679       0.02197619      -0.02685325 </v>
   <v>      -0.05535676      -0.00053102       0.03607443 </v>
   <v>      -0.00645007       0.00089654       0.01386332 </v>
   <v>       0.02984415       0.01177645      -0.07137035 </v>
   <v>       0.02571236      -0.00668343       0.00835020 </v>
   <v>       0.02598231      -0.00670800       0.00362012 </v>
   <v>       0.02374840      -0.00756183       0.03774746 </v>
   <v>       0.00942556      -0.01379048      -0.01286370 </v>
   <v>       0.02150717      -0.02165099       0.01459752 </v>
   <v>       0.15564118       0.24877550       0.21087848 </v>
   <v>       0.02257355       0.03158519      -0.02256207 </v>
   <v>       0.01541951      -0.05712765       0.05745627 </v>
   <v>      -0.24286404      -0.31981639      -0.32334209 </v>
   <v>       0.24342022      -0.28042939      -0.16613981 </v>
   <v>      -0.01405851       0.05737631       0.00310580 </v>
   <v>       0.30185621       0.26493378      -0.10203445 </v>
   <v>      -0.00491278       0.00926997       0.00021428 </v>
   <v>      -0.28519893       0.20758346      -0.31212063 </v>
   <v>      -0.10552642       0.32872420       0.33176996 </v>
   <v>      -0.01051936       0.08604085      -0.00821932 </v>
   <v>       0.04048937       0.00281631      -0.01633928 </v>
   <v>      -0.04854081      -0.00273113      -0.06965549 </v>
  </varray>
  <varray name="stress" >
   <v>       7.24781307       0.86517068       0.33135026 </v>
   <v>       0.86517062       7.41216039       0.19942420 </v>
   <v>       0.33135029       0.19942419       7.55164630 </v>
  </varray>
  <energy>
   <i name="e_fr_energy">   -353.06201213 </i>
   <i name="e_wo_entrp">   -353.06550340 </i>
   <i name="e_0_energy">      0.01047381 </i>
  </energy>
  <time name="totalsc">   23.24   25.34</time>
 </calculation>
 <calculation>
  <scstep>
   <time name="dav">    1.32    1.33</time>
   <time name="total">    1.40    1.71</time>
   <energy>
    <i name="alphaZ">   1684.00979112 </i>
    <i name="ewald"> -23485.78564888 </i>
    <i name="hartreedc">  -7959.30740991 </i>
    <i name="XCdc">    233.06829465 </i>
    <i name="pawpsdc">  38668.31508140 </i>
    <i name="pawaedc"> -37266.39344293 </i>
    <i name="eentropy">      0.01110664 </i>
    <i name="bandstr">  -3371.09956888 </i>
    <i name="atom">  31144.04451113 </i>
    <i name="e_fr_energy">   -353.13728566 </i>
    <i name="e_wo_entrp">   -353.14839230 </i>
    <i name="e_0_energy">   -353.14098787 </i>
   </energy>
  </scstep>
  <scstep>
   <time name="diag">    0.09    0.09</time>
   <time name="diis">    0.76    0.76</time>
   <time name="orth">    0.02    0.02</time>
   <time name="total">    0.93    0.98</time>
   <energy>
    <i name="e_fr_energy">   -353.11702697 </i>
    <i name="e_wo_entrp">   -353.12792619 </i>
    <i name="e_0_energy">   -353.12066005 </i>
   </energy>
  </scstep>
  <scstep>
   <time name="diag">    0.09    0.09</time>
   <time name="diis">    0.86    0.87</time>
   <time name="orth">    0.01    0.01</time>
   <time name="total">    1.04    1.10</time>
   <energy>
    <i name="e_fr_energy">   -353.10874556 </i>
    <i name="e_wo_entrp">   -353.11974519 </i>
    <i name="e_0_energy">   -353.11241211 </i>
   </energy>
  </scstep>
  <scstep>
   <time name="diag">    0.09    0.10</time>
   <time name="diis">    0.87    0.87</time>
   <time name="orth">    0.01    0.01</time>
   <time name="total">    1.04    1.12</time>
   <energy>
    <i name="e_fr_energy">   -353.10153756 </i>
    <i name="e_wo_entrp">   -353.11305910 </i>
    <i name="e_0_energy">   -353.10537807 </i>
   </energy>
  </scstep>
  <scstep>
   <time name="diag">    0.09    0.09</time>
   <time name="diis">    0.77    0.92</time>
   <time name="orth">    0.02    0.02</time>
   <time name="total">    0.94    1.16</time>
   <energy>
    <i name="e_fr_energy">   -353.10080501 </i>
    <i name="e_wo_entrp">   -353.11185565 </i>
    <i name="e_0_energy">   -353.10448856 </i>
   </energy>
  </scstep>
  <scstep>
   <time name="diag">    0.09    0.09</time>
   <time name="diis">    0.86    0.87</time>
   <time name="orth">    0.01    0.01</time>
   <time name="total">    1.03    1.09</time>
   <energy>
    <i name="e_fr_energy">   -353.10085950 </i>
    <i name="e_wo_entrp">   -353.11213499 </i>
    <i name="e_0_energy">   -353.10461800 </i>
   </energy>
  </scstep>
  <scstep>
   <time name="diag">    0.09    0.09</time>
   <time name="diis">    0.89    0.91</time>
   <time name="orth">    0.01    0.02</time>
   <time name="total">    1.06    1.12</time>
   <energy>
    <i name="e_fr_energy">   -353.10086291 </i>
    <i name="e_wo_entrp">   -353.11211160 </i>
    <i name="e_0_energy">   -353.10461248 </i>
   </energy>
  </scstep>
  <scstep>
   <time name="diag">    0.09    0.09</time>
   <time name="diis">    0.77    0.78</time>
   <time name="orth">    0.02    0.02</time>
   <time name="total">    0.94    1.00</time>
   <energy>
    <i name="e_fr_energy">   -353.10088827 </i>
    <i name="e_wo_entrp">   -353.11208036 </i>
    <i name="e_0_energy">   -353.10461897 </i>
   </energy>
  </scstep>
  <scstep>
   <time name="diag">    0.09    0.09</time>
   <time name="diis">    0.71    0.73</time>
   <time name="orth">    0.01    0.01</time>
   <time name="total">    0.89    0.95</time>
   <energy>
    <i name="e_fr_energy">   -353.10090870 </i>
    <i name="e_wo_entrp">   -353.11211932 </i>
    <i name="e_0_energy">   -353.10464557 </i>
   </energy>
  </scstep>
  <scstep>
   <time name="diag">    0.09    0.09</time>
   <time name="diis">    0.61    0.62</time>
   <time name="orth">    0.01    0.01</time>
   <time name="total">    0.83    0.89</time>
   <energy>
    <i name="e_fr_energy">   -353.10092477 </i>
    <i name="e_wo_entrp">   -353.11215314 </i>
    <i name="e_0_energy">   -353.10466756 </i>
   </energy>
  </scstep>
  <scstep>
   <time name="diag">    0.09    0.09</time>
   <time name="diis">    0.52    0.52</time>
   <time name="orth">    0.02    0.02</time>
   <time name="total">    0.66    0.71</time>
   <energy>
    <i name="alphaZ">   1684.00979112 </i>
    <i name="ewald"> -23485.78564888 </i>
    <i name="hartreedc">  -7980.16258067 </i>
    <i name="XCdc">    234.02842301 </i>
    <i name="pawpsdc">  38474.57244105 </i>
    <i name="pawaedc"> -37072.93725669 </i>
    <i name="eentropy">      0.01121888 </i>
    <i name="bandstr">  -3350.88182125 </i>
    <i name="atom">  31144.04451113 </i>
    <i name="e_fr_energy">   -353.10092229 </i>
    <i name="e_wo_entrp">   -353.11214117 </i>
    <i name="e_0_energy">   -353.10466192 </i>
   </energy>
  </scstep>
  <structure>
   <crystal>
    <varray name="basis" >
     <v>       6.99323192       0.02206395      -0.00210186 </v>
     <v>       0.03235008      10.24556945       0.00951784 </v>
     <v>      -0.00312666       0.00880621      10.25616653 </v>
    </varray>
    <i name="volume">    734.84269834 </i>
    <varray name="rec_basis" >
     <v>       0.14299684      -0.00045155       0.00004398 </v>
     <v>      -0.00030797       0.09760421      -0.00008390 </v>
     <v>       0.00002959      -0.00009067       0.09750240 </v>
    </varray>
   </crystal>
   <varray name="positions" >
    <v>       0.72969095       0.49643996       0.17617784 </v>
    <v>       0.53260398       0.66777710       0.01043296 </v>
    <v>       0.04208363       0.00445134       0.66393769 </v>
    <v>       0.51719596       0.66953946       0.33825305 </v>
    <v>       0.76145178       0.49803815       0.48930846 </v>
    <v>       0.98138057       0.66828619       0.32587158 </v>
    <v>       0.23370631       0.16729359       0.48906558 </v>
    <v>       0.26456949       0.50554306       0.16864448 </v>
    <v>       0.00611280       0.33642936       0.00251442 </v>
    <v>       0.96894338       0.66176884       0.01116785 </v>
    <v>       0.25810831       0.82603266       0.16892750 </v>
    <v>       0.46858351       0.00245683       0.66196578 </v>
    <v>       0.76435583       0.83903050       0.50354208 </v>
    <v>       0.02525389       0.65344327       0.66282414 </v>
    <v>       0.25122256       0.82162726       0.85071501 </v>
    <v>       0.25791331       0.16889744       0.17951695 </v>
    <v>       0.98628364       0.00565228       0.00847059 </v>
    <v>       0.76377472       0.16384461       0.50205715 </v>
    <v>       0.76093833       0.17141343       0.82103782 </v>
    <v>       0.51473089       0.99863140       0.99612114 </v>
    <v>       0.72697429       0.17764516       0.17716836 </v>
    <v>       0.74113861       0.49025247       0.82819484 </v>
    <v>       0.48849972       0.66352527       0.65294067 </v>
    <v>       0.48057515       0.33079699       0.66116376 </v>
    <v>       0.76546857       0.83855061       0.81366009 </v>
    <v>       0.23828535       0.49505206       0.47646627 </v>
    <v>       0.00412045       0.98947002       0.33153737 </v>
    <v>       0.49177506       0.98936449       0.34571471 </v>
    <v>       0.74027151       0.83262722       0.18549431 </v>
    <v>       0.50652882       0.33985160       0.34679964 </v>
    <v>       0.26428876       0.50267013       0.84852529 </v>
    <v>       0.98439445       0.34255220       0.32440654 </v>
    <v>       0.01860453       0.33833205       0.67129035 </v>
    <v>       0.24183366       0.83561176       0.48404927 </v>
    <v>       0.47988088       0.33475483       0.98904993 </v>
    <v>       0.23845637       0.17235042       0.83298055 </v>
   </varray>
  </structure>
  <varray name="forces" >
   <v>      -0.00576459      -0.01825289      -0.01140710 </v>
   <v>       0.00630609       0.00458885      -0.00543416 </v>
   <v>      -0.10249901      -0.41664930       0.44204946 </v>
   <v>       0.01464746      -0.01889922       0.00592172 </v>
   <v>       0.02073327       0.04199504      -0.00314274 </v>
   <v>      -0.01887001      -0.01911800       0.02308608 </v>
   <v>      -0.07931920       0.21503165      -0.30018311 </v>
   <v>       0.00920423       0.04679232      -0.01103682 </v>
   <v>      -0.00173410      -0.00177735       0.00612127 </v>
   <v>      -0.03566281      -0.02089034       0.00304782 </v>
   <v>       0.00616777      -0.03569990      -0.00238942 </v>
   <v>       0.11173482      -0.22686774       0.22816825 </v>
   <v>       0.02717458      -0.01052192      -0.00918806 </v>
   <v>      -0.02607360       0.00097458      -0.00615376 </v>
   <v>      -0.03115155       0.00178411      -0.00577133 </v>
   <v>      -0.04849644      -0.00458852       0.03815074 </v>
   <v>      -0.00181580       0.00602724       0.00843541 </v>
   <v>       0.03184356       0.00285354      -0.05745975 </v>
   <v>       0.03357008      -0.00047201       0.01242556 </v>
   <v>       0.01720489      -0.00275606       0.00774646 </v>
   <v>       0.01469060      -0.00912559       0.02772472 </v>
   <v>       0.00764739      -0.00746337       0.00192625 </v>
   <v>       0.01907857      -0.01893244       0.00381486 </v>
   <v>       0.12691153       0.21043245       0.18073884 </v>
   <v>       0.02105989       0.01319793      -0.01095695 </v>
   <v>       0.01094963      -0.06369928       0.04651818 </v>
   <v>      -0.21692200      -0.29573265      -0.29952776 </v>
   <v>       0.21152235      -0.25457184      -0.13884758 </v>
   <v>      -0.01603212       0.03162158       0.00654278 </v>
   <v>       0.28195591       0.25172349      -0.09266440 </v>
   <v>      -0.00379671       0.01105171       0.00833467 </v>
   <v>      -0.26545263       0.20845686      -0.29389778 </v>
   <v>      -0.07824218       0.29786231       0.30031648 </v>
   <v>      -0.01181367       0.08368579      -0.01099523 </v>
   <v>       0.02568802       0.00206834      -0.01731214 </v>
   <v>      -0.05444420      -0.00412936      -0.07470144 </v>
  </varray>
  <varray name="stress" >
   <v>       1.91558336       0.64847038       0.33144605 </v>
   <v>       0.64847038       1.99349425       0.19922241 </v>
   <v>       0.33144610       0.19922240       2.21622114 </v>
  </varray>
  <energy>
   <i name="e_fr_energy">   -353.10092229 </i>
   <i name="e_wo_entrp">   -353.10466192 </i>
   <i name="e_0_energy">      0.01121888 </i>
  </energy>
  <time name="totalsc">   12.44   13.71</time>
 </calculation>
 <calculation>
  <scstep>
   <time name="dav">    1.11    1.12</time>
   <time name="total">    1.18    1.46</time>
   <energy>
    <i name="alphaZ">   1669.03922678 </i>
    <i name="ewald"> -23423.46572483 </i>
    <i name="hartreedc">  -7948.89616426 </i>
    <i name="XCdc">    230.82434660 </i>
    <i name="pawpsdc">  38474.93597159 </i>
    <i name="pawaedc"> -37073.34862108 </i>
    <i name="eentropy">      0.01233012 </i>
    <i name="bandstr">  -3426.45751813 </i>
    <i name="atom">  31144.04451113 </i>
    <i name="e_fr_energy">   -353.31164207 </i>
    <i name="e_wo_entrp">   -353.32397219 </i>
    <i name="e_0_energy">   -353.31575211 </i>
   </energy>
  </scstep>
  <scstep>
   <time name="diag">    0.09    0.09</time>
   <time name="diis">    0.69    0.83</time>
   <time name="orth">    0.02    0.02</time>
   <time name="total">    0.87    1.09</time>
   <energy>
    <i name="e_fr_energy">   -353.21291797 </i>
    <i name="e_wo_entrp">   -353.22454485 </i>
    <i name="e_0_energy">   -353.21679359 </i>
   </energy>
  </scstep>
  <scstep>
   <time name="diag">    0.09    0.09</time>
   <time name="diis">    0.82    0.84</time>
   <time name="orth">    0.02    0.02</time>
   <time name="total">    0.99    1.05</time>
   <energy>
    <i name="e_fr_energy">   -353.17232303 </i>
    <i name="e_wo_entrp">   -353.18442398 </i>
    <i name="e_0_energy">   -353.17635668 </i>
   </energy>
  </scstep>
  <scstep>
   <time name="diag">    0.09    0.09</time>
   <time name="diis">    0.85    0.87</time>
   <time name="orth">    0.01    0.01</time>
   <time name="total">    1.02    1.09</time>
   <energy>
    <i name="e_fr_energy">   -353.13838591 </i>
    <i name="e_wo_entrp">   -353.15150202 </i>
    <i name="e_0_energy">   -353.14275795 </i>
   </energy>
  </scstep>
  <scstep>
   <time name="diag">    0.09    0.09</time>
   <time name="diis">    0.83    0.84</time>
   <time name="orth">    0.01    0.01</time>
   <time name="total">    1.00    1.07</time>
   <energy>
    <i name="e_fr_energy">   -353.13487571 </i>
    <i name="e_wo_entrp">   -353.14704501 </i>
    <i name="e_0_energy">   -353.13893214 </i>
   </energy>
  </scstep>
  <scstep>
   <time name="diag">    0.09    0.09</time>
   <time name="diis">    0.88    0.89</time>
   <time name="orth">    0.01    0.01</time>
   <time name="total">    1.05    1.11</time>
   <energy>
    <i name="e_fr_energy">   -353.13527165 </i>
    <i name="e_wo_entrp">   -353.14789168 </i>
    <i name="e_0_energy">   -353.13947832 </i>
   </energy>
  </scstep>
  <scstep>
   <time name="diag">    0.09    0.09</time>
   <time name="diis">    0.95    0.96</time>
   <time name="orth">    0.01    0.01</time>
   <time name="total">    1.12    1.18</time>
   <energy>
    <i name="e_fr_energy">   -353.13541650 </i>
    <i name="e_wo_entrp">   -353.14800906 </i>
    <i name="e_0_energy">   -353.13961402 </i>
   </energy>
  </scstep>
  <scstep>
   <time name="diag">    0.09    0.09</time>
   <time name="diis">    0.99    1.00</time>
   <time name="orth">    0.02    0.02</time>
   <time name="total">    1.17    1.22</time>
   <energy>
    <i name="e_fr_energy">   -353.13562164 </i>
    <i name="e_wo_entrp">   -353.14808567 </i>
    <i name="e_0_energy">   -353.13977632 </i>
   </energy>
  </scstep>
  <scstep>
   <time name="diag">    0.09    0.09</time>
   <time name="diis">    0.83    0.84</time>
   <time name="orth">    0.01    0.01</time>
   <time name="total">    1.00    1.05</time>
   <energy>
    <i name="e_fr_energy">   -353.13574625 </i>
    <i name="e_wo_entrp">   -353.14825026 </i>
    <i name="e_0_energy">   -353.13991425 </i>
   </energy>
  </scstep>
  <scstep>
   <time name="diag">    0.09    0.09</time>
   <time name="diis">    0.81    0.82</time>
   <time name="orth">    0.01    0.01</time>
   <time name="total">    0.98    1.04</time>
   <energy>
    <i name="e_fr_energy">   -353.13588569 </i>
    <i name="e_wo_entrp">   -353.14843189 </i>
    <i name="e_0_energy">   -353.14006776 </i>
   </energy>
  </scstep>
  <scstep>
   <time name="diag">    0.09    0.09</time>
   <time name="diis">    0.68    0.73</time>
   <time name="orth">    0.02    0.02</time>
   <time name="total">    0.90    0.98</time>
   <energy>
    <i name="e_fr_energy">   -353.13591955 </i>
    <i name="e_wo_entrp">   -353.14844181 </i>
    <i name="e_0_energy">   -353.14009364 </i>
   </energy>
  </scstep>
  <scstep>
   <time name="diag">    0.09    0.10</time>
   <time name="diis">    0.65    0.66</time>
   <time name="orth">    0.01    0.01</time>
   <time name="total">    0.83    0.88</time>
   <energy>
    <i name="e_fr_energy">   -353.13592031 </i>
    <i name="e_wo_entrp">   -353.14844766 </i>
    <i name="e_0_energy">   -353.14009609 </i>
   </energy>
  </scstep>
  <scstep>
   <time name="diag">    0.09    0.09</time>
   <time name="diis">    0.55    0.56</time>
   <time name="orth">    0.01    0.01</time>
   <time name="total">    0.69    0.74</time>
   <energy>
    <i name="alphaZ">   1669.03922678 </i>
    <i name="ewald"> -23423.46572483 </i>
    <i name="hartreedc">  -7994.29079982 </i>
    <i name="XCdc">    232.91387254 </i>
    <i name="pawpsdc">  38060.03029809 </i>
    <i name="pawaedc"> -36659.40102290 </i>
    <i name="eentropy">      0.01252997 </i>
    <i name="bandstr">  -3382.01881163 </i>
    <i name="atom">  31144.04451113 </i>
    <i name="e_fr_energy">   -353.13592067 </i>
    <i name="e_wo_entrp">   -353.14845064 </i>
    <i name="e_0_energy">   -353.14009733 </i>
   </energy>
  </scstep>
  <structure>
   <crystal>
    <varray name="basis" >
     <v>       7.01364726       0.02456243      -0.00117484 </v>
     <v>       0.03600997      10.27615763       0.01037240 </v>
     <v>      -0.00176640       0.00965357      10.28735030 </v>
    </varray>
    <i name="volume">    741.43392143 </i>
    <varray name="rec_basis" >
     <v>       0.14258092      -0.00049966       0.00002495 </v>
     <v>      -0.00034082       0.09731392      -0.00009138 </v>
     <v>       0.00001663      -0.00009818       0.09720686 </v>
    </varray>
   </crystal>
   <varray name="positions" >
    <v>       0.72971281       0.49631271       0.17615119 </v>
    <v>       0.53257981       0.66780362       0.01038246 </v>
    <v>       0.04128710       0.00290856       0.66557269 </v>
    <v>       0.51722879       0.66947469       0.33826413 </v>
    <v>       0.76152583       0.49812617       0.48932042 </v>
    <v>       0.98132921       0.66821645       0.32593206 </v>
    <v>       0.23335387       0.16816761       0.48786315 </v>
    <v>       0.26458150       0.50567912       0.16861701 </v>
    <v>       0.00604879       0.33643235       0.00254383 </v>
    <v>       0.96883240       0.66170711       0.01114561 </v>
    <v>       0.25812873       0.82595299       0.16892861 </v>
    <v>       0.46938066       0.00157274       0.66284011 </v>
    <v>       0.76445850       0.83902061       0.50352908 </v>
    <v>       0.02510895       0.65343510       0.66282665 </v>
    <v>       0.25106809       0.82169582       0.85063172 </v>
    <v>       0.25766184       0.16889624       0.17962866 </v>
    <v>       0.98625434       0.00565509       0.00851353 </v>
    <v>       0.76391006       0.16388104       0.50183602 </v>
    <v>       0.76105527       0.17139243       0.82106374 </v>
    <v>       0.51484905       0.99861033       0.99613240 </v>
    <v>       0.72708236       0.17762137       0.17728535 </v>
    <v>       0.74118162       0.49020964       0.82815504 </v>
    <v>       0.48859777       0.66345787       0.65298597 </v>
    <v>       0.48127908       0.33156646       0.66181652 </v>
    <v>       0.76557065       0.83864841       0.81359012 </v>
    <v>       0.23835632       0.49487458       0.47664446 </v>
    <v>       0.00302107       0.98848137       0.33053629 </v>
    <v>       0.49288490       0.98849282       0.34520102 </v>
    <v>       0.74020681       0.83280529       0.18550375 </v>
    <v>       0.50789644       0.34067058       0.34648304 </v>
    <v>       0.26426631       0.50269893       0.84852592 </v>
    <v>       0.98309515       0.34319963       0.32343867 </v>
    <v>       0.01812078       0.33935171       0.67231719 </v>
    <v>       0.24178462       0.83587873       0.48402355 </v>
    <v>       0.48006479       0.33476321       0.98899934 </v>
    <v>       0.23823576       0.17234261       0.83276471 </v>
   </varray>
  </structure>
  <varray name="forces" >
   <v>      -0.02807518       0.03113968      -0.01613810 </v>
   <v>       0.03120191      -0.00439671       0.01789343 </v>
   <v>       0.05032074      -0.24866766       0.26555201 </v>
   <v>       0.02969394      -0.01517120       0.00944501 </v>
   <v>       0.02968570       0.06929862      -0.02056010 </v>
   <v>      -0.03488675      -0.01274604       0.02984398 </v>
   <v>      -0.08133614       0.08313986      -0.12333938 </v>
   <v>       0.02327571       0.05212231      -0.01590085 </v>
   <v>       0.02457813      -0.00690340      -0.00079558 </v>
   <v>      -0.06058017      -0.02366644       0.02654916 </v>
   <v>       0.01033132      -0.05614663      -0.00596241 </v>
   <v>      -0.01692665      -0.10793718       0.11781013 </v>
   <v>       0.03705039      -0.02595822      -0.01912887 </v>
   <v>      -0.01398553       0.00841785      -0.02092849 </v>
   <v>      -0.02586491      -0.04134977       0.04026802 </v>
   <v>      -0.03410490      -0.01108778       0.04382112 </v>
   <v>       0.00838938       0.01672517      -0.00460326 </v>
   <v>       0.03427043      -0.01319739      -0.03208322 </v>
   <v>       0.05011063       0.01318397       0.02031601 </v>
   <v>      -0.00043921       0.00558443       0.01800425 </v>
   <v>      -0.00518715      -0.01096609       0.00973190 </v>
   <v>       0.00239269       0.00607101       0.03582027 </v>
   <v>       0.01319021      -0.01269228      -0.01859665 </v>
   <v>       0.06596000       0.13118475       0.11899390 </v>
   <v>       0.01769173      -0.02681967       0.01660255 </v>
   <v>       0.00154627      -0.08081244       0.02131478 </v>
   <v>      -0.16490266      -0.24902688      -0.25236574 </v>
   <v>       0.14543084      -0.20437774      -0.08385848 </v>
   <v>      -0.02034767      -0.02265000       0.01272483 </v>
   <v>       0.24161853       0.22498732      -0.07233702 </v>
   <v>       0.00011294       0.01055375       0.02465014 </v>
   <v>      -0.22399519       0.21029447      -0.25364883 </v>
   <v>      -0.01965641       0.23352370       0.23680031 </v>
   <v>      -0.01242239       0.08109418      -0.01951014 </v>
   <v>      -0.00747014       0.00178446      -0.02078124 </v>
   <v>      -0.06667043      -0.00453202      -0.08560340 </v>
  </varray>
  <varray name="stress" >
   <v>      -9.67683248       0.15349787       0.31146284 </v>
   <v>       0.15349787      -9.77103457       0.18997779 </v>
   <v>       0.31146286       0.18997775      -9.33339723 </v>
  </varray>
  <energy>
   <i name="e_fr_energy">   -353.13592067 </i>
   <i name="e_wo_entrp">   -353.14009733 </i>
   <i name="e_0_energy">      0.01252997 </i>
  </energy>
  <time name="totalsc">   14.53   15.87</time>
 </calculation>
 <calculation>
  <scstep>
   <time name="dav">    1.10    1.12</time>
   <time name="total">    1.21    1.43</time>
   <energy>
    <i name="alphaZ">   1672.62703964 </i>
    <i name="ewald"> -23446.18429520 </i>
    <i name="hartreedc">  -7993.97537047 </i>
    <i name="XCdc">    233.69891467 </i>
    <i name="pawpsdc">  38058.95787673 </i>
    <i name="pawaedc"> -36658.39000079 </i>
    <i name="eentropy">      0.01230979 </i>
    <i name="bandstr">  -3363.95723487 </i>
    <i name="atom">  31144.04451113 </i>
    <i name="e_fr_energy">   -353.16624937 </i>
    <i name="e_wo_entrp">   -353.17855916 </i>
    <i name="e_0_energy">   -353.17035263 </i>
   </energy>
  </scstep>
  <scstep>
   <time name="diag">    0.16    0.16</time>
   <time name="diis">    0.71    0.72</time>
   <time name="orth">    0.02    0.02</time>
   <time name="total">    0.95    1.01</time>
   <energy>
    <i name="e_fr_energy">   -353.17923736 </i>
    <i name="e_wo_entrp">   -353.19108039 </i>
    <i name="e_0_energy">   -353.18318503 </i>
   </energy>
  </scstep>
  <scstep>
   <time name="diag">    0.09    0.09</time>
   <time name="diis">    0.82    0.82</time>
   <time name="orth">    0.01    0.01</time>
   <time name="total">    0.99    1.06</time>
   <energy>
    <i name="e_fr_energy">   -353.17077977 </i>
    <i name="e_wo_entrp">   -353.18331546 </i>
    <i name="e_0_energy">   -353.17495833 </i>
   </energy>
  </scstep>
  <scstep>
   <time name="diag">    0.09    0.09</time>
   <time name="diis">    0.77    0.90</time>
   <time name="orth">    0.01    0.01</time>
   <time name="total">    0.95    1.14</time>
   <energy>
    <i name="e_fr_energy">   -353.16861904 </i>
    <i name="e_wo_entrp">   -353.18078318 </i>
    <i name="e_0_energy">   -353.17267375 </i>
   </energy>
  </scstep>
  <scstep>
   <time name="diag">    0.09    0.09</time>
   <time name="diis">    0.83    0.84</time>
   <time name="orth">    0.01    0.01</time>
   <time name="total">    1.00    1.06</time>
   <energy>
    <i name="e_fr_energy">   -353.16843961 </i>
    <i name="e_wo_entrp">   -353.18076116 </i>
    <i name="e_0_energy">   -353.17254679 </i>
   </energy>
  </scstep>
  <scstep>
   <time name="diag">    0.12    0.12</time>
   <time name="diis">    0.90    0.91</time>
   <time name="orth">    0.02    0.02</time>
   <time name="total">    1.10    1.16</time>
   <energy>
    <i name="e_fr_energy">   -353.16849458 </i>
    <i name="e_wo_entrp">   -353.18075396 </i>
    <i name="e_0_energy">   -353.17258104 </i>
   </energy>
  </scstep>
  <scstep>
   <time name="diag">    0.09    0.09</time>
   <time name="diis">    0.80    0.80</time>
   <time name="orth">    0.01    0.01</time>
   <time name="total">    0.97    1.02</time>
   <energy>
    <i name="e_fr_energy">   -353.16847493 </i>
    <i name="e_wo_entrp">   -353.18069519 </i>
    <i name="e_0_energy">   -353.17254835 </i>
   </energy>
  </scstep>
  <scstep>
   <time name="diag">    0.09    0.09</time>
   <time name="diis">    0.70    0.75</time>
   <time name="orth">    0.02    0.02</time>
   <time name="total">    0.87    0.96</time>
   <energy>
    <i name="e_fr_energy">   -353.16851667 </i>
    <i name="e_wo_entrp">   -353.18077724 </i>
    <i name="e_0_energy">   -353.17260352 </i>
   </energy>
  </scstep>
  <scstep>
   <time name="diag">    0.09    0.09</time>
   <time name="diis">    0.61    0.62</time>
   <time name="orth">    0.02    0.02</time>
   <time name="total">    0.78    0.83</time>
   <energy>
    <i name="e_fr_energy">   -353.16854182 </i>
    <i name="e_wo_entrp">   -353.18079200 </i>
    <i name="e_0_energy">   -353.17262522 </i>
   </energy>
  </scstep>
  <scstep>
   <time name="diag">    0.09    0.09</time>
   <time name="diis">    0.51    0.52</time>
   <time name="orth">    0.01    0.01</time>
   <time name="total">    0.68    0.73</time>
   <energy>
    <i name="e_fr_energy">   -353.16855769 </i>
    <i name="e_wo_entrp">   -353.18079598 </i>
    <i name="e_0_energy">   -353.17263712 </i>
   </energy>
  </scstep>
  <scstep>
   <time name="diag">    0.12    0.12</time>
   <time name="diis">    0.43    0.44</time>
   <time name="orth">    0.01    0.01</time>
   <time name="total">    0.60    0.68</time>
   <energy>
    <i name="alphaZ">   1672.62703964 </i>
    <i name="ewald"> -23446.18429520 </i>
    <i name="hartreedc">  -7983.10778876 </i>
    <i name="XCdc">    233.20446326 </i>
    <i name="pawpsdc">  38155.75158339 </i>
    <i name="pawaedc"> -36755.11107339 </i>
    <i name="eentropy">      0.01224324 </i>
    <i name="bandstr">  -3374.40524972 </i>
    <i name="atom">  31144.04451113 </i>
    <i name="e_fr_energy">   -353.16856640 </i>
    <i name="e_wo_entrp">   -353.18080964 </i>
    <i name="e_0_energy">   -353.17264748 </i>
   </energy>
  </scstep>
  <structure>
   <crystal>
    <varray name="basis" >
     <v>       7.00836614       0.02562065      -0.00043047 </v>
     <v>       0.03756141      10.26848458       0.01102867 </v>
     <v>      -0.00067519       0.01030596      10.28070793 </v>
    </varray>
    <i name="volume">    739.84353332 </i>
    <varray name="rec_basis" >
     <v>       0.14268852      -0.00052196       0.00000989 </v>
     <v>      -0.00035603       0.09738676      -0.00009765 </v>
     <v>       0.00000636      -0.00010449       0.09726967 </v>
    </varray>
   </crystal>
   <varray name="positions" >
    <v>       0.72966247       0.49631128       0.17611892 </v>
    <v>       0.53263560       0.66780673       0.01038960 </v>
    <v>       0.04110850       0.00200677       0.66653061 </v>
    <v>       0.51730191       0.66943003       0.33828140 </v>
    <v>       0.76161301       0.49825508       0.48929567 </v>
    <v>       0.98123899       0.66817373       0.32599566 </v>
    <v>       0.23305943       0.16859748       0.48726007 </v>
    <v>       0.26463341       0.50580103       0.16858476 </v>
    <v>       0.00607669       0.33642358       0.00255323 </v>
    <v>       0.96866794       0.66165200       0.01117504 </v>
    <v>       0.25815777       0.82584542       0.16892070 </v>
    <v>       0.46963137       0.00110481       0.66331824 </v>
    <v>       0.76457181       0.83898036       0.50349758 </v>
    <v>       0.02502825       0.65344414       0.66279809 </v>
    <v>       0.25095986       0.82166216       0.85065868 </v>
    <v>       0.25750174       0.16888032       0.17973022 </v>
    <v>       0.98626106       0.00567961       0.00852237 </v>
    <v>       0.76402920       0.16387533       0.50171194 </v>
    <v>       0.76120035       0.17140321       0.82110156 </v>
    <v>       0.51489031       0.99861064       0.99616174 </v>
    <v>       0.72711033       0.17759743       0.17734084 </v>
    <v>       0.74120189       0.49020283       0.82819121 </v>
    <v>       0.48866010       0.66341587       0.65297601 </v>
    <v>       0.48166551       0.33202547       0.66221683 </v>
    <v>       0.76564381       0.83864545       0.81358852 </v>
    <v>       0.23838546       0.49469733       0.47673820 </v>
    <v>       0.00229008       0.98777883       0.32982412 </v>
    <v>       0.49358304       0.98789298       0.34489990 </v>
    <v>       0.74014185       0.83283708       0.18552505 </v>
    <v>       0.50888171       0.34127874       0.34626788 </v>
    <v>       0.26425845       0.50272405       0.84856081 </v>
    <v>       0.98216721       0.34372860       0.32273585 </v>
    <v>       0.01790559       0.34004456       0.67301668 </v>
    <v>       0.24174083       0.83608838       0.48398679 </v>
    <v>       0.48011504       0.33476877       0.98895202 </v>
    <v>       0.23801940       0.17233391       0.83256719 </v>
   </varray>
  </structure>
  <varray name="forces" >
   <v>      -0.02818017       0.04796978      -0.04049673 </v>
   <v>       0.02719108      -0.00292679       0.00641374 </v>
   <v>       0.08590845      -0.16916113       0.17796365 </v>
   <v>       0.00972846      -0.01354548       0.02293561 </v>
   <v>       0.02451007       0.08385612       0.00446394 </v>
   <v>      -0.01451047      -0.01163746       0.03762629 </v>
   <v>      -0.06708810       0.03035301      -0.03829020 </v>
   <v>       0.01761342       0.05098553      -0.02403712 </v>
   <v>       0.02428409      -0.01424876      -0.00050583 </v>
   <v>      -0.05132768      -0.02213258       0.02579949 </v>
   <v>       0.00575365      -0.05707247      -0.02113275 </v>
   <v>      -0.04667713      -0.04688066       0.06551742 </v>
   <v>       0.03460683      -0.03597004      -0.00327976 </v>
   <v>      -0.01309474       0.02077883      -0.02672092 </v>
   <v>      -0.01744032      -0.05927006       0.06025654 </v>
   <v>      -0.03069297      -0.01811959       0.03315771 </v>
   <v>       0.01732148       0.02494725      -0.01075581 </v>
   <v>       0.02545237      -0.01981502      -0.01406245 </v>
   <v>       0.04332613       0.01466963       0.02729634 </v>
   <v>      -0.01470272       0.01740413       0.01967550 </v>
   <v>      -0.01228689      -0.02587808      -0.01311976 </v>
   <v>       0.00536068       0.01886055       0.04709341 </v>
   <v>       0.01707917      -0.00623673      -0.01994516 </v>
   <v>       0.04525730       0.08534429       0.07961746 </v>
   <v>       0.00884849      -0.04940527       0.03426407 </v>
   <v>       0.00529518      -0.08052629       0.02518936 </v>
   <v>      -0.14310169      -0.19485538      -0.22800406 </v>
   <v>       0.11464107      -0.14739664      -0.05884156 </v>
   <v>      -0.01598495      -0.02785188      -0.01033239 </v>
   <v>       0.19364390       0.18201485      -0.06167317 </v>
   <v>      -0.00971765       0.01707965       0.02268257 </v>
   <v>      -0.17351105       0.18187267      -0.22032525 </v>
   <v>       0.00084403       0.19214885       0.19078049 </v>
   <v>      -0.00699240       0.05489936      -0.00844886 </v>
   <v>      -0.00727204      -0.01166525      -0.01071894 </v>
   <v>      -0.05408489      -0.00858895      -0.07004286 </v>
  </varray>
  <varray name="stress" >
   <v>      -7.04541514      -0.09270317       0.30900353 </v>
   <v>      -0.09270319      -7.00777994       0.10624115 </v>
   <v>       0.30900350       0.10624114      -6.52607964 </v>
  </varray>
  <energy>
   <i name="e_fr_energy">   -353.16856640 </i>
   <i name="e_wo_entrp">   -353.17264748 </i>
   <i name="e_0_energy">      0.01224324 </i>
  </energy>
  <time name="totalsc">   11.88   13.02</time>
 </calculation>
 <calculation>
  <scstep>
   <time name="dav">    1.03    1.04</time>
   <time name="total">    1.12    1.34</time>
   <energy>
    <i name="alphaZ">   1681.17986285 </i>
    <i name="ewald"> -23498.81217246 </i>
    <i name="hartreedc">  -7983.74818563 </i>
    <i name="XCdc">    235.08252382 </i>
    <i name="pawpsdc">  38156.12401825 </i>
    <i name="pawaedc"> -36755.44105651 </i>
    <i name="eentropy">      0.01142500 </i>
    <i name="bandstr">  -3331.63533640 </i>
    <i name="atom">  31144.04451113 </i>
    <i name="e_fr_energy">   -353.19440996 </i>
    <i name="e_wo_entrp">   -353.20583496 </i>
    <i name="e_0_energy">   -353.19821829 </i>
   </energy>
  </scstep>
  <scstep>
   <time name="diag">    0.09    0.09</time>
   <time name="diis">    0.74    0.75</time>
   <time name="orth">    0.02    0.02</time>
   <time name="total">    0.91    0.98</time>
   <energy>
    <i name="e_fr_energy">   -353.26828264 </i>
    <i name="e_wo_entrp">   -353.27849938 </i>
    <i name="e_0_energy">   -353.27168822 </i>
   </energy>
  </scstep>
  <scstep>
   <time name="diag">    0.09    0.09</time>
   <time name="diis">    0.85    0.86</time>
   <time name="orth">    0.01    0.01</time>
   <time name="total">    1.02    1.08</time>
   <energy>
    <i name="e_fr_energy">   -353.21832560 </i>
    <i name="e_wo_entrp">   -353.23034505 </i>
    <i name="e_0_energy">   -353.22233208 </i>
   </energy>
  </scstep>
  <scstep>
   <time name="diag">    0.09    0.09</time>
   <time name="diis">    0.84    0.85</time>
   <time name="orth">    0.01    0.01</time>
   <time name="total">    1.02    1.11</time>
   <energy>
    <i name="e_fr_energy">   -353.20661688 </i>
    <i name="e_wo_entrp">   -353.21775857 </i>
    <i name="e_0_energy">   -353.21033077 </i>
   </energy>
  </scstep>
  <scstep>
   <time name="diag">    0.09    0.09</time>
   <time name="diis">    0.83    0.84</time>
   <time name="orth">    0.01    0.01</time>
   <time name="total">    1.00    1.05</time>
   <energy>
    <i name="e_fr_energy">   -353.20575915 </i>
    <i name="e_wo_entrp">   -353.21726319 </i>
    <i name="e_0_energy">   -353.20959383 </i>
   </energy>
  </scstep>
  <scstep>
   <time name="diag">    0.09    0.09</time>
   <time name="diis">    0.89    0.90</time>
   <time name="orth">    0.01    0.01</time>
   <time name="total">    1.06    1.11</time>
   <energy>
    <i name="e_fr_energy">   -353.20604990 </i>
    <i name="e_wo_entrp">   -353.21739538 </i>
    <i name="e_0_energy">   -353.20983173 </i>
   </energy>
  </scstep>
  <scstep>
   <time name="diag">    0.10    0.10</time>
   <time name="diis">    0.92    0.93</time>
   <time name="orth">    0.01    0.01</time>
   <time name="total">    1.10    1.15</time>
   <energy>
    <i name="e_fr_energy">   -353.20594890 </i>
    <i name="e_wo_entrp">   -353.21722595 </i>
    <i name="e_0_energy">   -353.20970792 </i>
   </energy>
  </scstep>
  <scstep>
   <time name="diag">    0.09    0.09</time>
   <time name="diis">    0.97    0.98</time>
   <time name="orth">    0.02    0.02</time>
   <time name="total">    1.14    1.20</time>
   <energy>
    <i name="e_fr_energy">   -353.20615803 </i>
    <i name="e_wo_entrp">   -353.21752051 </i>
    <i name="e_0_energy">   -353.20994552 </i>
   </energy>
  </scstep>
  <scstep>
   <time name="diag">    0.09    0.09</time>
   <time name="diis">    0.82    0.83</time>
   <time name="orth">    0.01    0.01</time>
   <time name="total">    1.01    1.07</time>
   <energy>
    <i name="e_fr_energy">   -353.20626273 </i>
    <i name="e_wo_entrp">   -353.21760460 </i>
    <i name="e_0_energy">   -353.21004336 </i>
   </energy>
  </scstep>
  <scstep>
   <time name="diag">    0.10    0.10</time>
   <time name="diis">    0.71    0.72</time>
   <time name="orth">    0.01    0.02</time>
   <time name="total">    0.90    0.95</time>
   <energy>
    <i name="e_fr_energy">   -353.20633268 </i>
    <i name="e_wo_entrp">   -353.21764793 </i>
    <i name="e_0_energy">   -353.21010443 </i>
   </energy>
  </scstep>
  <scstep>
   <time name="diag">    0.09    0.09</time>
   <time name="diis">    0.61    0.62</time>
   <time name="orth">    0.02    0.02</time>
   <time name="total">    0.78    0.83</time>
   <energy>
    <i name="e_fr_energy">   -353.20636713 </i>
    <i name="e_wo_entrp">   -353.21769209 </i>
    <i name="e_0_energy">   -353.21014212 </i>
   </energy>
  </scstep>
  <scstep>
   <time name="diag">    0.09    0.09</time>
   <time name="diis">    0.57    0.57</time>
   <time name="orth">    0.01    0.02</time>
   <time name="total">    0.74    0.79</time>
   <energy>
    <i name="e_fr_energy">   -353.20637728 </i>
    <i name="e_wo_entrp">   -353.21771055 </i>
    <i name="e_0_energy">   -353.21015504 </i>
   </energy>
  </scstep>
  <scstep>
   <time name="diag">    0.10    0.10</time>
   <time name="diis">    0.51    0.51</time>
   <time name="orth">    0.01    0.01</time>
   <time name="total">    0.66    0.71</time>
   <energy>
    <i name="alphaZ">   1681.17986285 </i>
    <i name="ewald"> -23498.81217246 </i>
    <i name="hartreedc">  -7958.54273262 </i>
    <i name="XCdc">    233.93060407 </i>
    <i name="pawpsdc">  38401.04696240 </i>
    <i name="pawaedc"> -36999.64958806 </i>
    <i name="eentropy">      0.01132606 </i>
    <i name="bandstr">  -3356.41515382 </i>
    <i name="atom">  31144.04451113 </i>
    <i name="e_fr_energy">   -353.20638045 </i>
    <i name="e_wo_entrp">   -353.21770651 </i>
    <i name="e_0_energy">   -353.21015580 </i>
   </energy>
  </scstep>
  <structure>
   <crystal>
    <varray name="basis" >
     <v>       6.99583825       0.02813097       0.00133533 </v>
     <v>       0.04124175      10.25028256       0.01258549 </v>
     <v>       0.00191337       0.01185358      10.26495090 </v>
    </varray>
    <i name="volume">    736.07965827 </i>
    <varray name="rec_basis" >
     <v>       0.14294444      -0.00057510      -0.00002598 </v>
     <v>      -0.00039228       0.09756000      -0.00011259 </v>
     <v>      -0.00001811      -0.00011954       0.09741902 </v>
    </varray>
   </crystal>
   <varray name="positions" >
    <v>       0.72954299       0.49630789       0.17604233 </v>
    <v>       0.53276804       0.66781409       0.01040656 </v>
    <v>       0.04068464      -0.00013417       0.66880463 </v>
    <v>       0.51747552       0.66932399       0.33832240 </v>
    <v>       0.76181991       0.49856109       0.48923689 </v>
    <v>       0.98102480       0.66807232       0.32614665 </v>
    <v>       0.23236044       0.16961815       0.48582849 </v>
    <v>       0.26475660       0.50609043       0.16850818 </v>
    <v>       0.00614292       0.33640275       0.00257555 </v>
    <v>       0.96827756       0.66152122       0.01124494 </v>
    <v>       0.25822675       0.82559003       0.16890194 </v>
    <v>       0.47022664      -0.00000617       0.66445323 </v>
    <v>       0.76484085       0.83888477       0.50342277 </v>
    <v>       0.02483669       0.65346564       0.66273031 </v>
    <v>       0.25070292       0.82158228       0.85072270 </v>
    <v>       0.25712162       0.16884256       0.17997133 </v>
    <v>       0.98627699       0.00573783       0.00854334 </v>
    <v>       0.76431211       0.16386176       0.50141738 </v>
    <v>       0.76154476       0.17142876       0.82119132 </v>
    <v>       0.51498827       0.99861136       0.99623137 </v>
    <v>       0.72717674       0.17754059       0.17747254 </v>
    <v>       0.74125002       0.49018666       0.82827706 </v>
    <v>       0.48880811       0.66331616       0.65295236 </v>
    <v>       0.48258252       0.33311499       0.66316692 </v>
    <v>       0.76581748       0.83863840       0.81358472 </v>
    <v>       0.23845472       0.49427653       0.47696074 </v>
    <v>       0.00055537       0.98611130       0.32813386 </v>
    <v>       0.49524084       0.98646885       0.34418511 </v>
    <v>       0.73998762       0.83291256       0.18557561 </v>
    <v>       0.51122050       0.34272229       0.34575688 </v>
    <v>       0.26423976       0.50278367       0.84864363 </v>
    <v>       0.97996425       0.34498472       0.32106762 </v>
    <v>       0.01739408       0.34168932       0.67467703 </v>
    <v>       0.24163677       0.83658611       0.48389951 </v>
    <v>       0.48023436       0.33478196       0.98883970 </v>
    <v>       0.23750586       0.17231333       0.83209838 </v>
   </varray>
  </structure>
  <varray name="forces" >
   <v>      -0.02969847       0.09547528      -0.10430429 </v>
   <v>       0.01655002       0.00124031      -0.02178627 </v>
   <v>       0.16113109       0.02069596      -0.02894468 </v>
   <v>      -0.03992176      -0.01059765       0.05355180 </v>
   <v>       0.01148056       0.11679468       0.06681265 </v>
   <v>       0.03617325      -0.01123375       0.05479500 </v>
   <v>      -0.03058100      -0.08991439       0.15699225 </v>
   <v>       0.00327415       0.04787126      -0.04319284 </v>
   <v>       0.02583515      -0.03389329      -0.00099972 </v>
   <v>      -0.02762323      -0.01821702       0.02408843 </v>
   <v>      -0.00409462      -0.05929198      -0.05858742 </v>
   <v>      -0.11258769       0.09571460      -0.05467927 </v>
   <v>       0.02744880      -0.05987587       0.03849779 </v>
   <v>      -0.00991483       0.05173961      -0.04132126 </v>
   <v>       0.00482898      -0.10391755       0.11183635 </v>
   <v>      -0.02111941      -0.03365043       0.00638074 </v>
   <v>       0.04120499       0.04360354      -0.02581259 </v>
   <v>       0.00268026      -0.03459015       0.02683084 </v>
   <v>       0.02285990       0.01627136       0.04423652 </v>
   <v>      -0.05021385       0.04590075       0.02321560 </v>
   <v>      -0.03055791      -0.06280499      -0.06767417 </v>
   <v>       0.01122685       0.05289133       0.07685984 </v>
   <v>       0.02541567       0.00893703      -0.02208037 </v>
   <v>      -0.00279675      -0.02233668      -0.01447027 </v>
   <v>      -0.01453974      -0.10819223       0.07966526 </v>
   <v>       0.01385129      -0.07849850       0.03390922 </v>
   <v>      -0.09033644      -0.06359527      -0.17006925 </v>
   <v>       0.04009061      -0.00877062       0.00015217 </v>
   <v>      -0.00726294      -0.04851205      -0.07209294 </v>
   <v>       0.07861637       0.07940784      -0.03374930 </v>
   <v>      -0.03211239       0.03425743       0.01985724 </v>
   <v>      -0.04806412       0.11189154      -0.13757388 </v>
   <v>       0.04815664       0.09647671       0.08034751 </v>
   <v>       0.00904733      -0.00893668       0.01794639 </v>
   <v>      -0.00916758      -0.04312686       0.01470298 </v>
   <v>      -0.01927916      -0.01921326      -0.03334007 </v>
  </varray>
  <varray name="stress" >
   <v>      -0.03214351      -0.71120030       0.28998329 </v>
   <v>      -0.71120034       0.26432529      -0.11693880 </v>
   <v>       0.28998327      -0.11693884       0.88271978 </v>
  </varray>
  <energy>
   <i name="e_fr_energy">   -353.20638045 </i>
   <i name="e_wo_entrp">   -353.21015580 </i>
   <i name="e_0_energy">      0.01132606 </i>
  </energy>
  <time name="totalsc">   14.16   15.29</time>
 </calculation>
 <calculation>
  <scstep>
   <time name="dav">    1.08    1.09</time>
   <time name="total">    1.16    1.41</time>
   <energy>
    <i name="alphaZ">   1682.60458832 </i>
    <i name="ewald"> -23507.37381519 </i>
    <i name="hartreedc">  -7958.83580689 </i>
    <i name="XCdc">    234.24412640 </i>
    <i name="pawpsdc">  38401.44855667 </i>
    <i name="pawaedc"> -37000.02653659 </i>
    <i name="eentropy">      0.01117942 </i>
    <i name="bandstr">  -3349.32351081 </i>
    <i name="atom">  31144.04451113 </i>
    <i name="e_fr_energy">   -353.20670755 </i>
    <i name="e_wo_entrp">   -353.21788697 </i>
    <i name="e_0_energy">   -353.21043403 </i>
   </energy>
  </scstep>
  <scstep>
   <time name="diag">    0.09    0.09</time>
   <time name="diis">    0.72    0.72</time>
   <time name="orth">    0.02    0.02</time>
   <time name="total">    0.89    0.93</time>
   <energy>
    <i name="e_fr_energy">   -353.20871919 </i>
    <i name="e_wo_entrp">   -353.21971285 </i>
    <i name="e_0_energy">   -353.21238374 </i>
   </energy>
  </scstep>
  <scstep>
   <time name="diag">    0.09    0.09</time>
   <time name="diis">    0.97    0.98</time>
   <time name="orth">    0.01    0.01</time>
   <time name="total">    1.14    1.20</time>
   <energy>
    <i name="e_fr_energy">   -353.20743171 </i>
    <i name="e_wo_entrp">   -353.21869724 </i>
    <i name="e_0_energy">   -353.21118689 </i>
   </energy>
  </scstep>
  <scstep>
   <time name="diag">    0.09    0.09</time>
   <time name="diis">    0.83    0.83</time>
   <time name="orth">    0.01    0.01</time>
   <time name="total">    0.99    1.04</time>
   <energy>
    <i name="e_fr_energy">   -353.20711326 </i>
    <i name="e_wo_entrp">   -353.21822444 </i>
    <i name="e_0_energy">   -353.21081699 </i>
   </energy>
  </scstep>
  <scstep>
[...]
       <r>    7.3621    1.0000 </r>
       <r>    7.3827    1.0000 </r>
       <r>    7.4165    1.0000 </r>
       <r>    7.4805    1.0000 </r>
       <r>    7.5196    1.0000 </r>
       <r>    7.5820    1.0001 </r>
       <r>    7.6162    1.0004 </r>
       <r>    7.6386    1.0009 </r>
       <r>    7.6795    1.0028 </r>
       <r>    7.7071    1.0055 </r>
       <r>    7.7393    1.0111 </r>
       <r>    7.7816    1.0224 </r>
       <r>    7.8208    1.0334 </r>
       <r>    7.8428    1.0354 </r>
       <r>    7.8789    1.0210 </r>
       <r>    7.9158    0.9660 </r>
       <r>    7.9814    0.7277 </r>
       <r>    7.9969    0.6475 </r>
       <r>    8.0330    0.4470 </r>
       <r>    8.0773    0.2171 </r>
       <r>    8.1211    0.0587 </r>
       <r>    8.1385    0.0191 </r>
       <r>    8.1789   -0.0284 </r>
       <r>    8.2093   -0.0354 </r>
       <r>    8.2616   -0.0237 </r>
       <r>    8.2853   -0.0166 </r>
       <r>    8.3351   -0.0062 </r>
       <r>    8.3640   -0.0030 </r>
       <r>    8.3972   -0.0012 </r>
       <r>    8.4595   -0.0002 </r>
       <r>    8.4915   -0.0000 </r>
       <r>    8.5155   -0.0000 </r>
       <r>    8.5502   -0.0000 </r>
       <r>    8.5963   -0.0000 </r>
       <r>    8.6263   -0.0000 </r>
       <r>    8.7250   -0.0000 </r>
       <r>    8.7694   -0.0000 </r>
       <r>    8.7988   -0.0000 </r>
       <r>    8.8614   -0.0000 </r>
       <r>    8.9015   -0.0000 </r>
       <r>    9.0129   -0.0000 </r>
       <r>    9.1360   -0.0000 </r>
       <r>    9.2599   -0.0000 </r>
       <r>    9.3987   -0.0000 </r>
       <r>    9.7815   -0.0000 </r>
       <r>    9.8945   -0.0000 </r>
       <r>    9.9373   -0.0000 </r>
       <r>   10.0119   -0.0000 </r>
       <r>   10.0425   -0.0000 </r>
      </set>
     </set>
    </set>
   </array>
  </eigenvalues>
  <separator name="orbital magnetization" >
   <v name="MAGDIPOLOUT">      0.00000000      0.00000000      0.00000000</v>
  </separator>
  <dos>
   <i name="efermi">      8.02355721 </i>
   <total>
    <array>
     <dimension dim="1">gridpoints</dimension>
     <dimension dim="2">spin</dimension>
     <field>energy</field>
     <field>total</field>
     <field>integrated</field>
     <set>
      <set comment="spin 1">
       <r>   -49.1054     0.0000     0.0000 </r>
       <r>   -48.8988     0.0000     0.0000 </r>
       <r>   -48.6923     0.0000     0.0000 </r>
       <r>   -48.4857     0.0000     0.0000 </r>
       <r>   -48.2792     0.0000     0.0000 </r>
       <r>   -48.0726     0.0000     0.0000 </r>
       <r>   -47.8661     0.0000     0.0000 </r>
       <r>   -47.6595    -0.0000    -0.0000 </r>
       <r>   -47.4530    -0.0000    -0.0000 </r>
       <r>   -47.2464    -0.0000    -0.0000 </r>
       <r>   -47.0399    -0.0000    -0.0000 </r>
       <r>   -46.8333    -0.0000    -0.0000 </r>
       <r>   -46.6268    -0.0596    -0.0123 </r>
       <r>   -46.4202    -1.7490    -0.3736 </r>
       <r>   -46.2137    37.7714     7.4282 </r>
       <r>   -46.0071    57.5100    19.3069 </r>
       <r>   -45.8006     3.8174    20.0954 </r>
       <r>   -45.5940    -0.4606    20.0003 </r>
       <r>   -45.3875    -0.0014    20.0000 </r>
       <r>   -45.1809    -0.0000    20.0000 </r>
       <r>   -44.9744    -0.0000    20.0000 </r>
       <r>   -44.7678     0.0000    20.0000 </r>
       <r>   -44.5613     0.0000    20.0000 </r>
       <r>   -44.3547     0.0000    20.0000 </r>
       <r>   -44.1482     0.0000    20.0000 </r>
       <r>   -43.9416     0.0000    20.0000 </r>
       <r>   -43.7351     0.0000    20.0000 </r>
       <r>   -43.5285     0.0000    20.0000 </r>
       <r>   -43.3220     0.0000    20.0000 </r>
       <r>   -43.1154     0.0000    20.0000 </r>
       <r>   -42.9088     0.0000    20.0000 </r>
       <r>   -42.7023     0.0000    20.0000 </r>
       <r>   -42.4957     0.0000    20.0000 </r>
       <r>   -42.2892     0.0000    20.0000 </r>
       <r>   -42.0826     0.0000    20.0000 </r>
       <r>   -41.8761     0.0000    20.0000 </r>
       <r>   -41.6695    -0.0000    20.0000 </r>
       <r>   -41.4630    -0.0000    20.0000 </r>
       <r>   -41.2564    -0.0000    20.0000 </r>
       <r>   -41.0499    -0.0000    20.0000 </r>
       <r>   -40.8433    -0.0001    20.0000 </r>
       <r>   -40.6368    -0.1151    19.9762 </r>
       <r>   -40.4302    -0.6186    19.8484 </r>
       <r>   -40.2237    35.2601    27.1315 </r>
       <r>   -40.0171    64.4391    40.4414 </r>
       <r>   -39.8106     8.1895    42.1330 </r>
       <r>   -39.6040    -0.6330    42.0022 </r>
       <r>   -39.3975    -0.0108    42.0000 </r>
       <r>   -39.1909    -0.0000    42.0000 </r>
       <r>   -38.9844    -0.0000    42.0000 </r>
       <r>   -38.7778     0.0000    42.0000 </r>
       <r>   -38.5713     0.0000    42.0000 </r>
       <r>   -38.3647     0.0000    42.0000 </r>
       <r>   -38.1582     0.0000    42.0000 </r>
       <r>   -37.9516     0.0000    42.0000 </r>
       <r>   -37.7451     0.0000    42.0000 </r>
       <r>   -37.5385     0.0000    42.0000 </r>
       <r>   -37.3320     0.0000    42.0000 </r>
       <r>   -37.1254     0.0000    42.0000 </r>
       <r>   -36.9189     0.0000    42.0000 </r>
       <r>   -36.7123     0.0000    42.0000 </r>
       <r>   -36.5058     0.0000    42.0000 </r>
       <r>   -36.2992     0.0000    42.0000 </r>
       <r>   -36.0927     0.0000    42.0000 </r>
       <r>   -35.8861     0.0000    42.0000 </r>
       <r>   -35.6795     0.0000    42.0000 </r>
       <r>   -35.4730     0.0000    42.0000 </r>
       <r>   -35.2664     0.0000    42.0000 </r>
       <r>   -35.0599     0.0000    42.0000 </r>
       <r>   -34.8533     0.0000    42.0000 </r>
       <r>   -34.6468     0.0000    42.0000 </r>
       <r>   -34.4402     0.0000    42.0000 </r>
       <r>   -34.2337     0.0000    42.0000 </r>
       <r>   -34.0271     0.0000    42.0000 </r>
       <r>   -33.8206     0.0000    42.0000 </r>
       <r>   -33.6140     0.0000    42.0000 </r>
       <r>   -33.4075     0.0000    42.0000 </r>
       <r>   -33.2009     0.0000    42.0000 </r>
       <r>   -32.9944     0.0000    42.0000 </r>
       <r>   -32.7878     0.0000    42.0000 </r>
       <r>   -32.5813     0.0000    42.0000 </r>
       <r>   -32.3747     0.0000    42.0000 </r>
       <r>   -32.1682     0.0000    42.0000 </r>
       <r>   -31.9616     0.0000    42.0000 </r>
       <r>   -31.7551     0.0000    42.0000 </r>
       <r>   -31.5485     0.0000    42.0000 </r>
       <r>   -31.3420     0.0000    42.0000 </r>
       <r>   -31.1354     0.0000    42.0000 </r>
       <r>   -30.9289     0.0000    42.0000 </r>
       <r>   -30.7223     0.0000    42.0000 </r>
       <r>   -30.5158     0.0000    42.0000 </r>
       <r>   -30.3092     0.0000    42.0000 </r>
       <r>   -30.1027     0.0000    42.0000 </r>
       <r>   -29.8961     0.0000    42.0000 </r>
       <r>   -29.6896     0.0000    42.0000 </r>
       <r>   -29.4830     0.0000    42.0000 </r>
       <r>   -29.2765     0.0000    42.0000 </r>
       <r>   -29.0699     0.0000    42.0000 </r>
       <r>   -28.8634     0.0000    42.0000 </r>
       <r>   -28.6568     0.0000    42.0000 </r>
       <r>   -28.4503     0.0000    42.0000 </r>
       <r>   -28.2437     0.0000    42.0000 </r>
       <r>   -28.0371     0.0000    42.0000 </r>
       <r>   -27.8306     0.0000    42.0000 </r>
       <r>   -27.6240     0.0000    42.0000 </r>
       <r>   -27.4175     0.0000    42.0000 </r>
       <r>   -27.2109     0.0000    42.0000 </r>
       <r>   -27.0044     0.0000    42.0000 </r>
       <r>   -26.7978     0.0000    42.0000 </r>
       <r>   -26.5913     0.0000    42.0000 </r>
       <r>   -26.3847     0.0000    42.0000 </r>
       <r>   -26.1782     0.0000    42.0000 </r>
       <r>   -25.9716     0.0000    42.0000 </r>
       <r>   -25.7651     0.0000    42.0000 </r>
       <r>   -25.5585     0.0000    42.0000 </r>
       <r>   -25.3520     0.0000    42.0000 </r>
       <r>   -25.1454     0.0000    42.0000 </r>
       <r>   -24.9389     0.0000    42.0000 </r>
       <r>   -24.7323     0.0000    42.0000 </r>
       <r>   -24.5258     0.0000    42.0000 </r>
       <r>   -24.3192     0.0000    42.0000 </r>
       <r>   -24.1127     0.0000    42.0000 </r>
       <r>   -23.9061    -0.0000    42.0000 </r>
       <r>   -23.6996    -0.0000    42.0000 </r>
       <r>   -23.4930    -0.0000    42.0000 </r>
       <r>   -23.2865    -0.0000    42.0000 </r>
       <r>   -23.0799    -0.0123    41.9975 </r>
       <r>   -22.8734    -1.0007    41.7908 </r>
       <r>   -22.6668    14.1099    44.7052 </r>
       <r>   -22.4603    59.1863    56.9302 </r>
       <r>   -22.2537   106.4441    78.9164 </r>
       <r>   -22.0472    70.3334    93.4438 </r>
       <r>   -21.8406    41.8545   102.0889 </r>
       <r>   -21.6341    -0.2651   102.0342 </r>
       <r>   -21.4275    -0.1654   102.0000 </r>
       <r>   -21.2210    -0.0001   102.0000 </r>
       <r>   -21.0144    -0.0000   102.0000 </r>
       <r>   -20.8078     0.0000   102.0000 </r>
       <r>   -20.6013     0.0000   102.0000 </r>
       <r>   -20.3947     0.0000   102.0000 </r>
       <r>   -20.1882     0.0000   102.0000 </r>
       <r>   -19.9816    -0.0000   102.0000 </r>
       <r>   -19.7751    -0.0000   102.0000 </r>
       <r>   -19.5685    -0.0000   102.0000 </r>
       <r>   -19.3620    -0.0000   102.0000 </r>
       <r>   -19.1554    -0.0022   101.9995 </r>
       <r>   -18.9489    -0.3709   101.9229 </r>
       <r>   -18.7423     3.2640   102.5971 </r>
       <r>   -18.5358    41.4475   111.1582 </r>
       <r>   -18.3292    77.8900   127.2464 </r>
       <r>   -18.1227   107.9021   149.5338 </r>
       <r>   -17.9161    82.7152   166.6187 </r>
       <r>   -17.7096     7.4568   168.1589 </r>
       <r>   -17.5030    -0.7637   168.0012 </r>
       <r>   -17.2965    -0.0056   168.0000 </r>
       <r>   -17.0899    -0.0000   168.0000 </r>
       <r>   -16.8834    -0.0000   168.0000 </r>
       <r>   -16.6768     0.0000   168.0000 </r>
       <r>   -16.4703     0.0000   168.0000 </r>
       <r>   -16.2637     0.0000   168.0000 </r>
       <r>   -16.0572     0.0000   168.0000 </r>
       <r>   -15.8506     0.0000   168.0000 </r>
       <r>   -15.6441     0.0000   168.0000 </r>
       <r>   -15.4375     0.0000   168.0000 </r>
       <r>   -15.2310     0.0000   168.0000 </r>
       <r>   -15.0244     0.0000   168.0000 </r>
       <r>   -14.8179     0.0000   168.0000 </r>
       <r>   -14.6113     0.0000   168.0000 </r>
       <r>   -14.4048     0.0000   168.0000 </r>
       <r>   -14.1982     0.0000   168.0000 </r>
       <r>   -13.9917     0.0000   168.0000 </r>
       <r>   -13.7851     0.0000   168.0000 </r>
       <r>   -13.5786     0.0000   168.0000 </r>
       <r>   -13.3720     0.0000   168.0000 </r>
       <r>   -13.1654     0.0000   168.0000 </r>
       <r>   -12.9589     0.0000   168.0000 </r>
       <r>   -12.7523     0.0000   168.0000 </r>
       <r>   -12.5458     0.0000   168.0000 </r>
       <r>   -12.3392     0.0000   168.0000 </r>
       <r>   -12.1327     0.0000   168.0000 </r>
       <r>   -11.9261     0.0000   168.0000 </r>
       <r>   -11.7196     0.0000   168.0000 </r>
       <r>   -11.5130     0.0000   168.0000 </r>
       <r>   -11.3065     0.0000   168.0000 </r>
       <r>   -11.0999     0.0000   168.0000 </r>
       <r>   -10.8934     0.0000   168.0000 </r>
       <r>   -10.6868     0.0000   168.0000 </r>
       <r>   -10.4803     0.0000   168.0000 </r>
       <r>   -10.2737     0.0000   168.0000 </r>
       <r>   -10.0672     0.0000   168.0000 </r>
       <r>    -9.8606     0.0000   168.0000 </r>
       <r>    -9.6541     0.0000   168.0000 </r>
       <r>    -9.4475     0.0000   168.0000 </r>
       <r>    -9.2410     0.0000   168.0000 </r>
       <r>    -9.0344     0.0000   168.0000 </r>
       <r>    -8.8279     0.0000   168.0000 </r>
       <r>    -8.6213     0.0000   168.0000 </r>
       <r>    -8.4148     0.0000   168.0000 </r>
       <r>    -8.2082     0.0000   168.0000 </r>
       <r>    -8.0017     0.0000   168.0000 </r>
       <r>    -7.7951     0.0000   168.0000 </r>
       <r>    -7.5886     0.0000   168.0000 </r>
       <r>    -7.3820     0.0000   168.0000 </r>
       <r>    -7.1755     0.0000   168.0000 </r>
       <r>    -6.9689     0.0000   168.0000 </r>
       <r>    -6.7624     0.0000   168.0000 </r>
       <r>    -6.5558     0.0000   168.0000 </r>
       <r>    -6.3493     0.0000   168.0000 </r>
       <r>    -6.1427     0.0000   168.0000 </r>
       <r>    -5.9361     0.0000   168.0000 </r>
       <r>    -5.7296     0.0000   168.0000 </r>
       <r>    -5.5230     0.0000   168.0000 </r>
       <r>    -5.3165     0.0000   168.0000 </r>
       <r>    -5.1099     0.0000   168.0000 </r>
       <r>    -4.9034     0.0000   168.0000 </r>
       <r>    -4.6968     0.0000   168.0000 </r>
       <r>    -4.4903     0.0000   168.0000 </r>
       <r>    -4.2837     0.0000   168.0000 </r>
       <r>    -4.0772     0.0000   168.0000 </r>
       <r>    -3.8706     0.0000   168.0000 </r>
       <r>    -3.6641     0.0000   168.0000 </r>
       <r>    -3.4575     0.0000   168.0000 </r>
       <r>    -3.2510     0.0000   168.0000 </r>
       <r>    -3.0444     0.0000   168.0000 </r>
       <r>    -2.8379     0.0000   168.0000 </r>
       <r>    -2.6313     0.0000   168.0000 </r>
       <r>    -2.4248     0.0000   168.0000 </r>
       <r>    -2.2182     0.0000   168.0000 </r>
       <r>    -2.0117     0.0000   168.0000 </r>
       <r>    -1.8051     0.0000   168.0000 </r>
       <r>    -1.5986     0.0000   168.0000 </r>
       <r>    -1.3920     0.0000   168.0000 </r>
       <r>    -1.1855     0.0000   168.0000 </r>
       <r>    -0.9789     0.0000   168.0000 </r>
       <r>    -0.7724     0.0000   168.0000 </r>
       <r>    -0.5658     0.0000   168.0000 </r>
       <r>    -0.3593     0.0000   168.0000 </r>
       <r>    -0.1527     0.0000   168.0000 </r>
       <r>     0.0538    -0.0000   168.0000 </r>
       <r>     0.2604    -0.0000   168.0000 </r>
       <r>     0.4669    -0.0000   168.0000 </r>
       <r>     0.6735    -0.0000   168.0000 </r>
       <r>     0.8800    -0.0000   168.0000 </r>
       <r>     1.0866    -0.0011   167.9998 </r>
       <r>     1.2932    -0.0094   167.9978 </r>
       <r>     1.4997     0.3260   168.0652 </r>
       <r>     1.7063     1.4475   168.3641 </r>
       <r>     1.9128     1.6909   168.7134 </r>
       <r>     2.1194     2.3990   169.2089 </r>
       <r>     2.3259     3.8940   170.0132 </r>
       <r>     2.5325     2.5209   170.5339 </r>
       <r>     2.7390     1.1989   170.7815 </r>
       <r>     2.9456     5.8849   171.9971 </r>
       <r>     3.1521     1.8185   172.3727 </r>
       <r>     3.3587     6.9750   173.8134 </r>
       <r>     3.5652     5.6128   174.9727 </r>
       <r>     3.7718     7.3686   176.4947 </r>
       <r>     3.9783     9.2148   178.3981 </r>
       <r>     4.1849     7.8382   180.0171 </r>
       <r>     4.3914    12.4779   182.5944 </r>
       <r>     4.5980    18.6393   186.4444 </r>
       <r>     4.8045    21.5986   190.9056 </r>
       <r>     5.0111    26.0235   196.2808 </r>
       <r>     5.2176    31.9543   202.8810 </r>
       <r>     5.4242    37.1450   210.5533 </r>
       <r>     5.6307    41.3732   219.0990 </r>
       <r>     5.8373    40.7825   227.5227 </r>
       <r>     6.0438    35.7575   234.9084 </r>
       <r>     6.2504    36.1082   242.3666 </r>
       <r>     6.4569    26.7306   247.8879 </r>
       <r>     6.6635    29.6520   254.0125 </r>
       <r>     6.8700    55.8230   265.5429 </r>
       <r>     7.0766    59.5493   277.8429 </r>
       <r>     7.2831    56.9373   289.6033 </r>
       <r>     7.4897    52.9194   300.5339 </r>
       <r>     7.6962    54.8187   311.8568 </r>
       <r>     7.9028    50.5739   322.3029 </r>
       <r>     8.1093    47.0746   332.0262 </r>
       <r>     8.3159    49.5983   342.2708 </r>
       <r>     8.5224    51.1102   352.8277 </r>
       <r>     8.7290    39.8801   361.0650 </r>
       <r>     8.9356    34.0032   368.0884 </r>
       <r>     9.1421    26.3885   373.5390 </r>
       <r>     9.3487    18.3902   377.3375 </r>
       <r>     9.5552    15.8183   380.6048 </r>
       <r>     9.7618    21.1502   384.9734 </r>
       <r>     9.9683    26.5378   390.4549 </r>
       <r>    10.1749     7.9308   392.0930 </r>
       <r>    10.3814    -0.4381   392.0025 </r>
       <r>    10.5880    -0.0120   392.0000 </r>
       <r>    10.7945    -0.0000   392.0000 </r>
       <r>    11.0011    -0.0000   392.0000 </r>
       <r>    11.2076     0.0000   392.0000 </r>
       <r>    11.4142     0.0000   392.0000 </r>
       <r>    11.6207     0.0000   392.0000 </r>
       <r>    11.8273     0.0000   392.0000 </r>
       <r>    12.0338     0.0000   392.0000 </r>
       <r>    12.2404     0.0000   392.0000 </r>
       <r>    12.4469     0.0000   392.0000 </r>
       <r>    12.6535     0.0000   392.0000 </r>
       <r>    12.8600     0.0000   392.0000 </r>
      </set>
     </set>
    </array>
   </total>
  </dos>
 </calculation>
 <structure name="finalpos" >
  <crystal>
   <varray name="basis" >
    <v>       6.99731841       0.01226759       0.02154761 </v>
    <v>       0.01799782      10.25801802       0.00256724 </v>
    <v>       0.03160897       0.00170184      10.26300578 </v>
   </varray>
   <i name="volume">    736.65509341 </i>
   <varray name="rec_basis" >
    <v>       0.14291368      -0.00025063      -0.00044012 </v>
    <v>      -0.00017086       0.09748502      -0.00001564 </v>
    <v>      -0.00030001      -0.00002386       0.09743827 </v>
   </varray>
  </crystal>
  <varray name="positions" >
   <v>       0.72758567       0.49865137       0.17459473 </v>
   <v>       0.53577251       0.66664656       0.00945819 </v>
   <v>       0.04208469      -0.00584489       0.67049863 </v>
   <v>       0.51494297       0.66837923       0.34067330 </v>
   <v>       0.76230819       0.50254063       0.49047248 </v>
   <v>       0.98314576       0.66740563       0.32692969 </v>
   <v>       0.22910313       0.16837393       0.48848441 </v>
   <v>       0.26589979       0.50619991       0.16727987 </v>
   <v>       0.00599907       0.33497618       0.00228559 </v>
   <v>       0.96933775       0.66146548       0.01307780 </v>
   <v>       0.25960507       0.82423861       0.16870879 </v>
   <v>       0.46991470       0.00126382       0.66238289 </v>
   <v>       0.76526751       0.83829017       0.50297652 </v>
   <v>       0.02717219       0.66020596       0.66052968 </v>
   <v>       0.25738550       0.81748825       0.85354354 </v>
   <v>       0.25438672       0.17067171       0.18344979 </v>
   <v>       0.99203735       0.00478258       0.00820003 </v>
   <v>       0.76652802       0.16358322       0.50139012 </v>
   <v>       0.76259157       0.17018061       0.82079727 </v>
   <v>       0.50503686       0.00528841       0.99543331 </v>
   <v>       0.72392138       0.17607866       0.17601488 </v>
   <v>       0.74461461       0.49230455       0.82898757 </v>
   <v>       0.48809920       0.66246001       0.65238805 </v>
   <v>       0.48483382       0.33172383       0.66330511 </v>
   <v>       0.76126346       0.83749369       0.81707932 </v>
   <v>       0.23633033       0.48996114       0.47870054 </v>
   <v>      -0.00620211       0.98497482       0.32141477 </v>
   <v>       0.49741550       0.98731584       0.34601435 </v>
   <v>       0.73866804       0.83217806       0.18390650 </v>
   <v>       0.51430535       0.34576973       0.34629817 </v>
   <v>       0.26238230       0.50225659       0.84740058 </v>
   <v>       0.97576750       0.34835254       0.31643443 </v>
   <v>       0.02092914       0.34304536       0.67984813 </v>
   <v>       0.24241247       0.83729879       0.48213592 </v>
   <v>       0.48141009       0.33161950       0.98840212 </v>
   <v>       0.23774389       0.17238355       0.83049692 </v>
  </varray>
 </structure>
</modeling>
