       N       E                     dE             d eps       ncg     rms          rms(c)
DAV:   1     0.194483745658E+04    0.19448E+04   -0.11330E+05  5584   0.104E+03
DAV:   2    -0.588097029885E+02   -0.20036E+04   -0.19215E+04  5632   0.378E+02
DAV:   3    -0.331633946626E+03   -0.27282E+03   -0.25817E+03  8840   0.103E+02
DAV:   4    -0.365546416875E+03   -0.33912E+02   -0.32406E+02  8672   0.317E+01
DAV:   5    -0.368958554501E+03   -0.34121E+01   -0.33572E+01  8040   0.100E+01    0.640E+01
RMM:   6    -0.359005915142E+03    0.99526E+01   -0.25243E+01  7413   0.983E+00    0.304E+01
RMM:   7    -0.361258926447E+03   -0.22530E+01   -0.28165E+01  7710   0.790E+00    0.122E+01
RMM:   8    -0.354765597082E+03    0.64933E+01   -0.70223E+00  7667   0.387E+00    0.418E+00
RMM:   9    -0.354466675520E+03    0.29892E+00   -0.26190E+00  7762   0.193E+00    0.291E+00
RMM:  10    -0.354439884034E+03    0.26791E-01   -0.48433E-01  7690   0.112E+00    0.157E+00
RMM:  11    -0.354413897485E+03    0.25987E-01   -0.15600E-01  7680   0.600E-01    0.828E-01
RMM:  12    -0.354408475628E+03    0.54219E-02   -0.61861E-02  7793   0.371E-01    0.424E-01
RMM:  13    -0.354406131381E+03    0.23442E-02   -0.17879E-02  7800   0.186E-01    0.240E-01
RMM:  14    -0.354406217612E+03   -0.86231E-04   -0.75054E-03  8042   0.104E-01    0.136E-01
RMM:  15    -0.354406435021E+03   -0.21741E-03   -0.35626E-03  7854   0.641E-02    0.689E-02
RMM:  16    -0.354406451519E+03   -0.16498E-04   -0.13398E-03  6759   0.367E-02    0.392E-02
RMM:  17    -0.354406450087E+03    0.14314E-05   -0.62220E-04  6308   0.276E-02    0.143E-02
RMM:  18    -0.354406468407E+03   -0.18320E-04   -0.27354E-04  5799   0.189E-02    0.899E-03
RMM:  19    -0.354406472500E+03   -0.40927E-05   -0.96230E-05  5026   0.132E-02
   1 F= -.35440647E+03 E0= -.35441455E+03  d E =-.354406E+03
       N       E                     dE             d eps       ncg     rms          rms(c)
DAV:   1    -0.354409849546E+03   -0.33811E-02   -0.10935E-01  6360   0.106E+00    0.420E-01
RMM:   2    -0.354408590920E+03    0.12586E-02   -0.10181E-02  7262   0.261E-01    0.126E-01
RMM:   3    -0.354408303868E+03    0.28705E-03   -0.24053E-03  7828   0.918E-02    0.829E-02
RMM:   4    -0.354408104883E+03    0.19899E-03   -0.58133E-04  7773   0.506E-02    0.540E-02
RMM:   5    -0.354408076748E+03    0.28135E-04   -0.19026E-04  6898   0.236E-02    0.411E-02
RMM:   6    -0.354408068374E+03    0.83738E-05   -0.70150E-05  5862   0.154E-02
   2 F= -.35440807E+03 E0= -.35441617E+03  d E =-.159587E-02
       N       E                     dE             d eps       ncg     rms          rms(c)
DAV:   1    -0.354420334913E+03   -0.12258E-01   -0.67051E-01  5936   0.263E+00    0.103E+00
RMM:   2    -0.354412265029E+03    0.80699E-02   -0.61033E-02  7113   0.644E-01    0.309E-01
RMM:   3    -0.354410460270E+03    0.18048E-02   -0.14392E-02  7803   0.224E-01    0.204E-01
RMM:   4    -0.354409268780E+03    0.11915E-02   -0.34217E-03  7834   0.124E-01    0.135E-01
RMM:   5    -0.354409130774E+03    0.13801E-03   -0.11155E-03  7818   0.567E-02    0.104E-01
RMM:   6    -0.354409138723E+03   -0.79491E-05   -0.43583E-04  7434   0.351E-02    0.608E-02
RMM:   7    -0.354409138784E+03   -0.61162E-07   -0.24903E-04  6672   0.254E-02    0.279E-02
RMM:   8    -0.354409145430E+03   -0.66458E-05   -0.10667E-04  5299   0.184E-02    0.221E-02
RMM:   9    -0.354409147517E+03   -0.20872E-05   -0.45657E-05  4430   0.137E-02
   3 F= -.35440915E+03 E0= -.35441730E+03  d E =-.267502E-02
       N       E                     dE             d eps       ncg     rms          rms(c)
DAV:   1    -0.354410132577E+03   -0.98715E-03   -0.78380E-02  5376   0.757E-01    0.830E-02
RMM:   2    -0.354410288015E+03   -0.15544E-03   -0.24336E-03  7579   0.137E-01    0.487E-02
RMM:   3    -0.354410238833E+03    0.49182E-04   -0.35401E-04  7125   0.388E-02    0.344E-02
RMM:   4    -0.354410227615E+03    0.11218E-04   -0.90277E-05  5599   0.150E-02    0.224E-02
RMM:   5    -0.354410224034E+03    0.35813E-05   -0.36102E-05  3995   0.102E-02
   4 F= -.35441022E+03 E0= -.35441839E+03  d E =-.107652E-02
       N       E                     dE             d eps       ncg     rms          rms(c)
DAV:   1    -0.354411637980E+03   -0.14104E-02   -0.70402E-01  5360   0.227E+00    0.240E-01
RMM:   2    -0.354413062706E+03   -0.14247E-02   -0.21045E-02  7547   0.406E-01    0.139E-01
RMM:   3    -0.354412589519E+03    0.47319E-03   -0.29167E-03  7648   0.110E-01    0.929E-02
RMM:   4    -0.354412506550E+03    0.82969E-04   -0.67660E-04  8464   0.381E-02    0.584E-02
RMM:   5    -0.354412495316E+03    0.11234E-04   -0.30000E-04  7552   0.276E-02    0.324E-02
RMM:   6    -0.354412493175E+03    0.21409E-05   -0.11227E-04  5704   0.178E-02    0.182E-02
RMM:   7    -0.354412496078E+03   -0.29027E-05   -0.41076E-05  4126   0.136E-02
   5 F= -.35441250E+03 E0= -.35442070E+03  d E =-.334856E-02
       N       E                     dE             d eps       ncg     rms          rms(c)
DAV:   1    -0.354409431416E+03    0.30618E-02   -0.28162E+00  5168   0.453E+00    0.480E-01
RMM:   2    -0.354415150376E+03   -0.57190E-02   -0.84098E-02  7537   0.810E-01    0.278E-01
RMM:   3    -0.354413128382E+03    0.20220E-02   -0.11366E-02  7641   0.220E-01    0.183E-01
RMM:   4    -0.354412796834E+03    0.33155E-03   -0.26571E-03  8685   0.755E-02    0.114E-01
RMM:   5    -0.354412750316E+03    0.46518E-04   -0.11683E-03  8221   0.548E-02    0.621E-02
RMM:   6    -0.354459913246E+03   -0.47163E-01   -0.47216E-01  8136   0.342E-02    0.734E-01
RMM:   7    -0.354413499297E+03    0.46414E-01   -0.10133E+00  5737   0.150E-01    0.349E-02
RMM:   8    -0.354411896773E+03    0.16025E-02   -0.11397E-02  5704   0.215E-02    0.227E-02
RMM:   9    -0.354412649169E+03   -0.75240E-03   -0.81912E-03  4664   0.151E-02    0.144E-02
RMM:  10    -0.354412692448E+03   -0.43279E-04   -0.13327E-03  3556   0.119E-02    0.802E-03
RMM:  11    -0.354412749377E+03   -0.56929E-04   -0.68083E-04  3290   0.112E-02    0.731E-03
RMM:  12    -0.354412760013E+03   -0.10636E-04   -0.17800E-04  3125   0.940E-03    0.626E-03
RMM:  13    -0.354412767618E+03   -0.76050E-05   -0.89944E-05  3113   0.881E-03
   6 F= -.35441277E+03 E0= -.35442103E+03  d E =-.362010E-02
       N       E                     dE             d eps       ncg     rms          rms(c)
DAV:   1    -0.354412680683E+03    0.79330E-04   -0.59240E-01  5312   0.208E+00    0.219E-01
RMM:   2    -0.354413865681E+03   -0.11850E-02   -0.17393E-02  7504   0.371E-01    0.127E-01
RMM:   3    -0.354413472409E+03    0.39327E-03   -0.23186E-03  7701   0.100E-01    0.854E-02
RMM:   4    -0.354413389548E+03    0.82861E-04   -0.49731E-04  8284   0.337E-02    0.536E-02
RMM:   5    -0.354413373925E+03    0.15623E-04   -0.22442E-04  7332   0.246E-02    0.294E-02
RMM:   6    -0.354413365089E+03    0.88362E-05   -0.84784E-05  5650   0.156E-02
   7 F= -.35441337E+03 E0= -.35442160E+03  d E =-.421757E-02
       N       E                     dE             d eps       ncg     rms          rms(c)
DAV:   1    -0.354417736517E+03   -0.43626E-02   -0.15230E-01  6464   0.131E+00    0.556E-01
RMM:   2    -0.354415248054E+03    0.24885E-02   -0.20020E-02  7619   0.347E-01    0.182E-01
RMM:   3    -0.354414599362E+03    0.64869E-03   -0.44309E-03  7895   0.114E-01    0.117E-01
RMM:   4    -0.354414212025E+03    0.38734E-03   -0.10666E-03  7806   0.703E-02    0.712E-02
RMM:   5    -0.354414154742E+03    0.57283E-04   -0.34369E-04  7735   0.334E-02    0.533E-02
RMM:   6    -0.354414178284E+03   -0.23542E-04   -0.12034E-04  6861   0.190E-02    0.320E-02
RMM:   7    -0.354414196223E+03   -0.17940E-04   -0.67413E-05  4696   0.139E-02    0.144E-02
RMM:   8    -0.354414205515E+03   -0.92913E-05   -0.30192E-05  3673   0.115E-02
   8 F= -.35441421E+03 E0= -.35442244E+03  d E =-.840426E-03
       N       E                     dE             d eps       ncg     rms          rms(c)
DAV:   1    -0.354414894544E+03   -0.69832E-03   -0.28678E-02  6472   0.572E-01    0.236E-01
RMM:   2    -0.354414413737E+03    0.48081E-03   -0.36447E-03  7498   0.151E-01    0.743E-02
RMM:   3    -0.354414298410E+03    0.11533E-03   -0.76392E-04  7846   0.477E-02    0.466E-02
RMM:   4    -0.354414241386E+03    0.57024E-04   -0.18387E-04  6755   0.299E-02    0.294E-02
RMM:   5    -0.354414237453E+03    0.39332E-05   -0.58148E-05  5247   0.153E-02
   9 F= -.35441424E+03 E0= -.35442246E+03  d E =-.872364E-03
       N       E                     dE             d eps       ncg     rms          rms(c)
DAV:   1    -0.354414653381E+03   -0.41199E-03   -0.64463E-02  5360   0.733E-01    0.798E-02
RMM:   2    -0.354414792006E+03   -0.13862E-03   -0.24157E-03  7590   0.136E-01    0.429E-02
RMM:   3    -0.354414774489E+03    0.17517E-04   -0.26463E-04  6938   0.364E-02    0.296E-02
RMM:   4    -0.354414770489E+03    0.39998E-05   -0.95193E-05  5798   0.159E-02
  10 F= -.35441477E+03 E0= -.35442301E+03  d E =-.533036E-03
       N       E                     dE             d eps       ncg     rms          rms(c)
DAV:   1    -0.354414597669E+03    0.17682E-03   -0.57820E-01  5168   0.219E+00    0.222E-01
RMM:   2    -0.354415792201E+03   -0.11945E-02   -0.21109E-02  7597   0.404E-01    0.115E-01
RMM:   3    -0.354415638441E+03    0.15376E-03   -0.22485E-03  7584   0.101E-01    0.803E-02
RMM:   4    -0.354415571887E+03    0.66554E-04   -0.66550E-04  8450   0.410E-02    0.525E-02
RMM:   5    -0.354415552071E+03    0.19816E-04   -0.27226E-04  7336   0.288E-02    0.277E-02
RMM:   6    -0.354415547326E+03    0.47447E-05   -0.10040E-04  5220   0.166E-02    0.170E-02
RMM:   7    -0.354415546099E+03    0.12271E-05   -0.48094E-05  4366   0.138E-02
  11 F= -.35441555E+03 E0= -.35442383E+03  d E =-.130865E-02
       N       E                     dE             d eps       ncg     rms          rms(c)
DAV:   1    -0.354415518103E+03    0.29223E-04   -0.28233E-02  5376   0.485E-01    0.485E-02
RMM:   2    -0.354415582447E+03   -0.64343E-04   -0.10833E-03  7580   0.896E-02    0.254E-02
RMM:   3    -0.354415572980E+03    0.94668E-05   -0.10757E-04  5231   0.234E-02    0.177E-02
RMM:   4    -0.354415572059E+03    0.92150E-06   -0.58604E-05  4822   0.128E-02
  12 F= -.35441557E+03 E0= -.35442387E+03  d E =-.133461E-02
       N       E                     dE             d eps       ncg     rms          rms(c)
DAV:   1    -0.354416081517E+03   -0.50854E-03   -0.11023E-01  5440   0.967E-01    0.168E-01
RMM:   2    -0.354416140793E+03   -0.59276E-04   -0.47910E-03  7540   0.188E-01    0.640E-02
RMM:   3    -0.354416079011E+03    0.61782E-04   -0.60674E-04  7550   0.528E-02    0.427E-02
RMM:   4    -0.354416038403E+03    0.40607E-04   -0.17505E-04  7262   0.226E-02    0.274E-02
RMM:   5    -0.354416030085E+03    0.83189E-05   -0.62917E-05  5225   0.138E-02
  13 F= -.35441603E+03 E0= -.35442434E+03  d E =-.458026E-03
       N       E                     dE             d eps       ncg     rms          rms(c)
DAV:   1    -0.354416836763E+03   -0.79836E-03   -0.82418E-01  5152   0.265E+00    0.457E-01
RMM:   2    -0.354417246959E+03   -0.41020E-03   -0.35506E-02  7534   0.509E-01    0.173E-01
RMM:   3    -0.354416772731E+03    0.47423E-03   -0.43799E-03  7529   0.142E-01    0.115E-01
RMM:   4    -0.354416493702E+03    0.27903E-03   -0.12199E-03  7789   0.600E-02    0.757E-02
RMM:   5    -0.354416443846E+03    0.49856E-04   -0.47350E-04  7899   0.350E-02    0.540E-02
RMM:   6    -0.354416430132E+03    0.13713E-04   -0.18758E-04  6895   0.226E-02    0.327E-02
RMM:   7    -0.354416421046E+03    0.90866E-05   -0.84519E-05  5267   0.166E-02
  14 F= -.35441642E+03 E0= -.35442477E+03  d E =-.848987E-03
       N       E                     dE             d eps       ncg     rms          rms(c)
DAV:   1    -0.354416585953E+03   -0.15582E-03   -0.18120E-02  5632   0.383E-01    0.557E-02
RMM:   2    -0.354416612004E+03   -0.26051E-04   -0.75491E-04  7609   0.743E-02    0.270E-02
RMM:   3    -0.354416605097E+03    0.69075E-05   -0.93536E-05  5218   0.219E-02
  15 F= -.35441661E+03 E0= -.35442495E+03  d E =-.184051E-03
       N       E                     dE             d eps       ncg     rms          rms(c)
DAV:   1    -0.354416896597E+03   -0.28459E-03   -0.16198E-01  5280   0.115E+00    0.151E-01
RMM:   2    -0.354417128766E+03   -0.23217E-03   -0.61908E-03  7605   0.212E-01    0.694E-02
RMM:   3    -0.354417074816E+03    0.53950E-04   -0.71920E-04  7581   0.545E-02    0.460E-02
RMM:   4    -0.354417053245E+03    0.21571E-04   -0.21659E-04  7274   0.233E-02    0.312E-02
RMM:   5    -0.354417047577E+03    0.56681E-05   -0.84718E-05  6033   0.159E-02
  16 F= -.35441705E+03 E0= -.35442540E+03  d E =-.626531E-03
       N       E                     dE             d eps       ncg     rms          rms(c)
DAV:   1    -0.354416794315E+03    0.25893E-03   -0.64832E-01  5152   0.230E+00    0.295E-01
RMM:   2    -0.354417776863E+03   -0.98255E-03   -0.24020E-02  7614   0.423E-01    0.134E-01
RMM:   3    -0.354417559556E+03    0.21731E-03   -0.26407E-03  7606   0.108E-01    0.897E-02
RMM:   4    -0.354417446906E+03    0.11265E-03   -0.74987E-04  8136   0.447E-02    0.583E-02
RMM:   5    -0.354417430235E+03    0.16671E-04   -0.31458E-04  7922   0.314E-02    0.366E-02
RMM:   6    -0.354417435229E+03   -0.49940E-05   -0.11844E-04  5993   0.185E-02    0.223E-02
RMM:   7    -0.354417442217E+03   -0.69880E-05   -0.49731E-05  4489   0.139E-02
  17 F= -.35441744E+03 E0= -.35442580E+03  d E =-.102117E-02
       N       E                     dE             d eps       ncg     rms          rms(c)
DAV:   1    -0.354417425907E+03    0.93223E-05   -0.13655E-02  5488   0.333E-01    0.419E-02
RMM:   2    -0.354417450295E+03   -0.24388E-04   -0.54086E-04  7462   0.620E-02    0.195E-02
RMM:   3    -0.354417447757E+03    0.25372E-05   -0.59665E-05  4372   0.174E-02
  18 F= -.35441745E+03 E0= -.35442581E+03  d E =-.102671E-02
       N       E                     dE             d eps       ncg     rms          rms(c)
DAV:   1    -0.354417691423E+03   -0.24113E-03   -0.11102E-02  5600   0.317E-01    0.880E-02
RMM:   2    -0.354417641779E+03    0.49643E-04   -0.70450E-04  7282   0.707E-02    0.288E-02
RMM:   3    -0.354417628182E+03    0.13597E-04   -0.11567E-04  6555   0.232E-02    0.186E-02
RMM:   4    -0.354417623597E+03    0.45858E-05   -0.30803E-05  3689   0.136E-02
  19 F= -.35441762E+03 E0= -.35442598E+03  d E =-.175839E-03
       N       E                     dE             d eps       ncg     rms          rms(c)
DAV:   1    -0.354418464223E+03   -0.83604E-03   -0.99866E-02  5440   0.955E-01    0.263E-01
RMM:   2    -0.354418063493E+03    0.40073E-03   -0.60703E-03  7265   0.209E-01    0.873E-02
RMM:   3    -0.354417949628E+03    0.11387E-03   -0.11175E-03  7754   0.701E-02    0.593E-02
RMM:   4    -0.354417866796E+03    0.82832E-04   -0.31631E-04  7804   0.329E-02    0.383E-02
RMM:   5    -0.354417863277E+03    0.35184E-05   -0.10341E-04  6678   0.185E-02    0.294E-02
RMM:   6    -0.354417873643E+03   -0.10365E-04   -0.40800E-05  4177   0.114E-02    0.172E-02
RMM:   7    -0.354417883440E+03   -0.97974E-05   -0.24750E-05  3483   0.116E-02
  20 F= -.35441788E+03 E0= -.35442623E+03  d E =-.435683E-03
       N       E                     dE             d eps       ncg     rms          rms(c)
DAV:   1    -0.354418167380E+03   -0.29374E-03   -0.16730E-02  5616   0.388E-01    0.103E-01
RMM:   2    -0.354418130857E+03    0.36524E-04   -0.10802E-03  7546   0.856E-02    0.376E-02
RMM:   3    -0.354418111351E+03    0.19505E-04   -0.19607E-04  6897   0.265E-02    0.270E-02
RMM:   4    -0.354418095631E+03    0.15720E-04   -0.60954E-05  5699   0.156E-02    0.171E-02
RMM:   5    -0.354418091223E+03    0.44079E-05   -0.16942E-05  3060   0.101E-02
  21 F= -.35441809E+03 E0= -.35442644E+03  d E =-.207783E-03
       N       E                     dE             d eps       ncg     rms          rms(c)
DAV:   1    -0.354418995370E+03   -0.89974E-03   -0.14910E-01  5280   0.116E+00    0.295E-01
RMM:   2    -0.354418604829E+03    0.39054E-03   -0.89924E-03  7439   0.248E-01    0.103E-01
RMM:   3    -0.354418419308E+03    0.18552E-03   -0.14487E-03  7710   0.764E-02    0.732E-02
RMM:   4    -0.354418290314E+03    0.12899E-03   -0.41663E-04  7716   0.371E-02    0.465E-02
RMM:   5    -0.354418267051E+03    0.23262E-04   -0.14847E-04  6809   0.218E-02    0.342E-02
RMM:   6    -0.354418260862E+03    0.61890E-05   -0.72804E-05  5424   0.140E-02
  22 F= -.35441826E+03 E0= -.35442661E+03  d E =-.377422E-03
       N       E                     dE             d eps       ncg     rms          rms(c)
DAV:   1    -0.354418285545E+03   -0.18493E-04   -0.34914E-03  5872   0.177E-01    0.502E-02
RMM:   2    -0.354418273115E+03    0.12430E-04   -0.22963E-04  7314   0.381E-02    0.196E-02
RMM:   3    -0.354418268291E+03    0.48235E-05   -0.40787E-05  4411   0.124E-02
  23 F= -.35441827E+03 E0= -.35442661E+03  d E =-.384851E-03
       N       E                     dE             d eps       ncg     rms          rms(c)
DAV:   1    -0.354418372317E+03   -0.99202E-04   -0.26878E-02  5280   0.493E-01    0.127E-01
RMM:   2    -0.354418280558E+03    0.91759E-04   -0.17109E-03  7524   0.108E-01    0.454E-02
RMM:   3    -0.354418243108E+03    0.37450E-04   -0.25526E-04  7194   0.319E-02    0.323E-02
RMM:   4    -0.354418222687E+03    0.20421E-04   -0.68313E-05  6291   0.170E-02    0.218E-02
RMM:   5    -0.354418219072E+03    0.36153E-05   -0.20316E-05  3135   0.101E-02
  24 F= -.35441822E+03 E0= -.35442656E+03  d E =-.335632E-03
       N       E                     dE             d eps       ncg     rms          rms(c)
DAV:   1    -0.354418317228E+03   -0.94541E-04   -0.10683E-02  5568   0.310E-01    0.840E-02
RMM:   2    -0.354418294109E+03    0.23119E-04   -0.65117E-04  7230   0.683E-02    0.292E-02
RMM:   3    -0.354418281593E+03    0.12515E-04   -0.97303E-05  6297   0.221E-02    0.201E-02
RMM:   4    -0.354418270773E+03    0.10821E-04   -0.22953E-05  3001   0.121E-02    0.125E-02
RMM:   5    -0.354418268272E+03    0.25009E-05   -0.82281E-06  2707   0.921E-03
  25 F= -.35441827E+03 E0= -.35442661E+03  d E =-.384832E-03
       N       E                     dE             d eps       ncg     rms          rms(c)
DAV:   1    -0.354418272476E+03   -0.17030E-05   -0.62215E-04  5408   0.744E-02    0.170E-02
RMM:   2    -0.354418271282E+03    0.11933E-05   -0.37877E-05  4834   0.157E-02
  26 F= -.35441827E+03 E0= -.35442662E+03  d E =-.387842E-03
       N       E                     dE             d eps       ncg     rms          rms(c)
DAV:   1    -0.354418307412E+03   -0.34937E-04   -0.33461E-03  5376   0.165E-01    0.194E-02
RMM:   2    -0.354418315050E+03   -0.76375E-05   -0.12879E-04  6691   0.306E-02    0.973E-03
RMM:   3    -0.354418311131E+03    0.39182E-05   -0.10896E-05  2827   0.100E-02
  27 F= -.35441831E+03 E0= -.35442666E+03  d E =-.398492E-04
       N       E                     dE             d eps       ncg     rms          rms(c)
DAV:   1    -0.354418368075E+03   -0.53025E-04   -0.29988E-02  5184   0.493E-01    0.549E-02
RMM:   2    -0.354418429122E+03   -0.61048E-04   -0.10484E-03  7539   0.896E-02    0.256E-02
RMM:   3    -0.354418420532E+03    0.85905E-05   -0.11941E-04  6102   0.230E-02    0.179E-02
RMM:   4    -0.354418416432E+03    0.40996E-05   -0.38708E-05  4311   0.121E-02
  28 F= -.35441842E+03 E0= -.35442677E+03  d E =-.145150E-03
       N       E                     dE             d eps       ncg     rms          rms(c)
DAV:   1    -0.354418309429E+03    0.11110E-03   -0.11965E-01  5168   0.988E-01    0.108E-01
RMM:   2    -0.354418560651E+03   -0.25122E-03   -0.41233E-03  7588   0.180E-01    0.509E-02
RMM:   3    -0.354418541781E+03    0.18870E-04   -0.49971E-04  7335   0.464E-02    0.358E-02
RMM:   4    -0.354418523873E+03    0.17908E-04   -0.14144E-04  6410   0.197E-02    0.219E-02
RMM:   5    -0.354418520018E+03    0.38554E-05   -0.52063E-05  4426   0.119E-02
  29 F= -.35441852E+03 E0= -.35442690E+03  d E =-.248736E-03
       N       E                     dE             d eps       ncg     rms          rms(c)
DAV:   1    -0.354418574609E+03   -0.50736E-04   -0.44705E-03  5864   0.197E-01    0.519E-02
RMM:   2    -0.354418561912E+03    0.12697E-04   -0.27844E-04  7588   0.413E-02    0.190E-02
RMM:   3    -0.354418558320E+03    0.35922E-05   -0.54698E-05  5707   0.134E-02
  30 F= -.35441856E+03 E0= -.35442693E+03  d E =-.383014E-04
       N       E                     dE             d eps       ncg     rms          rms(c)
DAV:   1    -0.354418782835E+03   -0.22092E-03   -0.39598E-02  5424   0.587E-01    0.140E-01
RMM:   2    -0.354418683605E+03    0.99230E-04   -0.21885E-03  7391   0.122E-01    0.490E-02
RMM:   3    -0.354418636117E+03    0.47488E-04   -0.31309E-04  7629   0.372E-02    0.304E-02
RMM:   4    -0.354418626213E+03    0.99046E-05   -0.10107E-04  6648   0.189E-02    0.206E-02
RMM:   5    -0.354418626315E+03   -0.10210E-06   -0.22796E-05  3354   0.105E-02
  31 F= -.35441863E+03 E0= -.35442700E+03  d E =-.106297E-03
       N       E                     dE             d eps       ncg     rms          rms(c)
DAV:   1    -0.354419097736E+03   -0.47152E-03   -0.15894E-01  5392   0.118E+00    0.278E-01
RMM:   2    -0.354418759000E+03    0.33874E-03   -0.84361E-03  7176   0.242E-01    0.954E-02
RMM:   3    -0.354418586282E+03    0.17272E-03   -0.12556E-03  7669   0.780E-02    0.609E-02
RMM:   4    -0.354418527257E+03    0.59026E-04   -0.39249E-04  7822   0.361E-02    0.412E-02
RMM:   5    -0.354418522075E+03    0.51822E-05   -0.11612E-04  6632   0.194E-02    0.312E-02
RMM:   6    -0.354418533818E+03   -0.11743E-04   -0.53482E-05  4685   0.122E-02    0.184E-02
RMM:   7    -0.354418543077E+03   -0.92593E-05   -0.24548E-05  3571   0.114E-02
  32 F= -.35441854E+03 E0= -.35442691E+03  d E =-.230589E-04
       N       E                     dE             d eps       ncg     rms          rms(c)
DAV:   1    -0.354418946727E+03   -0.41291E-03   -0.74343E-02  5504   0.805E-01    0.195E-01
RMM:   2    -0.354418805769E+03    0.14096E-03   -0.39664E-03  7047   0.164E-01    0.688E-02
RMM:   3    -0.354418716328E+03    0.89442E-04   -0.61126E-04  7559   0.550E-02    0.429E-02
RMM:   4    -0.354418678606E+03    0.37722E-04   -0.17783E-04  7284   0.254E-02    0.280E-02
RMM:   5    -0.354418667070E+03    0.11536E-04   -0.49979E-05  4763   0.141E-02    0.204E-02
RMM:   6    -0.354418660754E+03    0.63156E-05   -0.15811E-05  2888   0.976E-03
  33 F= -.35441866E+03 E0= -.35442703E+03  d E =-.140736E-03
       N       E                     dE             d eps       ncg     rms          rms(c)
DAV:   1    -0.354418665328E+03    0.17414E-05   -0.20969E-03  5376   0.136E-01    0.310E-02
RMM:   2    -0.354418661734E+03    0.35943E-05   -0.11596E-04  6812   0.273E-02    0.104E-02
RMM:   3    -0.354418657531E+03    0.42027E-05   -0.11927E-05  2749   0.914E-03
  34 F= -.35441866E+03 E0= -.35442703E+03  d E =-.137513E-03
       N       E                     dE             d eps       ncg     rms          rms(c)
DAV:   1    -0.354418677307E+03   -0.15573E-04   -0.53385E-03  5360   0.202E-01    0.156E-02
RMM:   2    -0.354418687773E+03   -0.10466E-04   -0.14670E-04  6125   0.346E-02    0.811E-03
RMM:   3    -0.354418684952E+03    0.28216E-05   -0.85872E-06  2684   0.118E-02
  35 F= -.35441868E+03 E0= -.35442706E+03  d E =-.274202E-04
       N       E                     dE             d eps       ncg     rms          rms(c)
DAV:   1    -0.354418672500E+03    0.15273E-04   -0.48154E-02  5168   0.602E-01    0.463E-02
RMM:   2    -0.354418767740E+03   -0.95240E-04   -0.13387E-03  7423   0.101E-01    0.255E-02
RMM:   3    -0.354418757901E+03    0.98387E-05   -0.13074E-04  5931   0.277E-02    0.194E-02
RMM:   4    -0.354418756139E+03    0.17620E-05   -0.50976E-05  4517   0.118E-02
  36 F= -.35441876E+03 E0= -.35442712E+03  d E =-.986077E-04
       N       E                     dE             d eps       ncg     rms          rms(c)
DAV:   1    -0.354418489571E+03    0.26833E-03   -0.19211E-01  5168   0.120E+00    0.902E-02
RMM:   2    -0.354418884938E+03   -0.39537E-03   -0.52989E-03  7474   0.204E-01    0.494E-02
RMM:   3    -0.354418864174E+03    0.20765E-04   -0.59991E-04  7208   0.552E-02    0.373E-02
RMM:   4    -0.354418855758E+03    0.84155E-05   -0.17146E-04  7028   0.197E-02    0.236E-02
RMM:   5    -0.354418855130E+03    0.62816E-06   -0.58680E-05  4832   0.134E-02
  37 F= -.35441886E+03 E0= -.35442720E+03  d E =-.197598E-03
       N       E                     dE             d eps       ncg     rms          rms(c)
DAV:   1    -0.354419219802E+03   -0.36404E-03   -0.15205E-02  6064   0.401E-01    0.156E-01
RMM:   2    -0.354419054441E+03    0.16536E-03   -0.15477E-03  7519   0.997E-02    0.487E-02
RMM:   3    -0.354419009652E+03    0.44790E-04   -0.34781E-04  7583   0.337E-02    0.339E-02
RMM:   4    -0.354418975640E+03    0.34011E-04   -0.87490E-05  6492   0.197E-02    0.202E-02
RMM:   5    -0.354418968312E+03    0.73287E-05   -0.22625E-05  3253   0.113E-02
  38 F= -.35441897E+03 E0= -.35442732E+03  d E =-.113182E-03
       N       E                     dE             d eps       ncg     rms          rms(c)
DAV:   1    -0.354419242133E+03   -0.26649E-03   -0.15346E-02  5960   0.408E-01    0.149E-01
RMM:   2    -0.354419071167E+03    0.17097E-03   -0.14802E-03  7360   0.998E-02    0.465E-02
RMM:   3    -0.354419021370E+03    0.49797E-04   -0.31288E-04  7507   0.327E-02    0.326E-02
RMM:   4    -0.354418990686E+03    0.30684E-04   -0.79032E-05  5654   0.197E-02    0.216E-02
RMM:   5    -0.354418984219E+03    0.64676E-05   -0.20617E-05  3084   0.121E-02
  39 F= -.35441898E+03 E0= -.35442734E+03  d E =-.129089E-03
       N       E                     dE             d eps       ncg     rms          rms(c)
DAV:   1    -0.354419012459E+03   -0.21772E-04   -0.55798E-03  5360   0.211E-01    0.246E-02
RMM:   2    -0.354419020832E+03   -0.83728E-05   -0.19731E-04  7561   0.394E-02    0.141E-02
RMM:   3    -0.354419017090E+03    0.37419E-05   -0.13496E-05  3416   0.126E-02
  40 F= -.35441902E+03 E0= -.35442737E+03  d E =-.328709E-04
       N       E                     dE             d eps       ncg     rms          rms(c)
DAV:   1    -0.354419013859E+03    0.69722E-05   -0.50195E-02  5168   0.632E-01    0.605E-02
RMM:   2    -0.354419103236E+03   -0.89377E-04   -0.16560E-03  7592   0.114E-01    0.324E-02
RMM:   3    -0.354419089714E+03    0.13522E-04   -0.20424E-04  6491   0.317E-02    0.219E-02
RMM:   4    -0.354419086239E+03    0.34751E-05   -0.91996E-05  5279   0.152E-02
  41 F= -.35441909E+03 E0= -.35442743E+03  d E =-.102020E-03
