       N       E                     dE             d eps       ncg     rms          rms(c)
DAV:   1     0.173514395226E+04    0.17351E+04   -0.10586E+05  5240   0.104E+03
DAV:   2    -0.849894291822E+02   -0.18201E+04   -0.17499E+04  5280   0.367E+02
DAV:   3    -0.338504946137E+03   -0.25352E+03   -0.24031E+03  8120   0.103E+02
DAV:   4    -0.370198677622E+03   -0.31694E+02   -0.30160E+02  8280   0.314E+01
DAV:   5    -0.373560346686E+03   -0.33617E+01   -0.32670E+01  7536   0.102E+01    0.652E+01
RMM:   6    -0.363172143228E+03    0.10388E+02   -0.25585E+01  6937   0.996E+00    0.307E+01
RMM:   7    -0.363102634029E+03    0.69509E-01   -0.25453E+01  7214   0.804E+00    0.986E+00
RMM:   8    -0.358988972594E+03    0.41137E+01   -0.59732E+00  7431   0.382E+00    0.407E+00
RMM:   9    -0.358763389308E+03    0.22558E+00   -0.22989E+00  7377   0.186E+00    0.273E+00
RMM:  10    -0.358725709789E+03    0.37680E-01   -0.45401E-01  7425   0.107E+00    0.153E+00
RMM:  11    -0.358702569092E+03    0.23141E-01   -0.14938E-01  7391   0.603E-01    0.720E-01
RMM:  12    -0.358699885496E+03    0.26836E-02   -0.70159E-02  7510   0.360E-01    0.412E-01
RMM:  13    -0.358698496124E+03    0.13894E-02   -0.23330E-02  7442   0.186E-01    0.234E-01
RMM:  14    -0.358699051557E+03   -0.55543E-03   -0.11254E-02  7562   0.106E-01    0.140E-01
RMM:  15    -0.358699446685E+03   -0.39513E-03   -0.52751E-03  7470   0.710E-02    0.589E-02
RMM:  16    -0.358699606588E+03   -0.15990E-03   -0.24298E-03  6650   0.438E-02    0.305E-02
RMM:  17    -0.358699680418E+03   -0.73830E-04   -0.11175E-03  5885   0.277E-02    0.166E-02
RMM:  18    -0.358699721298E+03   -0.40880E-04   -0.54311E-04  5718   0.208E-02    0.907E-03
RMM:  19    -0.358699743176E+03   -0.21878E-04   -0.26910E-04  4657   0.150E-02    0.521E-03
RMM:  20    -0.358699752163E+03   -0.89870E-05   -0.13312E-04  4329   0.121E-02    0.268E-03
RMM:  21    -0.358699756783E+03   -0.46195E-05   -0.69590E-05  3901   0.109E-02
   1 F= -.35869976E+03 E0= -.35870563E+03  d E =-.358700E+03
       N       E                     dE             d eps       ncg     rms          rms(c)
DAV:   1    -0.358769001698E+03   -0.69250E-01   -0.24296E+00  5816   0.509E+00    0.193E+00
RMM:   2    -0.358746952404E+03    0.22049E-01   -0.23380E-01  7171   0.125E+00    0.622E-01
RMM:   3    -0.358739793410E+03    0.71590E-02   -0.61451E-02  7486   0.452E-01    0.465E-01
RMM:   4    -0.358733476823E+03    0.63166E-02   -0.15039E-02  7515   0.266E-01    0.251E-01
RMM:   5    -0.358732960341E+03    0.51648E-03   -0.48932E-03  7509   0.124E-01    0.198E-01
RMM:   6    -0.358733095202E+03   -0.13486E-03   -0.17095E-03  7680   0.707E-02    0.120E-01
RMM:   7    -0.358733220154E+03   -0.12495E-03   -0.83591E-04  7192   0.495E-02    0.610E-02
RMM:   8    -0.358733285636E+03   -0.65482E-04   -0.38827E-04  6586   0.315E-02    0.425E-02
RMM:   9    -0.358733340167E+03   -0.54531E-04   -0.19549E-04  5491   0.238E-02    0.333E-02
RMM:  10    -0.358733384310E+03   -0.44143E-04   -0.92278E-05  5190   0.174E-02    0.175E-02
RMM:  11    -0.358733401521E+03   -0.17210E-04   -0.39953E-05  4171   0.141E-02    0.768E-03
RMM:  12    -0.358733408321E+03   -0.68009E-05   -0.24503E-05  3860   0.123E-02
   2 F= -.35873341E+03 E0= -.35873913E+03  d E =-.336515E-01
       N       E                     dE             d eps       ncg     rms          rms(c)
DAV:   1    -0.358878113963E+03   -0.14471E+00   -0.82171E+00  5400   0.938E+00    0.359E+00
RMM:   2    -0.358802469895E+03    0.75644E-01   -0.78619E-01  7109   0.229E+00    0.114E+00
RMM:   3    -0.358778400742E+03    0.24069E-01   -0.20577E-01  7480   0.831E-01    0.853E-01
RMM:   4    -0.358757118184E+03    0.21283E-01   -0.50454E-02  7507   0.486E-01    0.465E-01
RMM:   5    -0.358755434858E+03    0.16833E-02   -0.16755E-02  7546   0.227E-01    0.369E-01
RMM:   6    -0.358755821642E+03   -0.38678E-03   -0.57048E-03  7807   0.131E-01    0.222E-01
RMM:   7    -0.358756194512E+03   -0.37287E-03   -0.29418E-03  8133   0.906E-02    0.113E-01
RMM:   8    -0.358756394020E+03   -0.19951E-03   -0.13233E-03  7593   0.564E-02    0.801E-02
RMM:   9    -0.358756552892E+03   -0.15887E-03   -0.62523E-04  6921   0.395E-02    0.631E-02
RMM:  10    -0.358756680316E+03   -0.12742E-03   -0.28634E-04  6053   0.272E-02    0.342E-02
RMM:  11    -0.358756728357E+03   -0.48041E-04   -0.13599E-04  5420   0.213E-02    0.137E-02
RMM:  12    -0.358756745252E+03   -0.16895E-04   -0.82588E-05  5306   0.170E-02    0.662E-03
RMM:  13    -0.358756748806E+03   -0.35540E-05   -0.23567E-05  3879   0.129E-02
   3 F= -.35875675E+03 E0= -.35876213E+03  d E =-.569920E-01
       N       E                     dE             d eps       ncg     rms          rms(c)
DAV:   1    -0.358782173673E+03   -0.25428E-01   -0.28245E+00  4904   0.471E+00    0.680E-01
RMM:   2    -0.358789258015E+03   -0.70843E-02   -0.11280E-01  7218   0.886E-01    0.360E-01
RMM:   3    -0.358785075707E+03    0.41823E-02   -0.15909E-02  7352   0.250E-01    0.232E-01
RMM:   4    -0.358784403226E+03    0.67248E-03   -0.36057E-03  7403   0.103E-01    0.146E-01
RMM:   5    -0.358784218297E+03    0.18493E-03   -0.14814E-03  7520   0.645E-02    0.895E-02
RMM:   6    -0.358784194551E+03    0.23746E-04   -0.65008E-04  7545   0.436E-02    0.557E-02
RMM:   7    -0.358784175577E+03    0.18974E-04   -0.25933E-04  6489   0.245E-02    0.349E-02
RMM:   8    -0.358784173186E+03    0.23907E-05   -0.98746E-05  5135   0.167E-02
   4 F= -.35878417E+03 E0= -.35878951E+03  d E =-.274244E-01
       N       E                     dE             d eps       ncg     rms          rms(c)
DAV:   1    -0.358799899921E+03   -0.15724E-01   -0.25411E+01  4816   0.141E+01    0.201E+00
RMM:   2    -0.358862514675E+03   -0.62615E-01   -0.10177E+00  7208   0.266E+00    0.105E+00
RMM:   3    -0.358830147929E+03    0.32367E-01   -0.14694E-01  7458   0.770E-01    0.707E-01
RMM:   4    -0.358823730265E+03    0.64177E-02   -0.31825E-02  7428   0.306E-01    0.446E-01
RMM:   5    -0.358822165795E+03    0.15645E-02   -0.13532E-02  7471   0.196E-01    0.275E-01
RMM:   6    -0.358821967756E+03    0.19804E-03   -0.58719E-03  7559   0.132E-01    0.172E-01
RMM:   7    -0.358821864935E+03    0.10282E-03   -0.24456E-03  8105   0.735E-02    0.110E-01
RMM:   8    -0.358821907246E+03   -0.42311E-04   -0.11106E-03  7373   0.430E-02    0.630E-02
RMM:   9    -0.358821917604E+03   -0.10358E-04   -0.47119E-04  6863   0.332E-02    0.328E-02
RMM:  10    -0.358821926703E+03   -0.90989E-05   -0.19388E-04  5925   0.205E-02    0.202E-02
RMM:  11    -0.358821926659E+03    0.44347E-07   -0.83813E-05  5200   0.160E-02
   5 F= -.35882193E+03 E0= -.35882704E+03  d E =-.651779E-01
       N       E                     dE             d eps       ncg     rms          rms(c)
DAV:   1    -0.358821998369E+03   -0.71666E-04   -0.10746E-01  5272   0.915E-01    0.132E-01
RMM:   2    -0.358822267667E+03   -0.26930E-03   -0.42852E-03  7225   0.172E-01    0.674E-02
RMM:   3    -0.358822124361E+03    0.14331E-03   -0.63510E-04  7100   0.486E-02    0.433E-02
RMM:   4    -0.358822103543E+03    0.20818E-04   -0.16526E-04  6524   0.217E-02    0.266E-02
RMM:   5    -0.358822097784E+03    0.57591E-05   -0.67964E-05  4811   0.133E-02
   6 F= -.35882210E+03 E0= -.35882720E+03  d E =-.653490E-01
       N       E                     dE             d eps       ncg     rms          rms(c)
DAV:   1    -0.358829506612E+03   -0.74031E-02   -0.54124E-01  5264   0.223E+00    0.552E-01
RMM:   2    -0.358829263082E+03    0.24353E-03   -0.34784E-02  6979   0.482E-01    0.207E-01
RMM:   3    -0.358828286313E+03    0.97677E-03   -0.62204E-03  7418   0.155E-01    0.150E-01
RMM:   4    -0.358827730506E+03    0.55581E-03   -0.17378E-03  7505   0.779E-02    0.799E-02
RMM:   5    -0.358827658371E+03    0.72135E-04   -0.58502E-04  7322   0.470E-02    0.602E-02
RMM:   6    -0.358827651918E+03    0.64526E-05   -0.25027E-04  6838   0.259E-02    0.388E-02
RMM:   7    -0.358827645338E+03    0.65804E-05   -0.97590E-05  5733   0.192E-02
   7 F= -.35882765E+03 E0= -.35883269E+03  d E =-.554755E-02
       N       E                     dE             d eps       ncg     rms          rms(c)
DAV:   1    -0.358845437779E+03   -0.17786E-01   -0.36241E+00  5160   0.578E+00    0.142E+00
RMM:   2    -0.358843846301E+03    0.15915E-02   -0.23270E-01  6966   0.125E+00    0.538E-01
RMM:   3    -0.358837350629E+03    0.64957E-02   -0.42101E-02  7426   0.404E-01    0.389E-01
RMM:   4    -0.358833593222E+03    0.37574E-02   -0.11739E-02  7518   0.202E-01    0.207E-01
RMM:   5    -0.358833131897E+03    0.46133E-03   -0.39812E-03  7392   0.122E-01    0.155E-01
RMM:   6    -0.358833144274E+03   -0.12377E-04   -0.17080E-03  7814   0.669E-02    0.101E-01
RMM:   7    -0.358833157091E+03   -0.12816E-04   -0.70015E-04  7013   0.469E-02    0.538E-02
RMM:   8    -0.358833170460E+03   -0.13370E-04   -0.31967E-04  6334   0.277E-02    0.352E-02
RMM:   9    -0.358833184210E+03   -0.13749E-04   -0.16963E-04  5326   0.227E-02    0.252E-02
RMM:  10    -0.358833189006E+03   -0.47967E-05   -0.87100E-05  5113   0.167E-02
   8 F= -.35883319E+03 E0= -.35883813E+03  d E =-.110912E-01
       N       E                     dE             d eps       ncg     rms          rms(c)
DAV:   1    -0.358836448711E+03   -0.32645E-02   -0.23469E-01  5144   0.143E+00    0.270E-01
RMM:   2    -0.358836621967E+03   -0.17326E-03   -0.11707E-02  7216   0.289E-01    0.107E-01
RMM:   3    -0.358836504947E+03    0.11702E-03   -0.17712E-03  7373   0.825E-02    0.767E-02
RMM:   4    -0.358836389364E+03    0.11558E-03   -0.52900E-04  7505   0.400E-02    0.436E-02
RMM:   5    -0.358836384847E+03    0.45174E-05   -0.19454E-04  6752   0.248E-02    0.314E-02
RMM:   6    -0.358836388776E+03   -0.39299E-05   -0.73895E-05  4922   0.146E-02
   9 F= -.35883639E+03 E0= -.35884124E+03  d E =-.319977E-02
       N       E                     dE             d eps       ncg     rms          rms(c)
DAV:   1    -0.358843301200E+03   -0.69164E-02   -0.21068E+00  5048   0.428E+00    0.803E-01
RMM:   2    -0.358844748228E+03   -0.14470E-02   -0.10226E-01  7163   0.855E-01    0.308E-01
RMM:   3    -0.358843645510E+03    0.11027E-02   -0.14708E-02  7321   0.245E-01    0.220E-01
RMM:   4    -0.358842678640E+03    0.96687E-03   -0.43835E-03  7515   0.116E-01    0.126E-01
RMM:   5    -0.358842640889E+03    0.37751E-04   -0.16038E-03  7512   0.716E-02    0.931E-02
RMM:   6    -0.358842664428E+03   -0.23539E-04   -0.65073E-04  7316   0.417E-02    0.553E-02
RMM:   7    -0.358842698959E+03   -0.34531E-04   -0.27783E-04  6444   0.284E-02    0.315E-02
RMM:   8    -0.358842717349E+03   -0.18389E-04   -0.11244E-04  5387   0.186E-02    0.191E-02
RMM:   9    -0.358842729808E+03   -0.12459E-04   -0.65718E-05  4632   0.148E-02    0.138E-02
RMM:  10    -0.358842738720E+03   -0.89117E-05   -0.22924E-05  3693   0.118E-02
  10 F= -.35884274E+03 E0= -.35884737E+03  d E =-.954971E-02
       N       E                     dE             d eps       ncg     rms          rms(c)
DAV:   1    -0.358842784203E+03   -0.54395E-04   -0.84344E+00  5040   0.857E+00    0.163E+00
RMM:   2    -0.358848408360E+03   -0.56242E-02   -0.40864E-01  7156   0.171E+00    0.617E-01
RMM:   3    -0.358844070433E+03    0.43379E-02   -0.58871E-02  7333   0.490E-01    0.437E-01
RMM:   4    -0.358840153750E+03    0.39167E-02   -0.17438E-02  7515   0.232E-01    0.248E-01
RMM:   5    -0.358839986698E+03    0.16705E-03   -0.62460E-03  7570   0.142E-01    0.183E-01
RMM:   6    -0.358840027691E+03   -0.40992E-04   -0.24866E-03  8000   0.819E-02    0.109E-01
RMM:   7    -0.358840133743E+03   -0.10605E-03   -0.10902E-03  7552   0.543E-02    0.616E-02
RMM:   8    -0.358840187673E+03   -0.53930E-04   -0.45789E-04  6896   0.320E-02    0.385E-02
RMM:   9    -0.358840222176E+03   -0.34503E-04   -0.20589E-04  5613   0.239E-02    0.297E-02
RMM:  10    -0.358840249890E+03   -0.27714E-04   -0.10662E-04  5362   0.180E-02    0.162E-02
RMM:  11    -0.358840261580E+03   -0.11690E-04   -0.42036E-05  4295   0.138E-02    0.725E-03
RMM:  12    -0.358840266212E+03   -0.46315E-05   -0.25367E-05  3702   0.115E-02
  11 F= -.35884027E+03 E0= -.35884451E+03  d E =-.707721E-02
       N       E                     dE             d eps       ncg     rms          rms(c)
DAV:   1    -0.358844779138E+03   -0.45176E-02   -0.33338E+00  4936   0.540E+00    0.100E+00
RMM:   2    -0.358847971807E+03   -0.31927E-02   -0.16272E-01  7105   0.108E+00    0.387E-01
RMM:   3    -0.358846102402E+03    0.18694E-02   -0.22637E-02  7283   0.309E-01    0.281E-01
RMM:   4    -0.358844453525E+03    0.16489E-02   -0.62331E-03  7450   0.141E-01    0.164E-01
RMM:   5    -0.358844283412E+03    0.17011E-03   -0.23191E-03  7432   0.844E-02    0.119E-01
RMM:   6    -0.358844220652E+03    0.62760E-04   -0.92169E-04  7669   0.516E-02    0.681E-02
RMM:   7    -0.358844216386E+03    0.42662E-05   -0.43286E-04  6910   0.343E-02    0.373E-02
RMM:   8    -0.358844212115E+03    0.42714E-05   -0.15758E-04  6099   0.209E-02    0.232E-02
RMM:   9    -0.358844215013E+03   -0.28984E-05   -0.81376E-05  4532   0.160E-02
  12 F= -.35884422E+03 E0= -.35884869E+03  d E =-.110260E-01
       N       E                     dE             d eps       ncg     rms          rms(c)
DAV:   1    -0.358845960944E+03   -0.17488E-02   -0.17626E-01  4912   0.123E+00    0.906E-02
RMM:   2    -0.358846458576E+03   -0.49763E-03   -0.61682E-03  6926   0.224E-01    0.531E-02
RMM:   3    -0.358846382375E+03    0.76201E-04   -0.65875E-04  7083   0.617E-02    0.392E-02
RMM:   4    -0.358846370990E+03    0.11385E-04   -0.15662E-04  6265   0.198E-02    0.259E-02
RMM:   5    -0.358846366562E+03    0.44280E-05   -0.52508E-05  4386   0.123E-02
  13 F= -.35884637E+03 E0= -.35885077E+03  d E =-.215155E-02
       N       E                     dE             d eps       ncg     rms          rms(c)
DAV:   1    -0.358847935452E+03   -0.15645E-02   -0.15863E+00  4816   0.368E+00    0.268E-01
RMM:   2    -0.358852484101E+03   -0.45486E-02   -0.55674E-02  6975   0.669E-01    0.158E-01
RMM:   3    -0.358851872634E+03    0.61147E-03   -0.63418E-03  7238   0.183E-01    0.115E-01
RMM:   4    -0.358851797056E+03    0.75577E-04   -0.15126E-03  8366   0.595E-02    0.750E-02
RMM:   5    -0.358851785675E+03    0.11381E-04   -0.61950E-04  7528   0.404E-02    0.417E-02
RMM:   6    -0.358851785583E+03    0.92470E-07   -0.25610E-04  6766   0.276E-02    0.206E-02
RMM:   7    -0.358851782532E+03    0.30511E-05   -0.75058E-05  4737   0.150E-02
  14 F= -.35885178E+03 E0= -.35885595E+03  d E =-.756752E-02
       N       E                     dE             d eps       ncg     rms          rms(c)
DAV:   1    -0.358842581270E+03    0.92043E-02   -0.63544E+00  4816   0.737E+00    0.539E-01
RMM:   2    -0.358860705126E+03   -0.18124E-01   -0.22312E-01  6948   0.134E+00    0.313E-01
RMM:   3    -0.358858259428E+03    0.24457E-02   -0.25259E-02  7240   0.368E-01    0.229E-01
RMM:   4    -0.358857930659E+03    0.32877E-03   -0.60182E-03  8404   0.119E-01    0.149E-01
RMM:   5    -0.358857872734E+03    0.57925E-04   -0.24560E-03  7900   0.810E-02    0.833E-02
RMM:   6    -0.358857879450E+03   -0.67156E-05   -0.10305E-03  8048   0.548E-02    0.421E-02
RMM:   7    -0.358857870437E+03    0.90128E-05   -0.37423E-04  6687   0.278E-02    0.243E-02
RMM:   8    -0.358857882554E+03   -0.12117E-04   -0.17621E-04  5427   0.200E-02    0.155E-02
RMM:   9    -0.358857889055E+03   -0.65010E-05   -0.71510E-05  4601   0.152E-02
  15 F= -.35885789E+03 E0= -.35886165E+03  d E =-.136740E-01
       N       E                     dE             d eps       ncg     rms          rms(c)
DAV:   1    -0.358855811861E+03    0.20707E-02   -0.11241E+00  4824   0.310E+00    0.226E-01
RMM:   2    -0.358859038868E+03   -0.32270E-02   -0.39574E-02  6988   0.564E-01    0.133E-01
RMM:   3    -0.358858620255E+03    0.41861E-03   -0.45918E-03  7242   0.154E-01    0.970E-02
RMM:   4    -0.358858567820E+03    0.52435E-04   -0.11092E-03  8375   0.508E-02    0.638E-02
RMM:   5    -0.358858559864E+03    0.79556E-05   -0.45364E-04  7272   0.346E-02    0.352E-02
RMM:   6    -0.358858562308E+03   -0.24440E-05   -0.19316E-04  6496   0.238E-02    0.177E-02
RMM:   7    -0.358858559910E+03    0.23988E-05   -0.55399E-05  4402   0.138E-02
  16 F= -.35885856E+03 E0= -.35886216E+03  d E =-.143449E-01
       N       E                     dE             d eps       ncg     rms          rms(c)
DAV:   1    -0.358867236201E+03   -0.86739E-02   -0.14742E+00  5152   0.377E+00    0.959E-01
RMM:   2    -0.358865406777E+03    0.18294E-02   -0.97383E-02  6993   0.825E-01    0.353E-01
RMM:   3    -0.358863260559E+03    0.21462E-02   -0.18538E-02  7404   0.270E-01    0.260E-01
RMM:   4    -0.358861394588E+03    0.18660E-02   -0.50170E-03  7519   0.136E-01    0.136E-01
RMM:   5    -0.358861217594E+03    0.17699E-03   -0.17359E-03  7416   0.791E-02    0.104E-01
RMM:   6    -0.358861197693E+03    0.19901E-04   -0.72132E-04  7513   0.455E-02    0.658E-02
RMM:   7    -0.358861189214E+03    0.84788E-05   -0.29675E-04  6556   0.314E-02    0.327E-02
RMM:   8    -0.358861189144E+03    0.70788E-07   -0.12595E-04  5335   0.193E-02    0.217E-02
RMM:   9    -0.358861191491E+03   -0.23472E-05   -0.74863E-05  4853   0.165E-02
  17 F= -.35886119E+03 E0= -.35886464E+03  d E =-.263158E-02
       N       E                     dE             d eps       ncg     rms          rms(c)
DAV:   1    -0.358861603711E+03   -0.41457E-03   -0.10285E-01  5232   0.997E-01    0.248E-01
RMM:   2    -0.358861506366E+03    0.97345E-04   -0.66787E-03  6981   0.217E-01    0.895E-02
RMM:   3    -0.358861354900E+03    0.15147E-03   -0.12103E-03  7380   0.692E-02    0.655E-02
RMM:   4    -0.358861234664E+03    0.12024E-03   -0.34363E-04  7451   0.351E-02    0.348E-02
RMM:   5    -0.358861222986E+03    0.11678E-04   -0.12301E-04  6528   0.208E-02    0.272E-02
RMM:   6    -0.358861218514E+03    0.44715E-05   -0.42764E-05  3933   0.122E-02
  18 F= -.35886122E+03 E0= -.35886464E+03  d E =-.265860E-02
       N       E                     dE             d eps       ncg     rms          rms(c)
DAV:   1    -0.358862120288E+03   -0.89730E-03   -0.51047E-01  4848   0.210E+00    0.214E-01
RMM:   2    -0.358863333314E+03   -0.12130E-02   -0.19288E-02  7287   0.397E-01    0.109E-01
RMM:   3    -0.358863229491E+03    0.10382E-03   -0.22995E-03  7277   0.102E-01    0.775E-02
RMM:   4    -0.358863177295E+03    0.52196E-04   -0.63287E-04  7858   0.415E-02    0.489E-02
RMM:   5    -0.358863168031E+03    0.92649E-05   -0.26713E-04  6700   0.264E-02    0.295E-02
RMM:   6    -0.358863161668E+03    0.63625E-05   -0.97628E-05  5847   0.172E-02
  19 F= -.35886316E+03 E0= -.35886644E+03  d E =-.194315E-02
       N       E                     dE             d eps       ncg     rms          rms(c)
DAV:   1    -0.358856471770E+03    0.66963E-02   -0.45956E+00  4816   0.630E+00    0.630E-01
RMM:   2    -0.358867230803E+03   -0.10759E-01   -0.17169E-01  7281   0.119E+00    0.315E-01
RMM:   3    -0.358866195742E+03    0.10351E-02   -0.19693E-02  7256   0.302E-01    0.224E-01
RMM:   4    -0.358865760290E+03    0.43545E-03   -0.54263E-03  8000   0.123E-01    0.141E-01
RMM:   5    -0.358865690888E+03    0.69402E-04   -0.23604E-03  7860   0.776E-02    0.880E-02
RMM:   6    -0.358865647826E+03    0.43062E-04   -0.87689E-04  8051   0.499E-02    0.459E-02
RMM:   7    -0.358865672227E+03   -0.24401E-04   -0.32366E-04  6270   0.260E-02    0.302E-02
RMM:   8    -0.358865684696E+03   -0.12469E-04   -0.17087E-04  5605   0.209E-02    0.168E-02
RMM:   9    -0.358865692762E+03   -0.80659E-05   -0.64618E-05  5072   0.156E-02
  20 F= -.35886569E+03 E0= -.35886861E+03  d E =-.447425E-02
       N       E                     dE             d eps       ncg     rms          rms(c)
DAV:   1    -0.358867674215E+03   -0.19895E-02   -0.20953E-01  5032   0.136E+00    0.327E-01
RMM:   2    -0.358867554081E+03    0.12013E-03   -0.12341E-02  7188   0.287E-01    0.125E-01
RMM:   3    -0.358867253254E+03    0.30083E-03   -0.21938E-03  7357   0.857E-02    0.918E-02
RMM:   4    -0.358867040657E+03    0.21260E-03   -0.59798E-04  7418   0.463E-02    0.495E-02
RMM:   5    -0.358867021500E+03    0.19157E-04   -0.20944E-04  6842   0.275E-02    0.371E-02
RMM:   6    -0.358867030119E+03   -0.86194E-05   -0.87856E-05  5771   0.158E-02
  21 F= -.35886703E+03 E0= -.35886997E+03  d E =-.133736E-02
       N       E                     dE             d eps       ncg     rms          rms(c)
DAV:   1    -0.358871597619E+03   -0.45761E-02   -0.11014E+00  4928   0.313E+00    0.750E-01
RMM:   2    -0.358870847151E+03    0.75047E-03   -0.65279E-02  7215   0.662E-01    0.288E-01
RMM:   3    -0.358869209307E+03    0.16378E-02   -0.11557E-02  7373   0.197E-01    0.213E-01
RMM:   4    -0.358868083286E+03    0.11260E-02   -0.31628E-03  7442   0.107E-01    0.118E-01
RMM:   5    -0.358867963086E+03    0.12020E-03   -0.11261E-03  7435   0.639E-02    0.885E-02
RMM:   6    -0.358867990582E+03   -0.27496E-04   -0.48243E-04  7090   0.360E-02    0.575E-02
RMM:   7    -0.358868011844E+03   -0.21262E-04   -0.21901E-04  6426   0.265E-02    0.305E-02
RMM:   8    -0.358868029680E+03   -0.17835E-04   -0.97484E-05  5025   0.174E-02    0.191E-02
RMM:   9    -0.358868042321E+03   -0.12642E-04   -0.58019E-05  4434   0.146E-02    0.135E-02
RMM:  10    -0.358868052263E+03   -0.99414E-05   -0.26371E-05  3694   0.126E-02
  22 F= -.35886805E+03 E0= -.35887105E+03  d E =-.235950E-02
       N       E                     dE             d eps       ncg     rms          rms(c)
DAV:   1    -0.358868612303E+03   -0.56998E-03   -0.59577E-02  4960   0.686E-01    0.885E-02
RMM:   2    -0.358868746347E+03   -0.13404E-03   -0.23208E-03  7260   0.132E-01    0.432E-02
RMM:   3    -0.358868732663E+03    0.13684E-04   -0.31188E-04  6544   0.339E-02    0.296E-02
RMM:   4    -0.358868723630E+03    0.90337E-05   -0.98377E-05  5486   0.167E-02
  23 F= -.35886872E+03 E0= -.35887177E+03  d E =-.671367E-03
       N       E                     dE             d eps       ncg     rms          rms(c)
DAV:   1    -0.358869258129E+03   -0.52547E-03   -0.53405E-01  4816   0.206E+00    0.258E-01
RMM:   2    -0.358870389104E+03   -0.11310E-02   -0.20030E-02  7268   0.390E-01    0.127E-01
RMM:   3    -0.358870275535E+03    0.11357E-03   -0.25577E-03  7305   0.962E-02    0.863E-02
RMM:   4    -0.358870182977E+03    0.92559E-04   -0.71246E-04  7396   0.419E-02    0.570E-02
RMM:   5    -0.358870170789E+03    0.12187E-04   -0.32576E-04  7011   0.293E-02    0.361E-02
RMM:   6    -0.358870153959E+03    0.16830E-04   -0.12602E-04  6423   0.185E-02    0.211E-02
RMM:   7    -0.358870150827E+03    0.31323E-05   -0.36314E-05  3757   0.120E-02
  24 F= -.35887015E+03 E0= -.35887333E+03  d E =-.209856E-02
       N       E                     dE             d eps       ncg     rms          rms(c)
DAV:   1    -0.358867067493E+03    0.30865E-02   -0.21392E+00  4816   0.412E+00    0.516E-01
RMM:   2    -0.358871635134E+03   -0.45676E-02   -0.80228E-02  7264   0.780E-01    0.249E-01
RMM:   3    -0.358871107180E+03    0.52795E-03   -0.98134E-03  7328   0.191E-01    0.165E-01
RMM:   4    -0.358870781261E+03    0.32592E-03   -0.27088E-03  7430   0.824E-02    0.108E-01
RMM:   5    -0.358870746511E+03    0.34750E-04   -0.12143E-03  7532   0.554E-02    0.694E-02
RMM:   6    -0.358870690868E+03    0.55642E-04   -0.47293E-04  7189   0.348E-02    0.410E-02
RMM:   7    -0.358870688382E+03    0.24860E-05   -0.16584E-04  5274   0.196E-02    0.251E-02
RMM:   8    -0.358870687753E+03    0.62872E-06   -0.94592E-05  4652   0.166E-02
  25 F= -.35887069E+03 E0= -.35887415E+03  d E =-.263549E-02
       N       E                     dE             d eps       ncg     rms          rms(c)
DAV:   1    -0.358870524729E+03    0.16365E-03   -0.22068E-01  4840   0.133E+00    0.169E-01
RMM:   2    -0.358870964387E+03   -0.43966E-03   -0.81934E-03  7210   0.251E-01    0.790E-02
RMM:   3    -0.358870896588E+03    0.67799E-04   -0.93191E-04  7286   0.625E-02    0.544E-02
RMM:   4    -0.358870854095E+03    0.42493E-04   -0.23713E-04  6965   0.261E-02    0.349E-02
RMM:   5    -0.358870848730E+03    0.53655E-05   -0.10206E-04  6230   0.170E-02    0.224E-02
RMM:   6    -0.358870843987E+03    0.47426E-05   -0.30628E-05  3648   0.113E-02
  26 F= -.35887084E+03 E0= -.35887421E+03  d E =-.279172E-02
       N       E                     dE             d eps       ncg     rms          rms(c)
DAV:   1    -0.358871664657E+03   -0.81593E-03   -0.46026E-02  4928   0.653E-01    0.158E-01
RMM:   2    -0.358871653315E+03    0.11342E-04   -0.30580E-03  7122   0.143E-01    0.595E-02
RMM:   3    -0.358871603987E+03    0.49328E-04   -0.54593E-04  7290   0.457E-02    0.460E-02
RMM:   4    -0.358871544743E+03    0.59244E-04   -0.13563E-04  6595   0.228E-02    0.242E-02
RMM:   5    -0.358871536520E+03    0.82234E-05   -0.47741E-05  4259   0.126E-02
  27 F= -.35887154E+03 E0= -.35887491E+03  d E =-.692533E-03
       N       E                     dE             d eps       ncg     rms          rms(c)
DAV:   1    -0.358873943498E+03   -0.23988E-02   -0.41302E-01  4816   0.196E+00    0.460E-01
RMM:   2    -0.358873772125E+03    0.17137E-03   -0.27177E-02  7139   0.424E-01    0.176E-01
RMM:   3    -0.358873255690E+03    0.51644E-03   -0.47085E-03  7357   0.131E-01    0.136E-01
RMM:   4    -0.358872767674E+03    0.48802E-03   -0.12345E-03  7321   0.674E-02    0.741E-02
RMM:   5    -0.358872710745E+03    0.56929E-04   -0.51375E-04  7484   0.378E-02    0.553E-02
RMM:   6    -0.358872697734E+03    0.13011E-04   -0.19567E-04  6613   0.242E-02    0.353E-02
RMM:   7    -0.358872688261E+03    0.94730E-05   -0.91576E-05  5277   0.169E-02
  28 F= -.35887269E+03 E0= -.35887609E+03  d E =-.184427E-02
       N       E                     dE             d eps       ncg     rms          rms(c)
DAV:   1    -0.358876007202E+03   -0.33095E-02   -0.16547E+00  4816   0.391E+00    0.920E-01
RMM:   2    -0.358875258639E+03    0.74856E-03   -0.10787E-01  7108   0.846E-01    0.351E-01
RMM:   3    -0.358873298560E+03    0.19601E-02   -0.18684E-02  7407   0.264E-01    0.270E-01
RMM:   4    -0.358871353082E+03    0.19455E-02   -0.48950E-03  7309   0.133E-01    0.145E-01
RMM:   5    -0.358871134389E+03    0.21869E-03   -0.20132E-03  7512   0.753E-02    0.107E-01
RMM:   6    -0.358871106480E+03    0.27909E-04   -0.78019E-04  7535   0.475E-02    0.693E-02
RMM:   7    -0.358871089367E+03    0.17113E-04   -0.37975E-04  6736   0.310E-02    0.346E-02
RMM:   8    -0.358871087365E+03    0.20024E-05   -0.13342E-04  5407   0.209E-02    0.225E-02
RMM:   9    -0.358871091625E+03   -0.42598E-05   -0.97811E-05  5198   0.173E-02
  29 F= -.35887109E+03 E0= -.35887451E+03  d E =-.247638E-03
       N       E                     dE             d eps       ncg     rms          rms(c)
DAV:   1    -0.358875785906E+03   -0.46985E-02   -0.95990E-01  4816   0.297E+00    0.713E-01
RMM:   2    -0.358875275983E+03    0.50992E-03   -0.63556E-02  7149   0.648E-01    0.274E-01
RMM:   3    -0.358874049926E+03    0.12261E-02   -0.10802E-02  7351   0.199E-01    0.210E-01
RMM:   4    -0.358872887026E+03    0.11629E-02   -0.27687E-03  7325   0.102E-01    0.113E-01
RMM:   5    -0.358872743748E+03    0.14328E-03   -0.11087E-03  7534   0.575E-02    0.825E-02
RMM:   6    -0.358872734751E+03    0.89969E-05   -0.41415E-04  7124   0.360E-02    0.525E-02
RMM:   7    -0.358872739602E+03   -0.48510E-05   -0.19484E-04  6483   0.236E-02    0.251E-02
RMM:   8    -0.358872746686E+03   -0.70834E-05   -0.69440E-05  4761   0.162E-02
  30 F= -.35887275E+03 E0= -.35887615E+03  d E =-.190270E-02
       N       E                     dE             d eps       ncg     rms          rms(c)
DAV:   1    -0.358873178319E+03   -0.43872E-03   -0.37214E-02  4912   0.566E-01    0.934E-02
RMM:   2    -0.358873225400E+03   -0.47081E-04   -0.18856E-03  7165   0.114E-01    0.373E-02
RMM:   3    -0.358873209100E+03    0.16300E-04   -0.19247E-04  6481   0.299E-02    0.271E-02
RMM:   4    -0.358873197499E+03    0.11601E-04   -0.53201E-05  4846   0.155E-02    0.169E-02
RMM:   5    -0.358873198893E+03   -0.13937E-05   -0.17451E-05  2666   0.108E-02
  31 F= -.35887320E+03 E0= -.35887659E+03  d E =-.452207E-03
       N       E                     dE             d eps       ncg     rms          rms(c)
DAV:   1    -0.358873857571E+03   -0.66007E-03   -0.33493E-01  4832   0.170E+00    0.294E-01
RMM:   2    -0.358874275532E+03   -0.41796E-03   -0.17843E-02  7293   0.345E-01    0.125E-01
RMM:   3    -0.358874119032E+03    0.15650E-03   -0.22795E-03  7259   0.895E-02    0.886E-02
RMM:   4    -0.358873969047E+03    0.14999E-03   -0.68316E-04  7296   0.462E-02    0.528E-02
RMM:   5    -0.358873961875E+03    0.71715E-05   -0.28727E-04  6699   0.266E-02    0.381E-02
RMM:   6    -0.358873963165E+03   -0.12900E-05   -0.10593E-04  6073   0.184E-02    0.223E-02
RMM:   7    -0.358873969755E+03   -0.65892E-05   -0.49075E-05  4159   0.138E-02
  32 F= -.35887397E+03 E0= -.35887731E+03  d E =-.122307E-02
       N       E                     dE             d eps       ncg     rms          rms(c)
DAV:   1    -0.358872692666E+03    0.12705E-02   -0.13416E+00  4816   0.340E+00    0.596E-01
RMM:   2    -0.358874356355E+03   -0.16637E-02   -0.71627E-02  7293   0.692E-01    0.250E-01
RMM:   3    -0.358873697714E+03    0.65864E-03   -0.91198E-03  7261   0.179E-01    0.177E-01
RMM:   4    -0.358873084659E+03    0.61306E-03   -0.27370E-03  7328   0.924E-02    0.104E-01
RMM:   5    -0.358873041618E+03    0.43041E-04   -0.11637E-03  7504   0.529E-02    0.746E-02
RMM:   6    -0.358873034467E+03    0.71505E-05   -0.41609E-04  7039   0.348E-02    0.433E-02
RMM:   7    -0.358873051250E+03   -0.16783E-04   -0.18668E-04  5774   0.224E-02    0.250E-02
RMM:   8    -0.358873060007E+03   -0.87571E-05   -0.87480E-05  4910   0.172E-02
  33 F= -.35887306E+03 E0= -.35887630E+03  d E =-.313321E-03
       N       E                     dE             d eps       ncg     rms          rms(c)
DAV:   1    -0.358873948805E+03   -0.89755E-03   -0.76834E-01  4816   0.258E+00    0.453E-01
RMM:   2    -0.358874946366E+03   -0.99756E-03   -0.40884E-02  7279   0.528E-01    0.191E-01
RMM:   3    -0.358874558948E+03    0.38742E-03   -0.51536E-03  7301   0.140E-01    0.137E-01
RMM:   4    -0.358874159134E+03    0.39981E-03   -0.14546E-03  7297   0.694E-02    0.814E-02
RMM:   5    -0.358874108156E+03    0.50978E-04   -0.60817E-04  7304   0.396E-02    0.577E-02
RMM:   6    -0.358874079757E+03    0.28398E-04   -0.20802E-04  6828   0.261E-02    0.325E-02
RMM:   7    -0.358874074535E+03    0.52220E-05   -0.99873E-05  5381   0.169E-02
  34 F= -.35887407E+03 E0= -.35887739E+03  d E =-.132785E-02
       N       E                     dE             d eps       ncg     rms          rms(c)
DAV:   1    -0.358874067546E+03    0.12212E-04   -0.26516E-03  4960   0.151E-01    0.255E-02
RMM:   2    -0.358874072914E+03   -0.53687E-05   -0.18300E-04  6850   0.328E-02    0.138E-02
RMM:   3    -0.358874069571E+03    0.33439E-05   -0.26062E-05  3403   0.104E-02
  35 F= -.35887407E+03 E0= -.35887739E+03  d E =-.132288E-02
       N       E                     dE             d eps       ncg     rms          rms(c)
DAV:   1    -0.358874326606E+03   -0.25369E-03   -0.10252E-02  4916   0.302E-01    0.630E-02
RMM:   2    -0.358874321226E+03    0.53808E-05   -0.58550E-04  7297   0.616E-02    0.266E-02
RMM:   3    -0.358874314174E+03    0.70516E-05   -0.10947E-04  6203   0.185E-02    0.197E-02
RMM:   4    -0.358874304768E+03    0.94061E-05   -0.31846E-05  3615   0.126E-02
  36 F= -.35887430E+03 E0= -.35887763E+03  d E =-.235197E-03
       N       E                     dE             d eps       ncg     rms          rms(c)
DAV:   1    -0.358875028676E+03   -0.71450E-03   -0.91897E-02  4840   0.903E-01    0.178E-01
RMM:   2    -0.358874994364E+03    0.34312E-04   -0.51268E-03  7299   0.183E-01    0.742E-02
RMM:   3    -0.358874917519E+03    0.76846E-04   -0.83161E-04  7303   0.513E-02    0.544E-02
RMM:   4    -0.358874856483E+03    0.61035E-04   -0.25593E-04  7053   0.291E-02    0.308E-02
RMM:   5    -0.358874849675E+03    0.68088E-05   -0.92114E-05  5424   0.164E-02
  37 F= -.35887485E+03 E0= -.35887820E+03  d E =-.780104E-03
       N       E                     dE             d eps       ncg     rms          rms(c)
DAV:   1    -0.358875876238E+03   -0.10198E-02   -0.36829E-01  4816   0.181E+00    0.355E-01
RMM:   2    -0.358875760978E+03    0.11526E-03   -0.20305E-02  7297   0.364E-01    0.148E-01
RMM:   3    -0.358875430672E+03    0.33031E-03   -0.33716E-03  7299   0.102E-01    0.107E-01
RMM:   4    -0.358875189546E+03    0.24113E-03   -0.10128E-03  7294   0.591E-02    0.599E-02
RMM:   5    -0.358875168012E+03    0.21534E-04   -0.39281E-04  7121   0.317E-02    0.441E-02
RMM:   6    -0.358875175580E+03   -0.75676E-05   -0.15790E-04  5773   0.203E-02    0.277E-02
RMM:   7    -0.358875183475E+03   -0.78959E-05   -0.73445E-05  4705   0.157E-02
  38 F= -.35887518E+03 E0= -.35887857E+03  d E =-.111390E-02
       N       E                     dE             d eps       ncg     rms          rms(c)
DAV:   1    -0.358875499166E+03   -0.32359E-03   -0.26494E-02  5032   0.488E-01    0.117E-01
RMM:   2    -0.358875526270E+03   -0.27104E-04   -0.16848E-03  7245   0.106E-01    0.481E-02
RMM:   3    -0.358875496575E+03    0.29695E-04   -0.33494E-04  6767   0.328E-02    0.372E-02
RMM:   4    -0.358875463457E+03    0.33118E-04   -0.96252E-05  6468   0.194E-02    0.197E-02
RMM:   5    -0.358875459330E+03    0.41271E-05   -0.32427E-05  3513   0.119E-02
  39 F= -.35887546E+03 E0= -.35887887E+03  d E =-.275854E-03
       N       E                     dE             d eps       ncg     rms          rms(c)
DAV:   1    -0.358876296737E+03   -0.83328E-03   -0.23692E-01  4928   0.146E+00    0.335E-01
RMM:   2    -0.358876364126E+03   -0.67389E-04   -0.13925E-02  7105   0.307E-01    0.130E-01
RMM:   3    -0.358876104078E+03    0.26005E-03   -0.24097E-03  7386   0.942E-02    0.995E-02
RMM:   4    -0.358875840519E+03    0.26356E-03   -0.64504E-04  7405   0.492E-02    0.527E-02
RMM:   5    -0.358875820633E+03    0.19887E-04   -0.25953E-04  6821   0.290E-02    0.404E-02
RMM:   6    -0.358875809472E+03    0.11161E-04   -0.10359E-04  6319   0.177E-02    0.249E-02
RMM:   7    -0.358875802813E+03    0.66590E-05   -0.44301E-05  3909   0.132E-02
  40 F= -.35887580E+03 E0= -.35887928E+03  d E =-.619337E-03
       N       E                     dE             d eps       ncg     rms          rms(c)
DAV:   1    -0.358875816638E+03   -0.71661E-05   -0.84219E-03  5048   0.276E-01    0.613E-02
RMM:   2    -0.358875819492E+03   -0.28542E-05   -0.49912E-04  7175   0.576E-02    0.236E-02
RMM:   3    -0.358875808477E+03    0.11015E-04   -0.83241E-05  6012   0.167E-02    0.176E-02
RMM:   4    -0.358875799449E+03    0.90278E-05   -0.21071E-05  3124   0.109E-02
  41 F= -.35887580E+03 E0= -.35887929E+03  d E =-.615973E-03
       N       E                     dE             d eps       ncg     rms          rms(c)
DAV:   1    -0.358876029685E+03   -0.22121E-03   -0.30930E-02  4880   0.504E-01    0.549E-02
RMM:   2    -0.358876095351E+03   -0.65666E-04   -0.12900E-03  7001   0.968E-02    0.271E-02
RMM:   3    -0.358876084307E+03    0.11044E-04   -0.13641E-04  5715   0.253E-02    0.207E-02
RMM:   4    -0.358876077747E+03    0.65593E-05   -0.57098E-05  4446   0.138E-02
  42 F= -.35887608E+03 E0= -.35887957E+03  d E =-.278298E-03
       N       E                     dE             d eps       ncg     rms          rms(c)
DAV:   1    -0.358876290928E+03   -0.20662E-03   -0.27774E-01  4816   0.151E+00    0.170E-01
RMM:   2    -0.358876873044E+03   -0.58212E-03   -0.11598E-02  7221   0.289E-01    0.842E-02
RMM:   3    -0.358876815173E+03    0.57871E-04   -0.14802E-03  7189   0.746E-02    0.626E-02
RMM:   4    -0.358876748905E+03    0.66269E-04   -0.45916E-04  7347   0.358E-02    0.333E-02
RMM:   5    -0.358876742359E+03    0.65458E-05   -0.17287E-04  5957   0.219E-02    0.198E-02
RMM:   6    -0.358876740696E+03    0.16622E-05   -0.82067E-05  4646   0.144E-02
  43 F= -.35887674E+03 E0= -.35888024E+03  d E =-.941248E-03
       N       E                     dE             d eps       ncg     rms          rms(c)
DAV:   1    -0.358875502866E+03    0.12395E-02   -0.11129E+00  4816   0.302E+00    0.341E-01
RMM:   2    -0.358877835317E+03   -0.23325E-02   -0.46443E-02  7222   0.579E-01    0.168E-01
RMM:   3    -0.358877584498E+03    0.25082E-03   -0.58422E-03  7246   0.149E-01    0.124E-01
RMM:   4    -0.358877327563E+03    0.25693E-03   -0.17262E-03  7511   0.698E-02    0.668E-02
RMM:   5    -0.358877306740E+03    0.20823E-04   -0.73772E-04  7262   0.428E-02    0.403E-02
RMM:   6    -0.358877297682E+03    0.90578E-05   -0.28608E-04  6453   0.261E-02    0.233E-02
RMM:   7    -0.358877296121E+03    0.15612E-05   -0.85553E-05  4884   0.157E-02
  44 F= -.35887730E+03 E0= -.35888081E+03  d E =-.149667E-02
       N       E                     dE             d eps       ncg     rms          rms(c)
DAV:   1    -0.358877665401E+03   -0.36772E-03   -0.46376E-02  5040   0.647E-01    0.149E-01
RMM:   2    -0.358877663638E+03    0.17629E-05   -0.28824E-03  7244   0.138E-01    0.567E-02
RMM:   3    -0.358877627081E+03    0.36557E-04   -0.51893E-04  7361   0.420E-02    0.425E-02
RMM:   4    -0.358877587741E+03    0.39341E-04   -0.14660E-04  6715   0.222E-02    0.241E-02
RMM:   5    -0.358877585196E+03    0.25448E-05   -0.47942E-05  3948   0.130E-02
  45 F= -.35887759E+03 E0= -.35888110E+03  d E =-.289075E-03
       N       E                     dE             d eps       ncg     rms          rms(c)
DAV:   1    -0.358878733372E+03   -0.11456E-02   -0.41562E-01  4928   0.194E+00    0.434E-01
RMM:   2    -0.358878700367E+03    0.33005E-04   -0.24777E-02  7091   0.408E-01    0.162E-01
RMM:   3    -0.358878278291E+03    0.42208E-03   -0.39352E-03  7342   0.126E-01    0.122E-01
RMM:   4    -0.358877928839E+03    0.34945E-03   -0.10634E-03  7466   0.625E-02    0.697E-02
RMM:   5    -0.358877908705E+03    0.20134E-04   -0.39949E-04  7158   0.349E-02    0.536E-02
RMM:   6    -0.358877917454E+03   -0.87491E-05   -0.16189E-04  6699   0.222E-02    0.321E-02
RMM:   7    -0.358877929275E+03   -0.11821E-04   -0.80028E-05  5366   0.164E-02    0.170E-02
RMM:   8    -0.358877936612E+03   -0.73362E-05   -0.35724E-05  3722   0.126E-02
  46 F= -.35887794E+03 E0= -.35888144E+03  d E =-.640491E-03
       N       E                     dE             d eps       ncg     rms          rms(c)
DAV:   1    -0.358878114167E+03   -0.18489E-03   -0.33398E-02  4936   0.516E-01    0.428E-02
RMM:   2    -0.358878194891E+03   -0.80724E-04   -0.11463E-03  6852   0.939E-02    0.224E-02
RMM:   3    -0.358878191256E+03    0.36353E-05   -0.12448E-04  5349   0.258E-02    0.174E-02
RMM:   4    -0.358878192284E+03   -0.10286E-05   -0.53650E-05  4300   0.123E-02
  47 F= -.35887819E+03 E0= -.35888173E+03  d E =-.255673E-03
       N       E                     dE             d eps       ncg     rms          rms(c)
DAV:   1    -0.358878154689E+03    0.36567E-04   -0.29983E-01  4816   0.154E+00    0.130E-01
RMM:   2    -0.358878847641E+03   -0.69295E-03   -0.10144E-02  7122   0.279E-01    0.685E-02
RMM:   3    -0.358878823358E+03    0.24283E-04   -0.12831E-03  7209   0.731E-02    0.532E-02
RMM:   4    -0.358878793175E+03    0.30182E-04   -0.34300E-04  7257   0.289E-02    0.319E-02
RMM:   5    -0.358878792575E+03    0.60076E-06   -0.12686E-04  5781   0.185E-02    0.172E-02
RMM:   6    -0.358878793741E+03   -0.11666E-05   -0.53629E-05  4070   0.132E-02
  48 F= -.35887879E+03 E0= -.35888242E+03  d E =-.857130E-03
       N       E                     dE             d eps       ncg     rms          rms(c)
DAV:   1    -0.358876873312E+03    0.19193E-02   -0.12005E+00  4816   0.309E+00    0.259E-01
RMM:   2    -0.358879644600E+03   -0.27713E-02   -0.40625E-02  7137   0.558E-01    0.136E-01
RMM:   3    -0.358879505201E+03    0.13940E-03   -0.49782E-03  7266   0.144E-01    0.104E-01
RMM:   4    -0.358879385214E+03    0.11999E-03   -0.12906E-03  8091   0.561E-02    0.631E-02
RMM:   5    -0.358879378922E+03    0.62915E-05   -0.53017E-04  7331   0.370E-02    0.356E-02
RMM:   6    -0.358879377683E+03    0.12390E-05   -0.20924E-04  6331   0.231E-02    0.188E-02
RMM:   7    -0.358879380570E+03   -0.28868E-05   -0.64269E-05  4586   0.143E-02
  49 F= -.35887938E+03 E0= -.35888317E+03  d E =-.144396E-02
       N       E                     dE             d eps       ncg     rms          rms(c)
DAV:   1    -0.358880363652E+03   -0.98597E-03   -0.15648E-01  5224   0.121E+00    0.316E-01
RMM:   2    -0.358880206233E+03    0.15742E-03   -0.10007E-02  6804   0.258E-01    0.114E-01
RMM:   3    -0.358880016450E+03    0.18978E-03   -0.19739E-03  7453   0.870E-02    0.860E-02
RMM:   4    -0.358879808107E+03    0.20834E-03   -0.54962E-04  7432   0.446E-02    0.439E-02
RMM:   5    -0.358879790776E+03    0.17331E-04   -0.19016E-04  6668   0.264E-02    0.345E-02
RMM:   6    -0.358879782356E+03    0.84202E-05   -0.72894E-05  4919   0.150E-02
  50 F= -.35887978E+03 E0= -.35888364E+03  d E =-.401786E-03
       N       E                     dE             d eps       ncg     rms          rms(c)
DAV:   1    -0.358880157889E+03   -0.36711E-03   -0.88981E-02  5216   0.911E-01    0.231E-01
RMM:   2    -0.358880070356E+03    0.87533E-04   -0.56047E-03  6573   0.195E-01    0.827E-02
RMM:   3    -0.358879940931E+03    0.12943E-03   -0.10323E-03  7387   0.655E-02    0.624E-02
RMM:   4    -0.358879833195E+03    0.10774E-03   -0.30171E-04  7307   0.329E-02    0.340E-02
RMM:   5    -0.358879822775E+03    0.10420E-04   -0.10139E-04  6033   0.201E-02    0.269E-02
RMM:   6    -0.358879817670E+03    0.51052E-05   -0.38254E-05  3686   0.119E-02
  51 F= -.35887982E+03 E0= -.35888372E+03  d E =-.437100E-03
       N       E                     dE             d eps       ncg     rms          rms(c)
DAV:   1    -0.358879804773E+03    0.18002E-04   -0.12681E-01  4824   0.102E+00    0.846E-02
RMM:   2    -0.358880123204E+03   -0.31843E-03   -0.45621E-03  6892   0.190E-01    0.441E-02
RMM:   3    -0.358880104939E+03    0.18265E-04   -0.52197E-04  6837   0.507E-02    0.340E-02
RMM:   4    -0.358880093968E+03    0.10971E-04   -0.16500E-04  6066   0.196E-02    0.209E-02
RMM:   5    -0.358880090604E+03    0.33635E-05   -0.54599E-05  4188   0.126E-02
  52 F= -.35888009E+03 E0= -.35888401E+03  d E =-.272934E-03
       N       E                     dE             d eps       ncg     rms          rms(c)
DAV:   1    -0.358878017758E+03    0.20762E-02   -0.11408E+00  4816   0.307E+00    0.256E-01
RMM:   2    -0.358880894129E+03   -0.28764E-02   -0.40903E-02  7018   0.569E-01    0.134E-01
RMM:   3    -0.358880761170E+03    0.13296E-03   -0.47568E-03  7273   0.149E-01    0.101E-01
RMM:   4    -0.358880650762E+03    0.11041E-03   -0.12305E-03  8078   0.538E-02    0.615E-02
RMM:   5    -0.358880638743E+03    0.12018E-04   -0.50937E-04  7212   0.364E-02    0.351E-02
RMM:   6    -0.358880628614E+03    0.10130E-04   -0.20395E-04  6486   0.236E-02    0.175E-02
RMM:   7    -0.358880627722E+03    0.89212E-06   -0.54363E-05  4397   0.138E-02
  53 F= -.35888063E+03 E0= -.35888457E+03  d E =-.810052E-03
       N       E                     dE             d eps       ncg     rms          rms(c)
DAV:   1    -0.358882815861E+03   -0.21872E-02   -0.25421E-01  5232   0.159E+00    0.478E-01
RMM:   2    -0.358881918860E+03    0.89700E-03   -0.19556E-02  7070   0.366E-01    0.166E-01
RMM:   3    -0.358881483489E+03    0.43537E-03   -0.43701E-03  7497   0.127E-01    0.128E-01
RMM:   4    -0.358881039976E+03    0.44351E-03   -0.11261E-03  7502   0.674E-02    0.676E-02
RMM:   5    -0.358881011931E+03    0.28045E-04   -0.38015E-04  7101   0.359E-02    0.530E-02
RMM:   6    -0.358881025922E+03   -0.13991E-04   -0.15424E-04  6701   0.216E-02    0.323E-02
RMM:   7    -0.358881038618E+03   -0.12696E-04   -0.66378E-05  5128   0.164E-02    0.166E-02
RMM:   8    -0.358881046392E+03   -0.77738E-05   -0.32559E-05  3578   0.118E-02
  54 F= -.35888105E+03 E0= -.35888497E+03  d E =-.418671E-03
       N       E                     dE             d eps       ncg     rms          rms(c)
DAV:   1    -0.358881063845E+03   -0.25226E-04   -0.33697E-03  5456   0.184E-01    0.518E-02
RMM:   2    -0.358881054685E+03    0.91592E-05   -0.25507E-04  6971   0.423E-02    0.171E-02
RMM:   3    -0.358881050819E+03    0.38659E-05   -0.42788E-05  4265   0.139E-02
  55 F= -.35888105E+03 E0= -.35888497E+03  d E =-.423098E-03
       N       E                     dE             d eps       ncg     rms          rms(c)
DAV:   1    -0.358881103156E+03   -0.48470E-04   -0.13515E-02  5264   0.365E-01    0.108E-01
RMM:   2    -0.358881044235E+03    0.58920E-04   -0.10856E-03  7153   0.855E-02    0.372E-02
RMM:   3    -0.358881019948E+03    0.24287E-04   -0.22834E-04  6647   0.291E-02    0.283E-02
RMM:   4    -0.358881003176E+03    0.16772E-04   -0.51451E-05  4268   0.162E-02    0.176E-02
RMM:   5    -0.358881004141E+03   -0.96534E-06   -0.14776E-05  2750   0.118E-02
  56 F= -.35888100E+03 E0= -.35888491E+03  d E =-.376420E-03
       N       E                     dE             d eps       ncg     rms          rms(c)
DAV:   1    -0.358881132065E+03   -0.12889E-03   -0.10082E-02  5376   0.316E-01    0.999E-02
RMM:   2    -0.358881105231E+03    0.26834E-04   -0.78338E-04  6856   0.716E-02    0.357E-02
RMM:   3    -0.358881086684E+03    0.18547E-04   -0.17685E-04  6400   0.260E-02    0.269E-02
RMM:   4    -0.358881065487E+03    0.21197E-04   -0.41129E-05  3873   0.156E-02    0.139E-02
RMM:   5    -0.358881062017E+03    0.34704E-05   -0.11733E-05  2513   0.113E-02
  57 F= -.35888106E+03 E0= -.35888498E+03  d E =-.434295E-03
       N       E                     dE             d eps       ncg     rms          rms(c)
DAV:   1    -0.358881065625E+03   -0.13840E-06   -0.18242E-04  5024   0.436E-02    0.112E-02
RMM:   2    -0.358881064861E+03    0.76419E-06   -0.15440E-05  2549   0.108E-02
  58 F= -.35888106E+03 E0= -.35888498E+03  d E =-.437139E-03
       N       E                     dE             d eps       ncg     rms          rms(c)
DAV:   1    -0.358881063776E+03    0.18497E-05   -0.99268E-06  2716   0.124E-02    0.528E-03
RMM:   2    -0.358881063207E+03    0.56819E-06   -0.37744E-06  2447   0.698E-03
  59 F= -.35888106E+03 E0= -.35888498E+03  d E =-.435486E-03
       N       E                     dE             d eps       ncg     rms          rms(c)
DAV:   1    -0.358881062764E+03    0.10111E-05   -0.23189E-06  2596   0.682E-03    0.262E-03
RMM:   2    -0.358881062189E+03    0.57543E-06   -0.13569E-06  2284   0.392E-03
  60 F= -.35888106E+03 E0= -.35888498E+03  d E =-.434467E-03
       N       E                     dE             d eps       ncg     rms          rms(c)
DAV:   1    -0.358881062047E+03    0.71755E-06   -0.85645E-07  2564   0.407E-03    0.170E-03
RMM:   2    -0.358881061581E+03    0.46559E-06   -0.56503E-07  1437   0.249E-03
  61 F= -.35888106E+03 E0= -.35888498E+03  d E =-.433860E-03
       N       E                     dE             d eps       ncg     rms          rms(c)
DAV:   1    -0.358881061483E+03    0.56437E-06   -0.51979E-07  2576   0.268E-03    0.120E-03
RMM:   2    -0.358881061157E+03    0.32519E-06   -0.34946E-07  1499   0.196E-03
  62 F= -.35888106E+03 E0= -.35888498E+03  d E =-.433436E-03
       N       E                     dE             d eps       ncg     rms          rms(c)
DAV:   1    -0.358881060895E+03    0.58756E-06   -0.31393E-07  2572   0.221E-03    0.638E-04
RMM:   2    -0.358881060750E+03    0.14522E-06   -0.10768E-07   792   0.148E-03
  63 F= -.35888106E+03 E0= -.35888498E+03  d E =-.433028E-03
       N       E                     dE             d eps       ncg     rms          rms(c)
DAV:   1    -0.358881060722E+03    0.17318E-06   -0.23854E-07  2576   0.142E-03    0.630E-04
RMM:   2    -0.358881060597E+03    0.12462E-06   -0.82748E-08   992   0.154E-03
  64 F= -.35888106E+03 E0= -.35888498E+03  d E =-.432876E-03
       N       E                     dE             d eps       ncg     rms          rms(c)
DAV:   1    -0.358881060531E+03    0.19112E-06   -0.12492E-07  2576   0.111E-03    0.443E-04
RMM:   2    -0.358881060464E+03    0.67063E-07   -0.22652E-08   560   0.110E-03
  65 F= -.35888106E+03 E0= -.35888498E+03  d E =-.432742E-03
       N       E                     dE             d eps       ncg     rms          rms(c)
DAV:   1    -0.358881060450E+03    0.80574E-07   -0.71308E-08  2576   0.987E-04    0.288E-04
RMM:   2    -0.358881060409E+03    0.40949E-07   -0.12527E-09   293   0.740E-04
  66 F= -.35888106E+03 E0= -.35888498E+03  d E =-.432688E-03
       N       E                     dE             d eps       ncg     rms          rms(c)
DAV:   1    -0.358881060395E+03    0.55341E-07   -0.45909E-08  2576   0.737E-04    0.205E-04
RMM:   2    -0.358881060370E+03    0.24767E-07   -0.53406E-11   242   0.630E-04
  67 F= -.35888106E+03 E0= -.35888498E+03  d E =-.432648E-03
       N       E                     dE             d eps       ncg     rms          rms(c)
DAV:   1    -0.358881060366E+03    0.29071E-07   -0.29740E-08  2576   0.634E-04    0.139E-04
RMM:   2    -0.358881060347E+03    0.18474E-07    0.35392E-12   218   0.471E-04
  68 F= -.35888106E+03 E0= -.35888498E+03  d E =-.432626E-03
       N       E                     dE             d eps       ncg     rms          rms(c)
DAV:   1    -0.358881060343E+03    0.22461E-07   -0.20461E-08  2572   0.472E-04    0.112E-04
RMM:   2    -0.358881060331E+03    0.11802E-07    0.45826E-13   174   0.419E-04
  69 F= -.35888106E+03 E0= -.35888498E+03  d E =-.432610E-03
       N       E                     dE             d eps       ncg     rms          rms(c)
DAV:   1    -0.358882902232E+03   -0.18419E-02   -0.31620E-01  5152   0.178E+00    0.529E-01
RMM:   2    -0.358881858036E+03    0.10442E-02   -0.23975E-02  6910   0.407E-01    0.184E-01
RMM:   3    -0.358881277033E+03    0.58100E-03   -0.52026E-03  7491   0.142E-01    0.140E-01
RMM:   4    -0.358880714305E+03    0.56273E-03   -0.13147E-03  7467   0.736E-02    0.746E-02
RMM:   5    -0.358880660319E+03    0.53987E-04   -0.43773E-04  7199   0.396E-02    0.585E-02
RMM:   6    -0.358880650240E+03    0.10078E-04   -0.17587E-04  6719   0.232E-02    0.359E-02
RMM:   7    -0.358880640327E+03    0.99128E-05   -0.77299E-05  5624   0.179E-02
  70 F= -.35888064E+03 E0= -.35888459E+03  d E =-.126057E-04
