<?xml version="1.0" encoding="ISO-8859-1"?>
<modeling>
 <generator>
  <i name="program" type="string">vasp </i>
  <i name="version" type="string">5.4.1  </i>
  <i name="subversion" type="string">05Feb16 (build Jan 29 2020 16:04:39) complex                          parallel </i>
  <i name="platform" type="string">IFC91_ompi </i>
  <i name="date" type="string">2020 06 15 </i>
  <i name="time" type="string">05:50:24 </i>
 </generator>
 <incar>
  <i type="string" name="SYSTEM"> automatically generated by mexm</i>
  <i type="int" name="ISTART">     0</i>
  <i type="string" name="PREC">accurate               ! avoid wrap aro</i>
  <i type="string" name="ALGO"> Fast                   ! blocked Davids</i>
  <i type="int" name="ISPIN">     1</i>
  <i type="int" name="ICHARG">     2</i>
  <i type="int" name="NELM">    70</i>
  <i type="int" name="IBRION">     2</i>
  <i name="EDIFF">      0.00001000</i>
  <i name="EDIFFG">     -0.01000000</i>
  <i type="int" name="NSW">   300</i>
  <i type="int" name="ISIF">     3</i>
  <i type="int" name="ISYM">     1</i>
  <i name="ENCUT">    300.00000000</i>
  <i name="POTIM">      0.15000000</i>
  <i type="string" name="LREAL"> Auto                  ! unpublished met</i>
  <i type="int" name="ISMEAR">     1</i>
  <i name="SIGMA">      0.15000000</i>
  <i type="logical" name="LWAVE"> F  </i>
  <i type="logical" name="LCHARG"> F  </i>
  <i type="logical" name="LVTOT"> F  </i>
  <v type="int" name="KPOINT_BSE">    -1     0     0     0</v>
  <i type="int" name="NELM">    70</i>
 </incar>
 <kpoints>
  <generation param="Gamma">
   <v type="int" name="divisions">       3        3        3 </v>
   <v name="usershift">      0.00000000       0.00000000       0.00000000 </v>
   <v name="genvec1">      0.33333333      -0.00000000      -0.00000000 </v>
   <v name="genvec2">     -0.00000000       0.33333333       0.00000000 </v>
   <v name="genvec3">      0.00000000       0.00000000       0.33333333 </v>
   <v name="shift">      0.00000000       0.00000000       0.00000000 </v>
  </generation>
  <varray name="kpointlist" >
   <v>       0.00000000       0.00000000       0.00000000 </v>
   <v>       0.33333333       0.00000000       0.00000000 </v>
   <v>      -0.00000000       0.33333333      -0.00000000 </v>
   <v>       0.33333333       0.33333333      -0.00000000 </v>
   <v>      -0.33333333       0.33333333       0.00000000 </v>
   <v>      -0.00000000      -0.00000000       0.33333333 </v>
   <v>       0.33333333      -0.00000000       0.33333333 </v>
   <v>      -0.33333333       0.00000000       0.33333333 </v>
   <v>      -0.00000000       0.33333333       0.33333333 </v>
   <v>       0.33333333       0.33333333       0.33333333 </v>
   <v>      -0.33333333       0.33333333       0.33333333 </v>
   <v>      -0.00000000      -0.33333333       0.33333333 </v>
   <v>       0.33333333      -0.33333333       0.33333333 </v>
   <v>      -0.33333333      -0.33333333       0.33333333 </v>
  </varray>
  <varray name="weights" >
   <v>       0.03703704 </v>
   <v>       0.07407407 </v>
   <v>       0.07407407 </v>
   <v>       0.07407407 </v>
   <v>       0.07407407 </v>
   <v>       0.07407407 </v>
   <v>       0.07407407 </v>
   <v>       0.07407407 </v>
   <v>       0.07407407 </v>
   <v>       0.07407407 </v>
   <v>       0.07407407 </v>
   <v>       0.07407407 </v>
   <v>       0.07407407 </v>
   <v>       0.07407407 </v>
  </varray>
 </kpoints>
 <parameters>
  <separator name="general" >
   <i type="string" name="SYSTEM">automatically generated by mexm</i>
   <i type="logical" name="LCOMPAT"> F  </i>
  </separator>
  <separator name="electronic" >
   <i type="string" name="PREC">accura</i>
   <i name="ENMAX">    300.00000000</i>
   <i name="ENAUG">    461.25700000</i>
   <i name="EDIFF">      0.00001000</i>
   <i type="int" name="IALGO">    68</i>
   <i type="int" name="IWAVPR">    11</i>
   <i type="int" name="NBANDS">   176</i>
   <i name="NELECT">    292.00000000</i>
   <i type="int" name="TURBO">     0</i>
   <i type="int" name="IRESTART">     0</i>
   <i type="int" name="NREBOOT">     0</i>
   <i type="int" name="NMIN">     0</i>
   <i name="EREF">      0.00000000</i>
   <separator name="electronic smearing" >
    <i type="int" name="ISMEAR">     1</i>
    <i name="SIGMA">      0.15000000</i>
    <i name="KSPACING">      0.50000000</i>
    <i type="logical" name="KGAMMA"> T  </i>
   </separator>
   <separator name="electronic projectors" >
    <i type="logical" name="LREAL"> T  </i>
    <v name="ROPT">     -0.00025000     -0.00025000     -0.00025000     -0.00025000</v>
    <i type="int" name="LMAXPAW">  -100</i>
    <i type="int" name="LMAXMIX">     2</i>
    <i type="logical" name="NLSPLINE"> F  </i>
   </separator>
   <separator name="electronic startup" >
    <i type="int" name="ISTART">     0</i>
    <i type="int" name="ICHARG">     2</i>
    <i type="int" name="INIWAV">     1</i>
   </separator>
   <separator name="electronic spin" >
    <i type="int" name="ISPIN">     1</i>
    <i type="logical" name="LNONCOLLINEAR"> F  </i>
    <v name="MAGMOM">      1.00000000      1.00000000      1.00000000      1.00000000      1.00000000      1.00000000      1.00000000      1.00000000      1.00000000      1.00000000      1.00000000      1.00000000      1.00000000      1.00000000      1.00000000      1.00000000      1.00000000      1.00000000      1.00000000      1.00000000
      1.00000000      1.00000000      1.00000000      1.00000000      1.00000000      1.00000000      1.00000000      1.00000000      1.00000000      1.00000000      1.00000000      1.00000000      1.00000000      1.00000000      1.00000000      1.00000000</v>
    <i name="NUPDOWN">     -1.00000000</i>
    <i type="logical" name="LSORBIT"> F  </i>
    <v name="SAXIS">      0.00000000      0.00000000      1.00000000</v>
    <i type="logical" name="LSPIRAL"> F  </i>
    <v name="QSPIRAL">      0.00000000      0.00000000      0.00000000</v>
    <i type="logical" name="LZEROZ"> F  </i>
   </separator>
   <separator name="electronic exchange-correlation" >
    <i type="logical" name="LASPH"> F  </i>
    <i type="logical" name="LMETAGGA"> F  </i>
   </separator>
   <separator name="electronic convergence" >
    <i type="int" name="NELM">    70</i>
    <i type="int" name="NELMDL">    -5</i>
    <i type="int" name="NELMIN">     2</i>
    <i name="ENINI">    300.00000000</i>
    <separator name="electronic convergence detail" >
     <i type="logical" name="LDIAG"> T  </i>
     <i type="logical" name="LSUBROT"> F  </i>
     <i name="WEIMIN">      0.00100000</i>
     <i name="EBREAK">      0.00000001</i>
     <i name="DEPER">      0.30000000</i>
     <i type="int" name="NRMM">     4</i>
     <i name="TIME">      0.40000000</i>
    </separator>
   </separator>
   <separator name="electronic mixer" >
    <i name="AMIX">      0.40000000</i>
    <i name="BMIX">      1.00000000</i>
    <i name="AMIN">      0.10000000</i>
    <i name="AMIX_MAG">      1.60000000</i>
    <i name="BMIX_MAG">      1.00000000</i>
    <separator name="electronic mixer details" >
     <i type="int" name="IMIX">     4</i>
     <i type="logical" name="MIXFIRST"> F  </i>
     <i type="int" name="MAXMIX">   -45</i>
     <i name="WC">    100.00000000</i>
     <i type="int" name="INIMIX">     1</i>
     <i type="int" name="MIXPRE">     1</i>
     <i type="int" name="MREMOVE">     5</i>
    </separator>
   </separator>
   <separator name="electronic dipolcorrection" >
    <i type="logical" name="LDIPOL"> F  </i>
    <i type="logical" name="LMONO"> F  </i>
    <i type="int" name="IDIPOL">     0</i>
    <i name="EPSILON">      1.00000000</i>
    <v name="DIPOL">   -100.00000000   -100.00000000   -100.00000000</v>
    <i name="EFIELD">      0.00000000</i>
   </separator>
  </separator>
  <separator name="grids" >
   <i type="int" name="NGX">    40</i>
   <i type="int" name="NGY">    60</i>
   <i type="int" name="NGZ">    60</i>
   <i type="int" name="NGXF">    80</i>
   <i type="int" name="NGYF">   120</i>
   <i type="int" name="NGZF">   120</i>
   <i type="logical" name="ADDGRID"> F  </i>
  </separator>
  <separator name="ionic" >
   <i type="int" name="NSW">   300</i>
   <i type="int" name="IBRION">     2</i>
   <i type="int" name="ISIF">     3</i>
   <i name="PSTRESS">      0.00000000</i>
   <i name="EDIFFG">     -0.01000000</i>
   <i type="int" name="NFREE">     1</i>
   <i name="POTIM">      0.15000000</i>
   <i name="SMASS">     -3.00000000</i>
   <i name="SCALEE">      1.00000000</i>
  </separator>
  <separator name="ionic md" >
   <i name="TEBEG">      0.00010000</i>
   <i name="TEEND">      0.00010000</i>
   <i type="int" name="NBLOCK">     1</i>
   <i type="int" name="KBLOCK">   300</i>
   <i type="int" name="NPACO">   256</i>
   <i name="APACO">     16.00000000</i>
  </separator>
  <separator name="symmetry" >
   <i type="int" name="ISYM">     1</i>
   <i name="SYMPREC">      0.00001000</i>
  </separator>
  <separator name="dos" >
   <i type="logical" name="LORBIT"> F  </i>
   <v name="RWIGS">     -1.00000000     -1.00000000     -1.00000000     -1.00000000</v>
   <i type="int" name="NEDOS">   301</i>
   <i name="EMIN">     10.00000000</i>
   <i name="EMAX">    -10.00000000</i>
   <i name="EFERMI">      0.00000000</i>
  </separator>
  <separator name="writing" >
   <i type="int" name="NWRITE">     2</i>
   <i type="logical" name="LWAVE"> F  </i>
   <i type="logical" name="LCHARG"> F  </i>
   <i type="logical" name="LPARD"> F  </i>
   <i type="logical" name="LVTOT"> F  </i>
   <i type="logical" name="LVHAR"> F  </i>
   <i type="logical" name="LELF"> F  </i>
   <i type="logical" name="LOPTICS"> F  </i>
   <v name="STM">      0.00000000      0.00000000      0.00000000      0.00000000      0.00000000      0.00000000      0.00000000</v>
  </separator>
  <separator name="performance" >
   <i type="int" name="NPAR">     4</i>
   <i type="int" name="NSIM">     4</i>
   <i type="int" name="NBLK">    -1</i>
   <i type="logical" name="LPLANE"> T  </i>
   <i type="logical" name="LSCALAPACK"> T  </i>
   <i type="logical" name="LSCAAWARE"> F  </i>
   <i type="logical" name="LSCALU"> F  </i>
   <i type="logical" name="LASYNC"> F  </i>
   <i type="logical" name="LORBITALREAL"> F  </i>
  </separator>
  <separator name="miscellaneous" >
   <i type="int" name="IDIOT">     3</i>
   <i type="logical" name="LMUSIC"> F  </i>
   <v name="POMASS">    180.94800000     92.91000000    178.49000000     91.22400000</v>
   <v name="DARWINR">      0.00000000      0.00000000      0.00000000      0.00000000</v>
   <v name="DARWINV">      1.00000000      1.00000000      1.00000000      1.00000000</v>
   <i type="logical" name="LCORR"> T  </i>
  </separator>
  <i type="logical" name="GGA_COMPAT"> T  </i>
  <i type="logical" name="LBERRY"> F  </i>
  <i type="int" name="ICORELEVEL">     0</i>
  <i type="logical" name="LDAU"> F  </i>
  <i type="int" name="I_CONSTRAINED_M">     0</i>
  <separator name="electronic exchange-correlation" >
   <i type="string" name="GGA">--</i>
   <i type="int" name="VOSKOWN">     0</i>
   <i type="logical" name="LHFCALC"> F  </i>
   <i type="string" name="PRECFOCK"></i>
   <i type="logical" name="LSYMGRAD"> F  </i>
   <i type="logical" name="LHFONE"> F  </i>
   <i type="logical" name="LRHFCALC"> F  </i>
   <i type="logical" name="LTHOMAS"> F  </i>
   <i type="logical" name="LMODELHF"> F  </i>
   <i name="ENCUT4O">     -1.00000000</i>
   <i type="int" name="EXXOEP">     0</i>
   <i type="int" name="FOURORBIT">     0</i>
   <i name="AEXX">      0.00000000</i>
   <i name="HFALPHA">      0.00000000</i>
   <i name="MCALPHA">      0.00000000</i>
   <i name="ALDAX">      1.00000000</i>
   <i name="AGGAX">      1.00000000</i>
   <i name="ALDAC">      1.00000000</i>
   <i name="AGGAC">      1.00000000</i>
   <i type="int" name="NKREDX">     1</i>
   <i type="int" name="NKREDY">     1</i>
   <i type="int" name="NKREDZ">     1</i>
   <i type="logical" name="SHIFTRED"> F  </i>
   <i type="logical" name="ODDONLY"> F  </i>
   <i type="logical" name="EVENONLY"> F  </i>
   <i type="int" name="LMAXFOCK">     0</i>
   <i type="int" name="NMAXFOCKAE">     0</i>
   <i type="logical" name="LFOCKAEDFT"> F  </i>
   <i name="HFSCREEN">      0.00000000</i>
   <i name="HFSCREENC">      0.00000000</i>
   <i type="int" name="NBANDSGWLOW">     0</i>
  </separator>
  <separator name="vdW DFT" >
   <i type="logical" name="LUSE_VDW"> F  </i>
   <i name="Zab_VDW">     -0.84910000</i>
   <i name="PARAM1">      0.12340000</i>
   <i name="PARAM2">      1.00000000</i>
   <i name="PARAM3">      0.00000000</i>
  </separator>
  <separator name="model GW" >
   <i type="int" name="MODEL_GW">     0</i>
   <i name="MODEL_EPS0">     11.94129844</i>
   <i name="MODEL_ALPHA">      1.00000000</i>
  </separator>
  <separator name="linear response parameters" >
   <i type="logical" name="LEPSILON"> F  </i>
   <i type="logical" name="LRPA"> F  </i>
   <i type="logical" name="LNABLA"> F  </i>
   <i type="logical" name="LVEL"> F  </i>
   <i type="int" name="KINTER">     0</i>
   <i name="CSHIFT">      0.10000000</i>
   <i name="OMEGAMAX">     -1.00000000</i>
   <i name="DEG_THRESHOLD">      0.00200000</i>
  </separator>
  <separator name="orbital magnetization" >
   <i type="logical" name="NUCIND"> F  </i>
   <v name="MAGPOS">      0.00000000      0.00000000      0.00000000</v>
   <i type="logical" name="LNICSALL"> T  </i>
   <i type="logical" name="ORBITALMAG"> F  </i>
   <i type="logical" name="LMAGBLOCH"> F  </i>
   <i type="logical" name="LCHIMAG"> F  </i>
   <i type="logical" name="LGAUGE"> T  </i>
   <i type="int" name="MAGATOM">     0</i>
   <v name="MAGDIPOL">      0.00000000      0.00000000      0.00000000</v>
   <v name="AVECCONST">      0.00000000      0.00000000      0.00000000</v>
  </separator>
  <separator name="response functions" >
   <i type="logical" name="LADDER"> F  </i>
   <i type="logical" name="LFXC"> F  </i>
   <i type="logical" name="LHARTREE"> T  </i>
   <i type="int" name="IBSE">     0</i>
   <v type="int" name="KPOINT">    -1     0     0     0</v>
   <i type="logical" name="LTCTE"> F  </i>
   <i type="logical" name="LTETE"> F  </i>
   <i type="logical" name="LTRIPLET"> F  </i>
   <i type="logical" name="LFXCEPS"> F  </i>
   <i type="logical" name="LFXHEG"> F  </i>
   <i type="int" name="NATURALO">     0</i>
   <i type="logical" name="L2ORDER"> F  </i>
   <i type="logical" name="LUSEW"> F  </i>
   <i name="ENCUTGW">     -2.00000000</i>
   <i name="ENCUTGWSOFT">     -2.00000000</i>
   <i name="ENCUTLF">     -1.00000000</i>
   <i type="int" name="LMAXMP2">    -1</i>
   <i name="SCISSOR">      0.00000000</i>
   <i type="int" name="NOMEGA">     0</i>
   <i type="int" name="NOMEGAR">     0</i>
   <i type="int" name="NBANDSGW">    -1</i>
   <i type="int" name="NBANDSO">    -1</i>
   <i type="int" name="NBANDSV">    -1</i>
   <i type="int" name="NELM">    70</i>
   <i type="int" name="NELMHF">     1</i>
   <i type="int" name="DIM">     3</i>
   <i type="int" name="ANTIRES">     0</i>
   <i name="OMEGAMAX">    -30.00000000</i>
   <i name="OMEGAMIN">    -30.00000000</i>
   <i name="OMEGATL">   -200.00000000</i>
   <i type="int" name="OMEGAGRID">     0</i>
   <i name="CSHIFT">     -0.10000000</i>
   <i type="logical" name="SELFENERGY"> F  </i>
   <i type="logical" name="LSPECTRAL"> F  </i>
   <i type="logical" name="LSPECTRALGW"> F  </i>
   <i type="logical" name="LSINGLES"> F  </i>
   <i type="logical" name="LFERMIGW"> F  </i>
   <i type="logical" name="ODDONLYGW"> F  </i>
   <i type="logical" name="EVENONLYGW"> F  </i>
   <i type="int" name="NKREDLFX">     1</i>
   <i type="int" name="NKREDLFY">     1</i>
   <i type="int" name="NKREDLFZ">     1</i>
   <i type="int" name="MAXMEM">  1800</i>
   <i type="int" name="TELESCOPE">     0</i>
   <i type="int" name="TAUPAR">     1</i>
   <i type="int" name="OMEGAPAR">    -1</i>
   <i name="LAMBDA">      1.00000000</i>
  </separator>
  <separator name="External order field" >
   <i name="OFIELD_KAPPA">      0.00000000</i>
   <v name="OFIELD_K">      0.00000000      0.00000000      0.00000000</v>
   <i name="OFIELD_Q6_NEAR">      0.00000000</i>
   <i name="OFIELD_Q6_FAR">      0.00000000</i>
   <i name="OFIELD_A">      0.00000000</i>
  </separator>
 </parameters>
 <atominfo>
  <atoms>      36 </atoms>
  <types>       4 </types>
  <array name="atoms" >
   <dimension dim="1">ion</dimension>
   <field type="string">element</field>
   <field type="int">atomtype</field>
   <set>
    <rc><c>Ta</c><c>   1</c></rc>
    <rc><c>Ta</c><c>   1</c></rc>
    <rc><c>Ta</c><c>   1</c></rc>
    <rc><c>Ta</c><c>   1</c></rc>
    <rc><c>Ta</c><c>   1</c></rc>
    <rc><c>Ta</c><c>   1</c></rc>
    <rc><c>Ta</c><c>   1</c></rc>
    <rc><c>Ta</c><c>   1</c></rc>
    <rc><c>Ta</c><c>   1</c></rc>
    <rc><c>Ta</c><c>   1</c></rc>
    <rc><c>Ta</c><c>   1</c></rc>
    <rc><c>Nb</c><c>   2</c></rc>
    <rc><c>Nb</c><c>   2</c></rc>
    <rc><c>Nb</c><c>   2</c></rc>
    <rc><c>Nb</c><c>   2</c></rc>
    <rc><c>Nb</c><c>   2</c></rc>
    <rc><c>Nb</c><c>   2</c></rc>
    <rc><c>Nb</c><c>   2</c></rc>
    <rc><c>Nb</c><c>   2</c></rc>
    <rc><c>Nb</c><c>   2</c></rc>
    <rc><c>Hf</c><c>   3</c></rc>
    <rc><c>Hf</c><c>   3</c></rc>
    <rc><c>Hf</c><c>   3</c></rc>
    <rc><c>Hf</c><c>   3</c></rc>
    <rc><c>Hf</c><c>   3</c></rc>
    <rc><c>Hf</c><c>   3</c></rc>
    <rc><c>Hf</c><c>   3</c></rc>
    <rc><c>Hf</c><c>   3</c></rc>
    <rc><c>Hf</c><c>   3</c></rc>
    <rc><c>Zr</c><c>   4</c></rc>
    <rc><c>Zr</c><c>   4</c></rc>
    <rc><c>Zr</c><c>   4</c></rc>
    <rc><c>Zr</c><c>   4</c></rc>
    <rc><c>Zr</c><c>   4</c></rc>
    <rc><c>Zr</c><c>   4</c></rc>
    <rc><c>Zr</c><c>   4</c></rc>
   </set>
  </array>
  <array name="atomtypes" >
   <dimension dim="1">type</dimension>
   <field type="int">atomspertype</field>
   <field type="string">element</field>
   <field>mass</field>
   <field>valence</field>
   <field type="string">pseudopotential</field>
   <set>
    <rc><c>  11</c><c>Ta</c><c>    180.94800000</c><c>      5.00000000</c><c>  PAW_PBE Ta 17Jan2003                  </c></rc>
    <rc><c>   9</c><c>Nb</c><c>     92.91000000</c><c>     13.00000000</c><c>  PAW_PBE Nb_sv 25May2007               </c></rc>
    <rc><c>   9</c><c>Hf</c><c>    178.49000000</c><c>      4.00000000</c><c>  PAW_PBE Hf 20Jan2003                  </c></rc>
    <rc><c>   7</c><c>Zr</c><c>     91.22400000</c><c>     12.00000000</c><c>  PAW_PBE Zr_sv 04Jan2005               </c></rc>
   </set>
  </array>
 </atominfo>
 <structure name="initialpos" >
  <crystal>
   <varray name="basis" >
    <v>       6.91223632       0.00853500       0.01860141 </v>
    <v>       0.01286485      10.19445451      -0.00038909 </v>
    <v>       0.02771006      -0.00069836      10.16773213 </v>
   </varray>
   <i name="volume">    716.47790662 </i>
   <varray name="rec_basis" >
    <v>       0.14467227      -0.00018258      -0.00039429 </v>
    <v>      -0.00012114       0.09809270       0.00000707 </v>
    <v>      -0.00026468       0.00000409       0.09835107 </v>
   </varray>
  </crystal>
  <varray name="positions" >
   <v>       0.24337600       0.16951200       0.51105300 </v>
   <v>       0.03643400       0.33101500       0.34324600 </v>
   <v>       0.01250900       0.33184000       0.67143400 </v>
   <v>       0.26523500       0.50225600       0.83417800 </v>
   <v>       0.28414300       0.83150700       0.51120100 </v>
   <v>       0.26370500       0.82344300       0.15162100 </v>
   <v>       0.48432100       0.33182200       0.66756600 </v>
   <v>       0.48786400       0.31762500       0.99114800 </v>
   <v>       0.24913200       0.49975000       0.50867800 </v>
   <v>       0.47979100       0.66861400       0.33106500 </v>
   <v>       0.50767200       0.00359000       0.00245600 </v>
   <v>       0.51274000       0.67367000       0.00457600 </v>
   <v>       0.73539200       0.82731800       0.83920900 </v>
   <v>       0.24725800       0.16858000       0.15933100 </v>
   <v>       0.98933200       0.67796500       0.00314100 </v>
   <v>       0.49849800       0.00970100       0.67443400 </v>
   <v>       0.73495100       0.17007300       0.82373000 </v>
   <v>       0.74206900       0.82903900       0.16513300 </v>
   <v>       0.26417000       0.16006000       0.82522500 </v>
   <v>       0.49193200       0.65713900       0.66680100 </v>
   <v>       0.26811300       0.82967800       0.83909800 </v>
   <v>       0.71723700       0.83382200       0.50267900 </v>
   <v>       0.73398600       0.49900900       0.83422600 </v>
   <v>       0.24656600       0.50760300       0.15299400 </v>
   <v>       0.01934300       0.68079200       0.33826000 </v>
   <v>       0.75583100       0.17446800       0.49817400 </v>
   <v>       0.46343400       0.33442700       0.33491900 </v>
   <v>       0.01738900       0.99320000       0.33583500 </v>
   <v>       0.75748500       0.18073600       0.17675800 </v>
   <v>       0.74829200       0.49408800       0.49815400 </v>
   <v>       0.99211600       0.99757600       0.99829300 </v>
   <v>       0.01170400       0.32365200       0.98016200 </v>
   <v>       0.00260200       0.66974600       0.66787700 </v>
   <v>       0.48439700       0.00058100       0.32081600 </v>
   <v>       0.75233200       0.49826300       0.16836300 </v>
   <v>       0.99863700       0.99785500       0.66816300 </v>
  </varray>
 </structure>
 <calculation>
  <scstep>
   <time name="dav">    1.07    1.09</time>
   <time name="total">    1.16    1.61</time>
   <energy>
    <i name="alphaZ">   1536.38966304 </i>
    <i name="ewald"> -18989.22549610 </i>
    <i name="hartreedc">  -7072.44468930 </i>
    <i name="XCdc">   -349.94832349 </i>
    <i name="pawpsdc">  21326.61790982 </i>
    <i name="pawaedc"> -19679.27816132 </i>
    <i name="eentropy">      0.00187020 </i>
    <i name="bandstr">    -54.12816467 </i>
    <i name="atom">  25105.41708605 </i>
    <i name="e_fr_energy">   1823.40169422 </i>
    <i name="e_wo_entrp">   1823.39982403 </i>
    <i name="e_0_energy">   1823.40107082 </i>
   </energy>
  </scstep>
  <scstep>
   <time name="dav">    1.00    1.14</time>
   <time name="total">    1.00    1.35</time>
   <energy>
    <i name="e_fr_energy">   -106.80097250 </i>
    <i name="e_wo_entrp">   -106.80218352 </i>
    <i name="e_0_energy">   -106.80137617 </i>
   </energy>
  </scstep>
  <scstep>
   <time name="dav">    1.36    1.37</time>
   <time name="total">    1.36    1.41</time>
   <energy>
    <i name="e_fr_energy">   -352.49334131 </i>
    <i name="e_wo_entrp">   -352.48800009 </i>
    <i name="e_0_energy">   -352.49156091 </i>
   </energy>
  </scstep>
  <scstep>
   <time name="dav">    1.37    1.37</time>
   <time name="total">    1.37    1.42</time>
   <energy>
    <i name="e_fr_energy">   -380.82077062 </i>
    <i name="e_wo_entrp">   -380.81816230 </i>
    <i name="e_0_energy">   -380.81990118 </i>
   </energy>
  </scstep>
  <scstep>
   <time name="dav">    1.33    1.34</time>
   <time name="total">    1.37    1.43</time>
   <energy>
    <i name="e_fr_energy">   -383.61226172 </i>
    <i name="e_wo_entrp">   -383.61072970 </i>
    <i name="e_0_energy">   -383.61175105 </i>
   </energy>
  </scstep>
  <scstep>
   <time name="diag">    0.08    0.08</time>
   <time name="diis">    0.72    0.72</time>
   <time name="orth">    0.01    0.01</time>
   <time name="total">    0.87    0.92</time>
   <energy>
    <i name="e_fr_energy">   -372.82001282 </i>
    <i name="e_wo_entrp">   -372.82631473 </i>
    <i name="e_0_energy">   -372.82211346 </i>
   </energy>
  </scstep>
  <scstep>
   <time name="diag">    0.07    0.07</time>
   <time name="diis">    0.72    0.73</time>
   <time name="orth">    0.01    0.01</time>
   <time name="total">    0.87    0.92</time>
   <energy>
    <i name="e_fr_energy">   -371.11576938 </i>
    <i name="e_wo_entrp">   -371.13708370 </i>
    <i name="e_0_energy">   -371.12287415 </i>
   </energy>
  </scstep>
  <scstep>
   <time name="diag">    0.08    0.08</time>
   <time name="diis">    0.85    0.86</time>
   <time name="orth">    0.01    0.01</time>
   <time name="total">    1.01    1.07</time>
   <energy>
    <i name="e_fr_energy">   -368.60751166 </i>
    <i name="e_wo_entrp">   -368.62337046 </i>
    <i name="e_0_energy">   -368.61279792 </i>
   </energy>
  </scstep>
  <scstep>
   <time name="diag">    0.14    0.14</time>
   <time name="diis">    0.76    0.89</time>
   <time name="orth">    0.01    0.01</time>
   <time name="total">    0.98    1.18</time>
   <energy>
    <i name="e_fr_energy">   -368.57584738 </i>
    <i name="e_wo_entrp">   -368.58929688 </i>
    <i name="e_0_energy">   -368.58033054 </i>
   </energy>
  </scstep>
  <scstep>
   <time name="diag">    0.08    0.08</time>
   <time name="diis">    0.88    0.88</time>
   <time name="orth">    0.01    0.01</time>
   <time name="total">    1.03    1.08</time>
   <energy>
    <i name="e_fr_energy">   -368.49748708 </i>
    <i name="e_wo_entrp">   -368.51367925 </i>
    <i name="e_0_energy">   -368.50288447 </i>
   </energy>
  </scstep>
  <scstep>
   <time name="diag">    0.13    0.13</time>
   <time name="diis">    0.79    0.79</time>
   <time name="orth">    0.01    0.01</time>
   <time name="total">    0.99    1.04</time>
   <energy>
    <i name="e_fr_energy">   -368.48100229 </i>
    <i name="e_wo_entrp">   -368.49680747 </i>
    <i name="e_0_energy">   -368.48627068 </i>
   </energy>
  </scstep>
  <scstep>
   <time name="diag">    0.08    0.08</time>
   <time name="diis">    0.77    0.79</time>
   <time name="orth">    0.01    0.01</time>
   <time name="total">    0.92    1.00</time>
   <energy>
    <i name="e_fr_energy">   -368.48043055 </i>
    <i name="e_wo_entrp">   -368.49693311 </i>
    <i name="e_0_energy">   -368.48593140 </i>
   </energy>
  </scstep>
  <scstep>
   <time name="diag">    0.08    0.08</time>
   <time name="diis">    0.84    0.84</time>
   <time name="orth">    0.01    0.01</time>
   <time name="total">    1.01    1.07</time>
   <energy>
    <i name="e_fr_energy">   -368.47980010 </i>
    <i name="e_wo_entrp">   -368.49599828 </i>
    <i name="e_0_energy">   -368.48519949 </i>
   </energy>
  </scstep>
  <scstep>
   <time name="diag">    0.08    0.08</time>
   <time name="diis">    0.85    0.85</time>
   <time name="orth">    0.01    0.01</time>
   <time name="total">    1.00    1.06</time>
   <energy>
    <i name="e_fr_energy">   -368.47989209 </i>
    <i name="e_wo_entrp">   -368.49604626 </i>
    <i name="e_0_energy">   -368.48527681 </i>
   </energy>
  </scstep>
  <scstep>
   <time name="diag">    0.08    0.08</time>
   <time name="diis">    0.79    0.80</time>
   <time name="orth">    0.01    0.01</time>
   <time name="total">    0.94    1.00</time>
   <energy>
    <i name="e_fr_energy">   -368.47997863 </i>
    <i name="e_wo_entrp">   -368.49621628 </i>
    <i name="e_0_energy">   -368.48539118 </i>
   </energy>
  </scstep>
  <scstep>
   <time name="diag">    0.15    0.16</time>
   <time name="diis">    0.58    0.74</time>
   <time name="orth">    0.01    0.02</time>
   <time name="total">    0.81    1.03</time>
   <energy>
    <i name="e_fr_energy">   -368.48001188 </i>
    <i name="e_wo_entrp">   -368.49619539 </i>
    <i name="e_0_energy">   -368.48540639 </i>
   </energy>
  </scstep>
  <scstep>
   <time name="diag">    0.08    0.09</time>
   <time name="diis">    0.60    0.61</time>
   <time name="orth">    0.01    0.01</time>
   <time name="total">    0.76    0.84</time>
   <energy>
    <i name="e_fr_energy">   -368.48002133 </i>
    <i name="e_wo_entrp">   -368.49622627 </i>
    <i name="e_0_energy">   -368.48542298 </i>
   </energy>
  </scstep>
  <scstep>
   <time name="diag">    0.08    0.08</time>
   <time name="diis">    0.59    0.60</time>
   <time name="orth">    0.01    0.01</time>
   <time name="total">    0.74    0.80</time>
   <energy>
    <i name="e_fr_energy">   -368.48003066 </i>
    <i name="e_wo_entrp">   -368.49625922 </i>
    <i name="e_0_energy">   -368.48544018 </i>
   </energy>
  </scstep>
  <scstep>
   <time name="diag">    0.10    0.10</time>
   <time name="diis">    0.50    0.51</time>
   <time name="orth">    0.01    0.01</time>
   <time name="total">    0.83    0.89</time>
   <energy>
    <i name="alphaZ">   1536.38966304 </i>
    <i name="ewald"> -18989.22549610 </i>
    <i name="hartreedc">  -6845.29490676 </i>
    <i name="XCdc">   -349.01033384 </i>
    <i name="pawpsdc">  33749.45377833 </i>
    <i name="pawaedc"> -32084.54536845 </i>
    <i name="eentropy">      0.01622327 </i>
    <i name="bandstr">  -2491.68067813 </i>
    <i name="atom">  25105.41708605 </i>
    <i name="e_fr_energy">   -368.48003258 </i>
    <i name="e_wo_entrp">   -368.49625585 </i>
    <i name="e_0_energy">   -368.48544033 </i>
   </energy>
  </scstep>
  <structure>
   <crystal>
    <varray name="basis" >
     <v>       6.91223632       0.00853500       0.01860141 </v>
     <v>       0.01286485      10.19445451      -0.00038909 </v>
     <v>       0.02771006      -0.00069836      10.16773213 </v>
    </varray>
    <i name="volume">    716.47790662 </i>
    <varray name="rec_basis" >
     <v>       0.14467227      -0.00018258      -0.00039429 </v>
     <v>      -0.00012114       0.09809270       0.00000707 </v>
     <v>      -0.00026468       0.00000409       0.09835107 </v>
    </varray>
   </crystal>
   <varray name="positions" >
    <v>       0.24337600       0.16951200       0.51105300 </v>
    <v>       0.03643400       0.33101500       0.34324600 </v>
    <v>       0.01250900       0.33184000       0.67143400 </v>
    <v>       0.26523500       0.50225600       0.83417800 </v>
    <v>       0.28414300       0.83150700       0.51120100 </v>
    <v>       0.26370500       0.82344300       0.15162100 </v>
    <v>       0.48432100       0.33182200       0.66756600 </v>
    <v>       0.48786400       0.31762500       0.99114800 </v>
    <v>       0.24913200       0.49975000       0.50867800 </v>
    <v>       0.47979100       0.66861400       0.33106500 </v>
    <v>       0.50767200       0.00359000       0.00245600 </v>
    <v>       0.51274000       0.67367000       0.00457600 </v>
    <v>       0.73539200       0.82731800       0.83920900 </v>
    <v>       0.24725800       0.16858000       0.15933100 </v>
    <v>       0.98933200       0.67796500       0.00314100 </v>
    <v>       0.49849800       0.00970100       0.67443400 </v>
    <v>       0.73495100       0.17007300       0.82373000 </v>
    <v>       0.74206900       0.82903900       0.16513300 </v>
    <v>       0.26417000       0.16006000       0.82522500 </v>
    <v>       0.49193200       0.65713900       0.66680100 </v>
    <v>       0.26811300       0.82967800       0.83909800 </v>
    <v>       0.71723700       0.83382200       0.50267900 </v>
    <v>       0.73398600       0.49900900       0.83422600 </v>
    <v>       0.24656600       0.50760300       0.15299400 </v>
    <v>       0.01934300       0.68079200       0.33826000 </v>
    <v>       0.75583100       0.17446800       0.49817400 </v>
    <v>       0.46343400       0.33442700       0.33491900 </v>
    <v>       0.01738900       0.99320000       0.33583500 </v>
    <v>       0.75748500       0.18073600       0.17675800 </v>
    <v>       0.74829200       0.49408800       0.49815400 </v>
    <v>       0.99211600       0.99757600       0.99829300 </v>
    <v>       0.01170400       0.32365200       0.98016200 </v>
    <v>       0.00260200       0.66974600       0.66787700 </v>
    <v>       0.48439700       0.00058100       0.32081600 </v>
    <v>       0.75233200       0.49826300       0.16836300 </v>
    <v>       0.99863700       0.99785500       0.66816300 </v>
   </varray>
  </structure>
  <varray name="forces" >
   <v>       0.03232978       0.01337760      -0.02192750 </v>
   <v>      -0.00030960      -0.01768651       0.01245052 </v>
   <v>       0.00372968       0.10360753       0.00678963 </v>
   <v>       0.01390221       0.00979343       0.00388559 </v>
   <v>       0.04116173      -0.02666192      -0.04115034 </v>
   <v>       0.00228370      -0.00201526       0.00104098 </v>
   <v>      -0.01138054      -0.01225396       0.00114768 </v>
   <v>      -0.00794670       0.00053931      -0.00907043 </v>
   <v>       0.01476214       0.01362047      -0.01161591 </v>
   <v>      -0.01634296       0.01019628       0.02154054 </v>
   <v>       0.00335340      -0.00438700       0.00266833 </v>
   <v>      -0.00056599       0.00207746      -0.01449070 </v>
   <v>      -0.02976420      -0.02732714       0.03294972 </v>
   <v>       0.00447052       0.00830179      -0.00263154 </v>
   <v>      -0.00433635       0.01499831      -0.00513965 </v>
   <v>       0.00510292       0.00800845       0.01484455 </v>
   <v>       0.00370755       0.00512798       0.01298703 </v>
   <v>       0.00027374      -0.00143302      -0.00362474 </v>
   <v>      -0.00654998       0.02362390       0.00969792 </v>
   <v>      -0.00717292       0.01160748       0.00887793 </v>
   <v>       0.03272847      -0.04772055       0.02956200 </v>
   <v>      -0.01588102      -0.04574950      -0.03937129 </v>
   <v>      -0.00626125       0.00488085       0.00173421 </v>
   <v>       0.00932164       0.00217862      -0.00395677 </v>
   <v>       0.00425649       0.01962444      -0.00146563 </v>
   <v>      -0.02854772       0.03915094      -0.03038742 </v>
   <v>       0.00085284      -0.00530032       0.01919157 </v>
   <v>       0.00806412       0.00821822      -0.09900161 </v>
   <v>      -0.01002062      -0.00151986      -0.00265277 </v>
   <v>      -0.00819326       0.00019686      -0.01546097 </v>
   <v>       0.00172162       0.00131134       0.08132685 </v>
   <v>       0.00650636      -0.02106243      -0.00822412 </v>
   <v>       0.00290686      -0.10935337       0.01023720 </v>
   <v>      -0.00929077      -0.00353340       0.02559630 </v>
   <v>      -0.00661119       0.00710053       0.00142597 </v>
   <v>      -0.02226071       0.01846246       0.01221684 </v>
  </varray>
  <varray name="stress" >
   <v>       1.09902753      -0.15848592       0.00891774 </v>
   <v>      -0.15848590       1.00921072      -0.20304105 </v>
   <v>       0.00891774      -0.20304108       0.93333392 </v>
  </varray>
  <energy>
   <i name="e_fr_energy">   -368.48003258 </i>
   <i name="e_wo_entrp">   -368.48544033 </i>
   <i name="e_0_energy">      0.01622327 </i>
  </energy>
  <time name="totalsc">   20.63   23.00</time>
 </calculation>
 <calculation>
  <scstep>
   <time name="dav">    1.08    1.08</time>
   <time name="total">    1.18    1.41</time>
   <energy>
    <i name="alphaZ">   1535.54985218 </i>
    <i name="ewald"> -18986.11432167 </i>
    <i name="hartreedc">  -6843.71163651 </i>
    <i name="XCdc">   -349.16584742 </i>
    <i name="pawpsdc">  33749.35044531 </i>
    <i name="pawaedc"> -32084.43427216 </i>
    <i name="eentropy">      0.01619166 </i>
    <i name="bandstr">  -2495.38914702 </i>
    <i name="atom">  25105.41708605 </i>
    <i name="e_fr_energy">   -368.48164959 </i>
    <i name="e_wo_entrp">   -368.49784125 </i>
    <i name="e_0_energy">   -368.48704681 </i>
   </energy>
  </scstep>
  <scstep>
   <time name="diag">    0.08    0.08</time>
   <time name="diis">    0.76    0.77</time>
   <time name="orth">    0.01    0.01</time>
   <time name="total">    0.98    1.02</time>
   <energy>
    <i name="e_fr_energy">   -368.48139792 </i>
    <i name="e_wo_entrp">   -368.49763112 </i>
    <i name="e_0_energy">   -368.48680899 </i>
   </energy>
  </scstep>
  <scstep>
   <time name="diag">    0.08    0.08</time>
   <time name="diis">    0.79    0.79</time>
   <time name="orth">    0.01    0.01</time>
   <time name="total">    0.95    1.00</time>
   <energy>
    <i name="e_fr_energy">   -368.48124899 </i>
    <i name="e_wo_entrp">   -368.49750764 </i>
    <i name="e_0_energy">   -368.48666854 </i>
   </energy>
  </scstep>
  <scstep>
   <time name="diag">    0.08    0.08</time>
   <time name="diis">    0.79    0.81</time>
   <time name="orth">    0.02    0.02</time>
   <time name="total">    0.95    1.02</time>
   <energy>
    <i name="e_fr_energy">   -368.48115499 </i>
    <i name="e_wo_entrp">   -368.49735509 </i>
    <i name="e_0_energy">   -368.48655503 </i>
   </energy>
  </scstep>
  <scstep>
   <time name="diag">    0.07    0.08</time>
   <time name="diis">    0.62    0.63</time>
   <time name="orth">    0.01    0.01</time>
   <time name="total">    0.77    0.82</time>
   <energy>
    <i name="e_fr_energy">   -368.48113963 </i>
    <i name="e_wo_entrp">   -368.49738259 </i>
    <i name="e_0_energy">   -368.48655395 </i>
   </energy>
  </scstep>
  <scstep>
   <time name="diag">    0.08    0.08</time>
   <time name="diis">    0.36    0.37</time>
   <time name="orth">    0.01    0.01</time>
   <time name="total">    0.48    0.54</time>
   <energy>
    <i name="alphaZ">   1535.54985218 </i>
    <i name="ewald"> -18986.11432167 </i>
    <i name="hartreedc">  -6846.00362606 </i>
    <i name="XCdc">   -349.06877024 </i>
    <i name="pawpsdc">  33723.80530042 </i>
    <i name="pawaedc"> -32058.80573846 </i>
    <i name="eentropy">      0.01622518 </i>
    <i name="bandstr">  -2493.27714264 </i>
    <i name="atom">  25105.41708605 </i>
    <i name="e_fr_energy">   -368.48113525 </i>
    <i name="e_wo_entrp">   -368.49736043 </i>
    <i name="e_0_energy">   -368.48654364 </i>
   </energy>
  </scstep>
  <structure>
   <crystal>
    <varray name="basis" >
     <v>       6.91360185       0.00833892       0.01861530 </v>
     <v>       0.01257693      10.19630380      -0.00076126 </v>
     <v>       0.02773186      -0.00107043      10.16943830 </v>
    </varray>
    <i name="volume">    716.86975709 </i>
    <varray name="rec_basis" >
     <v>       0.14464368      -0.00017844      -0.00039446 </v>
     <v>      -0.00011832       0.09807490       0.00001065 </v>
     <v>      -0.00026478       0.00000767       0.09833457 </v>
    </varray>
   </crystal>
   <varray name="positions" >
    <v>       0.24344378       0.16953093       0.51102167 </v>
    <v>       0.03643333       0.33098989       0.34326372 </v>
    <v>       0.01251650       0.33198708       0.67144366 </v>
    <v>       0.26526406       0.50226988       0.83418348 </v>
    <v>       0.28422949       0.83146907       0.51114227 </v>
    <v>       0.26370978       0.82344014       0.15162247 </v>
    <v>       0.48429720       0.33180462       0.66756768 </v>
    <v>       0.48784741       0.31762578       0.99113512 </v>
    <v>       0.24916294       0.49976931       0.50866141 </v>
    <v>       0.47975663       0.66862851       0.33109572 </v>
    <v>       0.50767902       0.00358377       0.00245979 </v>
    <v>       0.51273889       0.67367295       0.00455538 </v>
    <v>       0.73532956       0.82727926       0.83925601 </v>
    <v>       0.24726735       0.16859178       0.15932724 </v>
    <v>       0.98932291       0.67798630       0.00313370 </v>
    <v>       0.49850858       0.00971236       0.67445511 </v>
    <v>       0.73495868       0.17008027       0.82374847 </v>
    <v>       0.74206960       0.82903696       0.16512784 </v>
    <v>       0.26415617       0.16009355       0.82523883 </v>
    <v>       0.49191690       0.65715549       0.66681367 </v>
    <v>       0.26818148       0.82961020       0.83913995 </v>
    <v>       0.71720409       0.83375707       0.50262302 </v>
    <v>       0.73397287       0.49901594       0.83422849 </v>
    <v>       0.24658553       0.50760608       0.15298833 </v>
    <v>       0.01935187       0.68081985       0.33825790 </v>
    <v>       0.75577130       0.17452363       0.49813086 </v>
    <v>       0.46343569       0.33441948       0.33494631 </v>
    <v>       0.01740643       0.99321164       0.33569405 </v>
    <v>       0.75746404       0.18073386       0.17675426 </v>
    <v>       0.74827493       0.49408829       0.49813202 </v>
    <v>       0.99211914       0.99757787       0.99840876 </v>
    <v>       0.01171773       0.32362209       0.98015027 </v>
    <v>       0.00260832       0.66959075       0.66789155 </v>
    <v>       0.48437741       0.00057600       0.32085247 </v>
    <v>       0.75231813       0.49827309       0.16836506 </v>
    <v>       0.99859027       0.99788125       0.66818048 </v>
   </varray>
  </structure>
  <varray name="forces" >
   <v>       0.02607248       0.01283684      -0.01486873 </v>
   <v>       0.00188689      -0.01630155       0.01128298 </v>
   <v>       0.00533055       0.09557253       0.00265816 </v>
   <v>       0.01390844       0.00628314       0.00272507 </v>
   <v>       0.03402397      -0.02387029      -0.03400913 </v>
   <v>       0.00352426      -0.00261460       0.00012820 </v>
   <v>      -0.01064181      -0.01032176       0.00131065 </v>
   <v>      -0.00831431      -0.00077605      -0.00951765 </v>
   <v>       0.01402430       0.01137332      -0.01013892 </v>
   <v>      -0.01700385       0.00825178       0.01694289 </v>
   <v>       0.00271995      -0.00409442       0.00180873 </v>
   <v>       0.00144148       0.00223932      -0.01075366 </v>
   <v>      -0.02569254      -0.02448141       0.03122154 </v>
   <v>       0.00576248       0.00792391      -0.00204746 </v>
   <v>      -0.00533327       0.01498807      -0.00394741 </v>
   <v>       0.00493101       0.00748697       0.01343076 </v>
   <v>       0.00195141       0.00524787       0.01269144 </v>
   <v>      -0.00077675      -0.00037295      -0.00428145 </v>
   <v>      -0.00560686       0.02191807       0.00778193 </v>
   <v>      -0.00547571       0.01100626       0.00721966 </v>
   <v>       0.02747407      -0.04142137       0.02701351 </v>
   <v>      -0.01233686      -0.04231574      -0.03513015 </v>
   <v>      -0.00770891       0.00304787       0.00049486 </v>
   <v>       0.00769476       0.00175883      -0.00285071 </v>
   <v>       0.00618037       0.01864475      -0.00115770 </v>
   <v>      -0.02322512       0.03610165      -0.02585821 </v>
   <v>      -0.00203600      -0.00408792       0.01595926 </v>
   <v>       0.00736301       0.00912144      -0.08945403 </v>
   <v>      -0.01105822      -0.00048422      -0.00291968 </v>
   <v>      -0.00745124      -0.00051245      -0.01320284 </v>
   <v>       0.00254782      -0.00107825       0.07286918 </v>
   <v>       0.00585976      -0.01917562      -0.00931032 </v>
   <v>       0.00413608      -0.10157603       0.00926667 </v>
   <v>      -0.00878181      -0.00322860       0.02195372 </v>
   <v>      -0.00600514       0.00652439       0.00158566 </v>
   <v>      -0.01938468       0.01638619       0.01110319 </v>
  </varray>
  <varray name="stress" >
   <v>       0.41382269      -0.14301375      -0.00012507 </v>
   <v>      -0.14301375       0.30896147      -0.17848484 </v>
   <v>      -0.00012507      -0.17848481       0.24760311 </v>
  </varray>
  <energy>
   <i name="e_fr_energy">   -368.48113525 </i>
   <i name="e_wo_entrp">   -368.48654364 </i>
   <i name="e_0_energy">      0.01622518 </i>
  </energy>
  <time name="totalsc">    6.97    7.62</time>
 </calculation>
 <calculation>
  <scstep>
   <time name="dav">    0.97    1.07</time>
   <time name="total">    1.08    1.41</time>
   <energy>
    <i name="alphaZ">   1533.03413261 </i>
    <i name="ewald"> -18976.76163734 </i>
    <i name="hartreedc">  -6841.17693262 </i>
    <i name="XCdc">   -349.53664099 </i>
    <i name="pawpsdc">  33725.32776471 </i>
    <i name="pawaedc"> -32060.35103750 </i>
    <i name="eentropy">      0.01610711 </i>
    <i name="bandstr">  -2504.45636867 </i>
    <i name="atom">  25105.41708605 </i>
    <i name="e_fr_energy">   -368.48752665 </i>
    <i name="e_wo_entrp">   -368.50363376 </i>
    <i name="e_0_energy">   -368.49289568 </i>
   </energy>
  </scstep>
  <scstep>
   <time name="diag">    0.08    0.08</time>
   <time name="diis">    0.79    0.80</time>
   <time name="orth">    0.01    0.01</time>
   <time name="total">    0.95    0.99</time>
   <energy>
    <i name="e_fr_energy">   -368.48496989 </i>
    <i name="e_wo_entrp">   -368.50119580 </i>
    <i name="e_0_energy">   -368.49037853 </i>
   </energy>
  </scstep>
  <scstep>
   <time name="diag">    0.08    0.08</time>
   <time name="diis">    0.79    0.79</time>
   <time name="orth">    0.01    0.01</time>
   <time name="total">    0.94    0.99</time>
   <energy>
    <i name="e_fr_energy">   -368.48362842 </i>
    <i name="e_wo_entrp">   -368.49992756 </i>
    <i name="e_0_energy">   -368.48906147 </i>
   </energy>
  </scstep>
  <scstep>
   <time name="diag">    0.08    0.08</time>
   <time name="diis">    0.79    0.80</time>
   <time name="orth">    0.01    0.01</time>
   <time name="total">    0.95    1.00</time>
   <energy>
    <i name="e_fr_energy">   -368.48281018 </i>
    <i name="e_wo_entrp">   -368.49893675 </i>
    <i name="e_0_energy">   -368.48818570 </i>
   </energy>
  </scstep>
  <scstep>
   <time name="diag">    0.08    0.08</time>
   <time name="diis">    0.79    0.80</time>
   <time name="orth">    0.01    0.01</time>
   <time name="total">    0.95    1.00</time>
   <energy>
    <i name="e_fr_energy">   -368.48270769 </i>
    <i name="e_wo_entrp">   -368.49896116 </i>
    <i name="e_0_energy">   -368.48812551 </i>
   </energy>
  </scstep>
  <scstep>
   <time name="diag">    0.09    0.09</time>
   <time name="diis">    0.73    0.73</time>
   <time name="orth">    0.01    0.01</time>
   <time name="total">    0.89    0.94</time>
   <energy>
    <i name="e_fr_energy">   -368.48271836 </i>
    <i name="e_wo_entrp">   -368.49891720 </i>
    <i name="e_0_energy">   -368.48811797 </i>
   </energy>
  </scstep>
  <scstep>
   <time name="diag">    0.08    0.08</time>
   <time name="diis">    0.64    0.65</time>
   <time name="orth">    0.01    0.01</time>
   <time name="total">    0.80    0.85</time>
   <energy>
    <i name="e_fr_energy">   -368.48271301 </i>
    <i name="e_wo_entrp">   -368.49894272 </i>
    <i name="e_0_energy">   -368.48812291 </i>
   </energy>
  </scstep>
  <scstep>
   <time name="diag">    0.08    0.08</time>
   <time name="diis">    0.45    0.46</time>
   <time name="orth">    0.01    0.01</time>
   <time name="total">    0.58    0.62</time>
   <energy>
    <i name="alphaZ">   1533.03413261 </i>
    <i name="ewald"> -18976.76163734 </i>
    <i name="hartreedc">  -6847.74115717 </i>
    <i name="XCdc">   -349.25760009 </i>
    <i name="pawpsdc">  33654.40831719 </i>
    <i name="pawaedc"> -31989.42051272 </i>
    <i name="eentropy">      0.01622646 </i>
    <i name="bandstr">  -2498.17757000 </i>
    <i name="atom">  25105.41708605 </i>
    <i name="e_fr_energy">   -368.48271502 </i>
    <i name="e_wo_entrp">   -368.49894147 </i>
    <i name="e_0_energy">   -368.48812384 </i>
   </energy>
  </scstep>
  <structure>
   <crystal>
    <varray name="basis" >
     <v>       6.91769844       0.00775068       0.01865697 </v>
     <v>       0.01171315      10.20185167      -0.00187777 </v>
     <v>       0.02779725      -0.00218663      10.17455679 </v>
    </varray>
    <i name="volume">    718.04614529 </i>
    <varray name="rec_basis" >
     <v>       0.14455800      -0.00016605      -0.00039497 </v>
     <v>      -0.00010988       0.09802155       0.00002137 </v>
     <v>      -0.00026509       0.00001839       0.09828511 </v>
    </varray>
   </crystal>
   <varray name="positions" >
    <v>       0.24364709       0.16958772       0.51092768 </v>
    <v>       0.03643131       0.33091459       0.34331688 </v>
    <v>       0.01253900       0.33242825       0.67147264 </v>
    <v>       0.26535123       0.50231151       0.83419991 </v>
    <v>       0.28448891       0.83135531       0.51096609 </v>
    <v>       0.26372412       0.82343154       0.15162689 </v>
    <v>       0.48422580       0.33175250       0.66757270 </v>
    <v>       0.48779766       0.31762811       0.99109648 </v>
    <v>       0.24925574       0.49982723       0.50861165 </v>
    <v>       0.47965355       0.66867202       0.33118788 </v>
    <v>       0.50770007       0.00356507       0.00247114 </v>
    <v>       0.51273557       0.67368179       0.00449351 </v>
    <v>       0.73514229       0.82716306       0.83939703 </v>
    <v>       0.24729541       0.16862710       0.15931595 </v>
    <v>       0.98929565       0.67805019       0.00311181 </v>
    <v>       0.49854031       0.00974644       0.67451843 </v>
    <v>       0.73498170       0.17010210       0.82380388 </v>
    <v>       0.74207139       0.82903086       0.16511236 </v>
    <v>       0.26411468       0.16019419       0.82528032 </v>
    <v>       0.49187161       0.65720496       0.66685166 </v>
    <v>       0.26838689       0.82940684       0.83926577 </v>
    <v>       0.71710539       0.83356232       0.50245509 </v>
    <v>       0.73393348       0.49903676       0.83423597 </v>
    <v>       0.24664413       0.50761530       0.15297133 </v>
    <v>       0.01937847       0.68090340       0.33825160 </v>
    <v>       0.75559223       0.17469048       0.49800146 </v>
    <v>       0.46344076       0.33439691       0.33502824 </v>
    <v>       0.01745870       0.99324655       0.33527127 </v>
    <v>       0.75740116       0.18072744       0.17674305 </v>
    <v>       0.74822374       0.49408917       0.49806611 </v>
    <v>       0.99212855       0.99758348       0.99875596 </v>
    <v>       0.01175889       0.32353236       0.98011507 </v>
    <v>       0.00262724       0.66912508       0.66793519 </v>
    <v>       0.48431865       0.00056102       0.32096186 </v>
    <v>       0.75227653       0.49830336       0.16837122 </v>
    <v>       0.99845012       0.99795999       0.66823290 </v>
   </varray>
  </structure>
  <varray name="forces" >
   <v>       0.01030028       0.01111915       0.00357248 </v>
   <v>       0.00918771      -0.01309526       0.00874158 </v>
   <v>       0.01175207       0.07205761      -0.00957096 </v>
   <v>       0.01377462      -0.00260147       0.00111128 </v>
   <v>       0.01421841      -0.01502166      -0.01386608 </v>
   <v>       0.00700085      -0.00736814      -0.00314956 </v>
   <v>      -0.01073748      -0.00725441       0.00122467 </v>
   <v>      -0.00920144      -0.00493822      -0.01184839 </v>
   <v>       0.01238154       0.00399477      -0.00695283 </v>
   <v>      -0.02009204       0.00221467       0.00392556 </v>
   <v>       0.00175578      -0.00245037      -0.00117238 </v>
   <v>       0.00317410       0.00213416      -0.00130574 </v>
   <v>      -0.01550047      -0.01889364       0.02751455 </v>
   <v>       0.00989688       0.01031299       0.00099092 </v>
   <v>      -0.00520795       0.01493360       0.00182249 </v>
   <v>       0.00348833       0.00619958       0.00880916 </v>
   <v>      -0.00396602       0.00647996       0.01097080 </v>
   <v>      -0.00302380       0.00093230      -0.00639552 </v>
   <v>      -0.00236988       0.01788543       0.00054156 </v>
   <v>      -0.00338649       0.00928259       0.00086676 </v>
   <v>       0.01306263      -0.02549642       0.02064217 </v>
   <v>      -0.00313551      -0.03101219      -0.02270749 </v>
   <v>      -0.01149992      -0.00070786       0.00014800 </v>
   <v>       0.00309189       0.00216865      -0.00027972 </v>
   <v>       0.01285228       0.01562874      -0.00229322 </v>
   <v>      -0.00938803       0.02661384      -0.01291115 </v>
   <v>      -0.01199285      -0.00175944       0.00813496 </v>
   <v>       0.00691610       0.01242602      -0.06056956 </v>
   <v>      -0.01391829       0.00454991      -0.00258833 </v>
   <v>      -0.00705995      -0.00282171      -0.00690746 </v>
   <v>       0.00534585      -0.00758999       0.04981733 </v>
   <v>       0.00487328      -0.01486797      -0.01157882 </v>
   <v>       0.00939533      -0.07846256       0.00553213 </v>
   <v>      -0.00673934      -0.00152663       0.01316038 </v>
   <v>      -0.00463573       0.00618801       0.00038688 </v>
   <v>      -0.01061276       0.01074592       0.00618354 </v>
  </varray>
  <varray name="stress" >
   <v>      -1.72288828      -0.05277372      -0.01972335 </v>
   <v>      -0.05277373      -1.82265721      -0.07914394 </v>
   <v>      -0.01972335      -0.07914403      -1.82548345 </v>
  </varray>
  <energy>
   <i name="e_fr_energy">   -368.48271502 </i>
   <i name="e_wo_entrp">   -368.48812384 </i>
   <i name="e_0_energy">      0.01622646 </i>
  </energy>
  <time name="totalsc">    8.71    9.55</time>
 </calculation>
 <calculation>
  <scstep>
   <time name="dav">    1.08    1.09</time>
   <time name="total">    1.17    1.39</time>
   <energy>
    <i name="alphaZ">   1533.70643950 </i>
    <i name="ewald"> -18979.95171198 </i>
    <i name="hartreedc">  -6848.27542998 </i>
    <i name="XCdc">   -349.13465514 </i>
    <i name="pawpsdc">  33654.85354582 </i>
    <i name="pawaedc"> -31989.93445089 </i>
    <i name="eentropy">      0.01621882 </i>
    <i name="bandstr">  -2495.18108140 </i>
    <i name="atom">  25105.41708605 </i>
    <i name="e_fr_energy">   -368.48403919 </i>
    <i name="e_wo_entrp">   -368.50025801 </i>
    <i name="e_0_energy">   -368.48944546 </i>
   </energy>
  </scstep>
  <scstep>
   <time name="diag">    0.08    0.08</time>
   <time name="diis">    0.63    0.83</time>
   <time name="orth">    0.01    0.01</time>
   <time name="total">    0.81    1.04</time>
   <energy>
    <i name="e_fr_energy">   -368.48405296 </i>
    <i name="e_wo_entrp">   -368.50025745 </i>
    <i name="e_0_energy">   -368.48945446 </i>
   </energy>
  </scstep>
  <scstep>
   <time name="diag">    0.07    0.08</time>
   <time name="diis">    0.80    0.80</time>
   <time name="orth">    0.01    0.01</time>
   <time name="total">    0.95    0.99</time>
   <energy>
    <i name="e_fr_energy">   -368.48383448 </i>
    <i name="e_wo_entrp">   -368.50003570 </i>
    <i name="e_0_energy">   -368.48923489 </i>
   </energy>
  </scstep>
  <scstep>
   <time name="diag">    0.07    0.07</time>
   <time name="diis">    0.77    0.78</time>
   <time name="orth">    0.01    0.01</time>
   <time name="total">    0.92    0.98</time>
   <energy>
    <i name="e_fr_energy">   -368.48377015 </i>
    <i name="e_wo_entrp">   -368.50000881 </i>
    <i name="e_0_energy">   -368.48918303 </i>
   </energy>
  </scstep>
  <scstep>
   <time name="diag">    0.08    0.08</time>
   <time name="diis">    0.65    0.65</time>
   <time name="orth">    0.01    0.01</time>
   <time name="total">    0.82    0.87</time>
   <energy>
    <i name="e_fr_energy">   -368.48375881 </i>
    <i name="e_wo_entrp">   -368.49998525 </i>
    <i name="e_0_energy">   -368.48916762 </i>
   </energy>
  </scstep>
  <scstep>
   <time name="diag">    0.08    0.08</time>
   <time name="diis">    0.36    0.37</time>
   <time name="orth">    0.01    0.01</time>
   <time name="total">    0.49    0.54</time>
   <energy>
    <i name="alphaZ">   1533.70643950 </i>
    <i name="ewald"> -18979.95171198 </i>
    <i name="hartreedc">  -6846.26328025 </i>
    <i name="XCdc">   -349.21904369 </i>
    <i name="pawpsdc">  33674.48958361 </i>
    <i name="pawaedc"> -32009.78382809 </i>
    <i name="eentropy">      0.01621842 </i>
    <i name="bandstr">  -2496.89522688 </i>
    <i name="atom">  25105.41708605 </i>
    <i name="e_fr_energy">   -368.48376330 </i>
    <i name="e_wo_entrp">   -368.49998172 </i>
    <i name="e_0_energy">   -368.48916944 </i>
   </energy>
  </scstep>
  <structure>
   <crystal>
    <varray name="basis" >
     <v>       6.91683338       0.00755403       0.01864056 </v>
     <v>       0.01142444      10.20030398      -0.00226353 </v>
     <v>       0.02777455      -0.00257209      10.17291138 </v>
    </varray>
    <i name="volume">    717.73138664 </i>
    <varray name="rec_basis" >
     <v>       0.14457607      -0.00016201      -0.00039477 </v>
     <v>      -0.00010714       0.09803642       0.00002508 </v>
     <v>      -0.00026494       0.00002211       0.09830101 </v>
    </varray>
   </crystal>
   <varray name="positions" >
    <v>       0.24371309       0.16961446       0.51090992 </v>
    <v>       0.03644717       0.33088110       0.34333990 </v>
    <v>       0.01256512       0.33261873       0.67146784 </v>
    <v>       0.26539620       0.50231812       0.83420507 </v>
    <v>       0.28457517       0.83131046       0.51090792 </v>
    <v>       0.26373998       0.82342062       0.15162409 </v>
    <v>       0.48418994       0.33173153       0.66757540 </v>
    <v>       0.48776967       0.31762271       0.99107311 </v>
    <v>       0.24929958       0.49984562       0.50859152 </v>
    <v>       0.47959357       0.66868493       0.33121432 </v>
    <v>       0.50770814       0.00355772       0.00247238 </v>
    <v>       0.51274044       0.67368644       0.00447741 </v>
    <v>       0.73507066       0.82711302       0.83946346 </v>
    <v>       0.24731959       0.16864783       0.15931448 </v>
    <v>       0.98927994       0.67808321       0.00310891 </v>
    <v>       0.49855391       0.00976192       0.67454394 </v>
    <v>       0.73497997       0.17011505       0.82383017 </v>
    <v>       0.74206646       0.82903055       0.16510100 </v>
    <v>       0.26410070       0.16023939       0.82529072 </v>
    <v>       0.49185493       0.65722778       0.66686163 </v>
    <v>       0.26845828       0.82932834       0.83932023 </v>
    <v>       0.71707682       0.83347919       0.50238820 </v>
    <v>       0.73390376       0.49904080       0.83423794 </v>
    <v>       0.24666337       0.50762008       0.15296700 </v>
    <v>       0.01940758       0.68094185       0.33824731 </v>
    <v>       0.75553352       0.17476175       0.49795551 </v>
    <v>       0.46342056       0.33438951       0.33505735 </v>
    <v>       0.01748355       0.99326971       0.33509874 </v>
    <v>       0.75736164       0.18073144       0.17673733 </v>
    <v>       0.74819920       0.49408597       0.49804230 </v>
    <v>       0.99214004       0.99757565       0.99889771 </v>
    <v>       0.01177731       0.32349335       0.98009278 </v>
    <v>       0.00264853       0.66892110       0.66795207 </v>
    <v>       0.48429281       0.00055567       0.32100348 </v>
    <v>       0.75225851       0.49831794       0.16837315 </v>
    <v>       0.99839829       0.99799145       0.66825272 </v>
   </varray>
  </structure>
  <varray name="forces" >
   <v>       0.00628254       0.00579285       0.00625832 </v>
   <v>       0.00499537      -0.01052522       0.00471860 </v>
   <v>       0.00948416       0.06373611      -0.01305612 </v>
   <v>       0.01069499      -0.00457721       0.00164022 </v>
   <v>       0.00329835      -0.00880617      -0.00748573 </v>
   <v>       0.00494356      -0.00316984      -0.00104557 </v>
   <v>      -0.00634414      -0.00500063      -0.00036853 </v>
   <v>      -0.00689807      -0.00341581      -0.00799924 </v>
   <v>       0.01172574       0.00397690      -0.00605414 </v>
   <v>      -0.01627891      -0.00282258      -0.00042174 </v>
   <v>       0.00127689      -0.00048226      -0.00066987 </v>
   <v>       0.00421202      -0.00176250       0.00202632 </v>
   <v>      -0.00906956      -0.01441237       0.02182778 </v>
   <v>       0.01059927       0.00766414       0.00205414 </v>
   <v>      -0.00521982       0.01138611       0.00277909 </v>
   <v>       0.00473858       0.00426246       0.00654849 </v>
   <v>      -0.00155514       0.00429398       0.01111777 </v>
   <v>      -0.00167992       0.00397381      -0.00421972 </v>
   <v>      -0.00599419       0.01467475       0.00000009 </v>
   <v>       0.00008398       0.00889123      -0.00101038 </v>
   <v>       0.00526621      -0.01915509       0.01638485 </v>
   <v>       0.00428416      -0.02578003      -0.01887997 </v>
   <v>      -0.00999563      -0.00277921      -0.00014226 </v>
   <v>       0.00031195      -0.00084999       0.00066438 </v>
   <v>       0.01064242       0.01278837      -0.00281468 </v>
   <v>      -0.00586947       0.02121684      -0.01024447 </v>
   <v>      -0.00898092      -0.00122586       0.00360169 </v>
   <v>       0.00426570       0.01434034      -0.05011845 </v>
   <v>      -0.01443931       0.00500906      -0.00244132 </v>
   <v>      -0.00683373      -0.00255687      -0.00583954 </v>
   <v>       0.00664250      -0.00688920       0.04030620 </v>
   <v>       0.00208985      -0.01275576      -0.00809909 </v>
   <v>       0.00884141      -0.06829381       0.00454531 </v>
   <v>      -0.00342140       0.00129656       0.01100773 </v>
   <v>      -0.00352917       0.00404671       0.00082833 </v>
   <v>      -0.00857028       0.00791018       0.00460152 </v>
  </varray>
  <varray name="stress" >
   <v>      -1.32675537      -0.01943678      -0.02448993 </v>
   <v>      -0.01943679      -1.44286741      -0.03656239 </v>
   <v>      -0.02448991      -0.03656243      -1.44932406 </v>
  </varray>
  <energy>
   <i name="e_fr_energy">   -368.48376330 </i>
   <i name="e_wo_entrp">   -368.48916944 </i>
   <i name="e_0_energy">      0.01621842 </i>
  </energy>
  <time name="totalsc">    6.88    7.74</time>
 </calculation>
 <calculation>
  <scstep>
   <time name="dav">    1.07    1.10</time>
   <time name="total">    1.19    1.43</time>
   <energy>
    <i name="alphaZ">   1535.72576812 </i>
    <i name="ewald"> -18989.48828923 </i>
    <i name="hartreedc">  -6848.02950977 </i>
    <i name="XCdc">   -348.84340138 </i>
    <i name="pawpsdc">  33673.35235398 </i>
    <i name="pawaedc"> -32008.64304408 </i>
    <i name="eentropy">      0.01616369 </i>
    <i name="bandstr">  -2487.99458701 </i>
    <i name="atom">  25105.41708605 </i>
    <i name="e_fr_energy">   -368.48745964 </i>
    <i name="e_wo_entrp">   -368.50362333 </i>
    <i name="e_0_energy">   -368.49284754 </i>
   </energy>
  </scstep>
  <scstep>
   <time name="diag">    0.07    0.07</time>
   <time name="diis">    0.74    0.74</time>
   <time name="orth">    0.01    0.01</time>
   <time name="total">    0.89    0.93</time>
   <energy>
    <i name="e_fr_energy">   -368.48755454 </i>
    <i name="e_wo_entrp">   -368.50369650 </i>
    <i name="e_0_energy">   -368.49293519 </i>
   </energy>
  </scstep>
  <scstep>
   <time name="diag">    0.07    0.07</time>
   <time name="diis">    0.88    0.88</time>
   <time name="orth">    0.01    0.01</time>
   <time name="total">    1.03    1.08</time>
   <energy>
    <i name="e_fr_energy">   -368.48570702 </i>
    <i name="e_wo_entrp">   -368.50183037 </i>
    <i name="e_0_energy">   -368.49108147 </i>
   </energy>
  </scstep>
  <scstep>
   <time name="diag">    0.07    0.07</time>
   <time name="diis">    0.89    0.90</time>
   <time name="orth">    0.02    0.02</time>
   <time name="total">    1.07    1.13</time>
   <energy>
    <i name="e_fr_energy">   -368.48520987 </i>
    <i name="e_wo_entrp">   -368.50144717 </i>
    <i name="e_0_energy">   -368.49062230 </i>
   </energy>
  </scstep>
  <scstep>
   <time name="diag">    0.10    0.10</time>
   <time name="diis">    0.79    0.80</time>
   <time name="orth">    0.01    0.01</time>
   <time name="total">    0.97    1.02</time>
   <energy>
    <i name="e_fr_energy">   -368.48514978 </i>
    <i name="e_wo_entrp">   -368.50135128 </i>
    <i name="e_0_energy">   -368.49055028 </i>
   </energy>
  </scstep>
  <scstep>
   <time name="diag">    0.07    0.07</time>
   <time name="diis">    0.72    0.73</time>
   <time name="orth">    0.01    0.01</time>
   <time name="total">    0.87    0.93</time>
   <energy>
    <i name="e_fr_energy">   -368.48518894 </i>
    <i name="e_wo_entrp">   -368.50137306 </i>
    <i name="e_0_energy">   -368.49058365 </i>
   </energy>
  </scstep>
  <scstep>
   <time name="diag">    0.10    0.10</time>
   <time name="diis">    0.62    0.65</time>
   <time name="orth">    0.02    0.02</time>
   <time name="total">    0.81    0.90</time>
   <energy>
    <i name="e_fr_energy">   -368.48519875 </i>
    <i name="e_wo_entrp">   -368.50140981 </i>
    <i name="e_0_energy">   -368.49060244 </i>
   </energy>
  </scstep>
  <scstep>
   <time name="diag">    0.09    0.09</time>
   <time name="diis">    0.46    0.47</time>
   <time name="orth">    0.01    0.01</time>
   <time name="total">    0.63    0.68</time>
   <energy>
    <i name="e_fr_energy">   -368.48521708 </i>
    <i name="e_wo_entrp">   -368.50143045 </i>
    <i name="e_0_energy">   -368.49062154 </i>
   </energy>
  </scstep>
  <scstep>
   <time name="diag">    0.08    0.08</time>
   <time name="diis">    0.41    0.42</time>
   <time name="orth">    0.01    0.01</time>
   <time name="total">    0.57    0.62</time>
   <energy>
    <i name="e_fr_energy">   -368.48522717 </i>
    <i name="e_wo_entrp">   -368.50142822 </i>
    <i name="e_0_energy">   -368.49062752 </i>
   </energy>
  </scstep>
  <scstep>
   <time name="diag">    0.07    0.07</time>
   <time name="diis">    0.34    0.34</time>
   <time name="orth">    0.01    0.01</time>
   <time name="total">    0.46    0.51</time>
   <energy>
    <i name="alphaZ">   1535.72576812 </i>
    <i name="ewald"> -18989.48828923 </i>
    <i name="hartreedc">  -6842.74913849 </i>
    <i name="XCdc">   -349.06426599 </i>
    <i name="pawpsdc">  33731.05097345 </i>
    <i name="pawaedc"> -32066.28832009 </i>
    <i name="eentropy">      0.01620929 </i>
    <i name="bandstr">  -2493.10525524 </i>
    <i name="atom">  25105.41708605 </i>
    <i name="e_fr_energy">   -368.48523213 </i>
    <i name="e_wo_entrp">   -368.50144142 </i>
    <i name="e_0_energy">   -368.49063522 </i>
   </energy>
  </scstep>
  <structure>
   <crystal>
    <varray name="basis" >
     <v>       6.91423820       0.00696405       0.01859130 </v>
     <v>       0.01055832      10.19566092      -0.00342081 </v>
     <v>       0.02770647      -0.00372847      10.16797516 </v>
    </varray>
    <i name="volume">    716.78764033 </i>
    <varray name="rec_basis" >
     <v>       0.14463030      -0.00014991      -0.00039415 </v>
     <v>      -0.00009889       0.09808105       0.00003623 </v>
     <v>      -0.00026448       0.00003327       0.09834873 </v>
    </varray>
   </crystal>
   <varray name="positions" >
    <v>       0.24391110       0.16969467       0.51085665 </v>
    <v>       0.03649477       0.33078063       0.34340896 </v>
    <v>       0.01264349       0.33319024       0.67145347 </v>
    <v>       0.26553114       0.50233796       0.83422054 </v>
    <v>       0.28483400       0.83117589       0.51073337 </v>
    <v>       0.26378756       0.82338785       0.15161569 </v>
    <v>       0.48408235       0.33166860       0.66758348 </v>
    <v>       0.48768570       0.31760648       0.99100296 </v>
    <v>       0.24943113       0.49990081       0.50853113 </v>
    <v>       0.47941362       0.66872367       0.33129366 </v>
    <v>       0.50773236       0.00353568       0.00247609 </v>
    <v>       0.51275507       0.67370037       0.00442909 </v>
    <v>       0.73485573       0.82696288       0.83966279 </v>
    <v>       0.24739213       0.16871002       0.15931005 </v>
    <v>       0.98923283       0.67818229       0.00310018 </v>
    <v>       0.49859472       0.00980838       0.67462049 </v>
    <v>       0.73497479       0.17015392       0.82390907 </v>
    <v>       0.74205165       0.82902964       0.16506690 </v>
    <v>       0.26405873       0.16037503       0.82532195 </v>
    <v>       0.49180490       0.65729624       0.66689157 </v>
    <v>       0.26867246       0.82909283       0.83948361 </v>
    <v>       0.71699108       0.83322973       0.50218749 </v>
    <v>       0.73381461       0.49905294       0.83424386 </v>
    <v>       0.24672113       0.50763442       0.15295398 </v>
    <v>       0.01949491       0.68105721       0.33823444 </v>
    <v>       0.75535738       0.17497560       0.49781766 </v>
    <v>       0.46335995       0.33436732       0.33514468 </v>
    <v>       0.01755811       0.99333916       0.33458107 </v>
    <v>       0.75724304       0.18074345       0.17672018 </v>
    <v>       0.74812557       0.49407638       0.49797088 </v>
    <v>       0.99217454       0.99755217       0.99932301 </v>
    <v>       0.01183256       0.32337630       0.98002588 </v>
    <v>       0.00271238       0.66830907       0.66800268 </v>
    <v>       0.48421526       0.00053964       0.32112834 </v>
    <v>       0.75220442       0.49836168       0.16837895 </v>
    <v>       0.99824281       0.99808585       0.66831220 </v>
   </varray>
  </structure>
  <varray name="forces" >
   <v>      -0.00549106      -0.01108043       0.01723148 </v>
   <v>      -0.00586774      -0.00012211      -0.00571229 </v>
   <v>       0.00344055       0.04115789      -0.02249898 </v>
   <v>       0.00031762      -0.00730369       0.00347601 </v>
   <v>      -0.03104313       0.00841735       0.01387647 </v>
   <v>      -0.00106057       0.00614642       0.00295292 </v>
   <v>       0.00593415       0.00273474      -0.00442261 </v>
   <v>       0.00100860       0.00392017       0.00063837 </v>
   <v>       0.00904600       0.00602559      -0.00357615 </v>
   <v>      -0.00655013      -0.01843145      -0.01291775 </v>
   <v>       0.00083193       0.00293572      -0.00256485 </v>
   <v>       0.00535313      -0.01403882       0.00924211 </v>
   <v>       0.01102363      -0.00102824       0.00515189 </v>
   <v>       0.00995009       0.00061287       0.00303071 </v>
   <v>      -0.00351018      -0.00102533       0.00511122 </v>
   <v>       0.00884036      -0.00393410      -0.00200863 </v>
   <v>       0.00507883      -0.00219265       0.00916444 </v>
   <v>       0.00280613       0.01151525       0.00255462 </v>
   <v>      -0.01593259       0.00378275      -0.00184483 </v>
   <v>       0.01118401       0.00854349      -0.00597101 </v>
   <v>      -0.01886513      -0.00092896       0.00317115 </v>
   <v>       0.02770462      -0.01128362      -0.00541978 </v>
   <v>      -0.00482547      -0.00567559      -0.00016464 </v>
   <v>      -0.00800896      -0.00667986       0.00258794 </v>
   <v>       0.00603021       0.00303728      -0.00333491 </v>
   <v>       0.00510825       0.00391398      -0.00019924 </v>
   <v>      -0.00127355       0.00501991      -0.00801936 </v>
   <v>      -0.00306835       0.01693130      -0.01639872 </v>
   <v>      -0.01612461       0.00723729      -0.00304855 </v>
   <v>      -0.00575611       0.00007799      -0.00281856 </v>
   <v>       0.01016354      -0.00880031       0.01246451 </v>
   <v>      -0.00589863      -0.00329731      -0.00098458 </v>
   <v>       0.00721467      -0.04084955       0.00306689 </v>
   <v>       0.00598086       0.00681064       0.00641149 </v>
   <v>       0.00006051       0.00095338       0.00121784 </v>
   <v>      -0.00380150      -0.00310200       0.00055538 </v>
  </varray>
  <varray name="stress" >
   <v>       0.67193529       0.06313249      -0.02311759 </v>
   <v>       0.06313251       0.57349584       0.08469437 </v>
   <v>      -0.02311762       0.08469437       0.63742898 </v>
  </varray>
  <energy>
   <i name="e_fr_energy">   -368.48523213 </i>
   <i name="e_wo_entrp">   -368.49063522 </i>
   <i name="e_0_energy">      0.01620929 </i>
  </energy>
  <time name="totalsc">   10.09   11.06</time>
 </calculation>
 <calculation>
  <scstep>
   <time name="dav">    1.00    1.00</time>
   <time name="total">    1.10    1.33</time>
   <energy>
    <i name="alphaZ">   1535.87372971 </i>
    <i name="ewald"> -18990.18444089 </i>
    <i name="hartreedc">  -6842.90470319 </i>
    <i name="XCdc">   -349.03583260 </i>
    <i name="pawpsdc">  33731.46856202 </i>
    <i name="pawaedc"> -32066.67349892 </i>
    <i name="eentropy">      0.01620078 </i>
    <i name="bandstr">  -2492.46235001 </i>
    <i name="atom">  25105.41708605 </i>
    <i name="e_fr_energy">   -368.48524705 </i>
    <i name="e_wo_entrp">   -368.50144783 </i>
    <i name="e_0_energy">   -368.49064731 </i>
   </energy>
  </scstep>
  <scstep>
   <time name="diag">    0.08    0.08</time>
   <time name="diis">    0.79    0.80</time>
   <time name="orth">    0.01    0.01</time>
   <time name="total">    0.94    0.98</time>
   <energy>
    <i name="e_fr_energy">   -368.48524887 </i>
    <i name="e_wo_entrp">   -368.50144930 </i>
    <i name="e_0_energy">   -368.49064901 </i>
   </energy>
  </scstep>
  <scstep>
   <time name="diag">    0.07    0.07</time>
   <time name="diis">    0.40    0.40</time>
   <time name="orth">    0.01    0.01</time>
   <time name="total">    0.53    0.57</time>
   <energy>
    <i name="alphaZ">   1535.87372971 </i>
    <i name="ewald"> -18990.18444089 </i>
    <i name="hartreedc">  -6842.59531622 </i>
    <i name="XCdc">   -349.04929775 </i>
    <i name="pawpsdc">  33735.88265568 </i>
    <i name="pawaedc"> -32071.07981921 </i>
    <i name="eentropy">      0.01619600 </i>
    <i name="bandstr">  -2492.76603283 </i>
    <i name="atom">  25105.41708605 </i>
    <i name="e_fr_energy">   -368.48523946 </i>
    <i name="e_wo_entrp">   -368.50143546 </i>
    <i name="e_0_energy">   -368.49063813 </i>
   </energy>
  </scstep>
  <structure>
   <crystal>
    <varray name="basis" >
     <v>       6.91404823       0.00692086       0.01858769 </v>
     <v>       0.01049492      10.19532103      -0.00350552 </v>
     <v>       0.02770149      -0.00381311      10.16761381 </v>
    </varray>
    <i name="volume">    716.71858710 </i>
    <varray name="rec_basis" >
     <v>       0.14463428      -0.00014902      -0.00039411 </v>
     <v>      -0.00009828       0.09808432       0.00003705 </v>
     <v>      -0.00026444       0.00003409       0.09835223 </v>
    </varray>
   </crystal>
   <varray name="positions" >
    <v>       0.24392560       0.16970055       0.51085274 </v>
    <v>       0.03649825       0.33077328       0.34341401 </v>
    <v>       0.01264924       0.33323210       0.67145242 </v>
    <v>       0.26554102       0.50233941       0.83422167 </v>
    <v>       0.28485295       0.83116604       0.51072059 </v>
    <v>       0.26379104       0.82338545       0.15161507 </v>
    <v>       0.48407447       0.33166399       0.66758407 </v>
    <v>       0.48767955       0.31760529       0.99099783 </v>
    <v>       0.24944076       0.49990485       0.50852670 </v>
    <v>       0.47940044       0.66872651       0.33129947 </v>
    <v>       0.50773414       0.00353407       0.00247636 </v>
    <v>       0.51275614       0.67370139       0.00442555 </v>
    <v>       0.73483999       0.82695189       0.83967738 </v>
    <v>       0.24739744       0.16871457       0.15930972 </v>
    <v>       0.98922938       0.67818955       0.00309955 </v>
    <v>       0.49859771       0.00981178       0.67462610 </v>
    <v>       0.73497442       0.17015676       0.82391485 </v>
    <v>       0.74205057       0.82902957       0.16506440 </v>
    <v>       0.26405566       0.16038496       0.82532423 </v>
    <v>       0.49180124       0.65730125       0.66689376 </v>
    <v>       0.26868815       0.82907558       0.83949557 </v>
    <v>       0.71698480       0.83321146       0.50217279 </v>
    <v>       0.73380809       0.49905382       0.83424429 </v>
    <v>       0.24672535       0.50763547       0.15295303 </v>
    <v>       0.01950130       0.68106566       0.33823350 </v>
    <v>       0.75534448       0.17499126       0.49780756 </v>
    <v>       0.46335552       0.33436569       0.33515108 </v>
    <v>       0.01756357       0.99334425       0.33454316 </v>
    <v>       0.75723436       0.18074433       0.17671892 </v>
    <v>       0.74812018       0.49407567       0.49796565 </v>
    <v>       0.99217707       0.99755045       0.99935416 </v>
    <v>       0.01183661       0.32336773       0.98002098 </v>
    <v>       0.00271705       0.66826425       0.66800638 </v>
    <v>       0.48420958       0.00053847       0.32113749 </v>
    <v>       0.75220046       0.49836488       0.16837938 </v>
    <v>       0.99823142       0.99809276       0.66831656 </v>
   </varray>
  </structure>
  <varray name="forces" >
   <v>      -0.00660629      -0.01219451       0.01798563 </v>
   <v>      -0.00751162       0.00114251      -0.00646251 </v>
   <v>       0.00247442       0.03885778      -0.02352642 </v>
   <v>      -0.00063235      -0.00753739       0.00346583 </v>
   <v>      -0.03350855       0.00961083       0.01562802 </v>
   <v>      -0.00139447       0.00652608       0.00369901 </v>
   <v>       0.00729594       0.00345822      -0.00521282 </v>
   <v>       0.00158491       0.00437668       0.00178369 </v>
   <v>       0.00873387       0.00614382      -0.00353007 </v>
   <v>      -0.00491537      -0.02016285      -0.01386247 </v>
   <v>       0.00087463       0.00365916      -0.00248273 </v>
   <v>       0.00619039      -0.01449661       0.01025429 </v>
   <v>       0.01324353       0.00105288       0.00235846 </v>
   <v>       0.00941887      -0.00022545       0.00308346 </v>
   <v>      -0.00388504      -0.00227055       0.00510113 </v>
   <v>       0.00910331      -0.00498678      -0.00233907 </v>
   <v>       0.00565162      -0.00351795       0.00821474 </v>
   <v>       0.00301588       0.01160817       0.00262694 </v>
   <v>      -0.01664204       0.00129480      -0.00219993 </v>
   <v>       0.01270717       0.00887634      -0.00611142 </v>
   <v>      -0.02045694       0.00000057       0.00171583 </v>
   <v>       0.02919085      -0.01043459      -0.00425909 </v>
   <v>      -0.00432877      -0.00574194      -0.00052109 </v>
   <v>      -0.00871230      -0.00753681       0.00317309 </v>
   <v>       0.00491995       0.00174706      -0.00284118 </v>
   <v>       0.00596645       0.00309703       0.00070575 </v>
   <v>      -0.00025874       0.00570759      -0.00867932 </v>
   <v>      -0.00368265       0.01751961      -0.01349530 </v>
   <v>      -0.01611568       0.00824699      -0.00234730 </v>
   <v>      -0.00549907       0.00083006      -0.00219851 </v>
   <v>       0.01007849      -0.00905479       0.00839631 </v>
   <v>      -0.00682098      -0.00285214      -0.00013620 </v>
   <v>       0.00639644      -0.03700425       0.00372198 </v>
   <v>       0.00685077       0.00723762       0.00581520 </v>
   <v>       0.00072694       0.00120068       0.00098930 </v>
   <v>      -0.00345360      -0.00417788       0.00148679 </v>
  </varray>
  <varray name="stress" >
   <v>       0.69379705       0.05983449      -0.02651293 </v>
   <v>       0.05983454       0.57029578       0.07234124 </v>
   <v>      -0.02651291       0.07234121       0.60867875 </v>
  </varray>
  <energy>
   <i name="e_fr_energy">   -368.48523946 </i>
   <i name="e_wo_entrp">   -368.49063813 </i>
   <i name="e_0_energy">      0.01619600 </i>
  </energy>
  <time name="totalsc">    4.25    4.73</time>
 </calculation>
 <calculation>
  <scstep>
   <time name="dav">    0.97    0.97</time>
   <time name="total">    1.07    1.28</time>
   <energy>
    <i name="alphaZ">   1535.54828821 </i>
    <i name="ewald"> -18989.47923744 </i>
    <i name="hartreedc">  -6841.46054319 </i>
    <i name="XCdc">   -349.11127996 </i>
    <i name="pawpsdc">  33736.59259281 </i>
    <i name="pawaedc"> -32071.78103974 </i>
    <i name="eentropy">      0.01627626 </i>
    <i name="bandstr">  -2494.22771072 </i>
    <i name="atom">  25105.41708605 </i>
    <i name="e_fr_energy">   -368.48556772 </i>
    <i name="e_wo_entrp">   -368.50184398 </i>
    <i name="e_0_energy">   -368.49099314 </i>
   </energy>
  </scstep>
  <scstep>
   <time name="diag">    0.08    0.08</time>
   <time name="diis">    0.75    0.75</time>
   <time name="orth">    0.01    0.01</time>
   <time name="total">    0.90    0.95</time>
   <energy>
    <i name="e_fr_energy">   -368.48565787 </i>
    <i name="e_wo_entrp">   -368.50194748 </i>
    <i name="e_0_energy">   -368.49108774 </i>
   </energy>
  </scstep>
  <scstep>
   <time name="diag">    0.08    0.08</time>
   <time name="diis">    0.75    0.75</time>
   <time name="orth">    0.01    0.01</time>
   <time name="total">    0.90    0.95</time>
   <energy>
    <i name="e_fr_energy">   -368.48562952 </i>
    <i name="e_wo_entrp">   -368.50192560 </i>
    <i name="e_0_energy">   -368.49106155 </i>
[...]
       <r>    6.8040    1.0000 </r>
       <r>    6.8538    1.0000 </r>
       <r>    6.8838    1.0000 </r>
       <r>    6.9159    1.0000 </r>
       <r>    6.9659    1.0000 </r>
       <r>    6.9844    1.0000 </r>
       <r>    7.0341    1.0000 </r>
       <r>    7.0689    1.0000 </r>
       <r>    7.1334    1.0005 </r>
       <r>    7.1640    1.0013 </r>
       <r>    7.2108    1.0045 </r>
       <r>    7.2337    1.0077 </r>
       <r>    7.2528    1.0114 </r>
       <r>    7.3087    1.0271 </r>
       <r>    7.3543    1.0354 </r>
       <r>    7.3623    1.0346 </r>
       <r>    7.3957    1.0167 </r>
       <r>    7.4284    0.9651 </r>
       <r>    7.4644    0.8561 </r>
       <r>    7.4851    0.7682 </r>
       <r>    7.5170    0.6043 </r>
       <r>    7.5781    0.2710 </r>
       <r>    7.6166    0.1088 </r>
       <r>    7.6373    0.0481 </r>
       <r>    7.6704   -0.0111 </r>
       <r>    7.7156   -0.0354 </r>
       <r>    7.7362   -0.0338 </r>
       <r>    7.7780   -0.0223 </r>
       <r>    7.8456   -0.0064 </r>
       <r>    7.8612   -0.0044 </r>
       <r>    7.9092   -0.0012 </r>
       <r>    7.9400   -0.0005 </r>
       <r>    7.9786   -0.0001 </r>
       <r>    8.0304   -0.0000 </r>
       <r>    8.0715   -0.0000 </r>
       <r>    8.1106   -0.0000 </r>
       <r>    8.1642   -0.0000 </r>
       <r>    8.2170   -0.0000 </r>
       <r>    8.2860   -0.0000 </r>
       <r>    8.3795   -0.0000 </r>
       <r>    8.4253   -0.0000 </r>
       <r>    8.6665   -0.0000 </r>
       <r>    8.7699   -0.0000 </r>
       <r>    8.8433   -0.0000 </r>
       <r>    9.3955   -0.0000 </r>
       <r>    9.4887   -0.0000 </r>
       <r>    9.5284   -0.0000 </r>
       <r>    9.5787   -0.0000 </r>
       <r>    9.6430   -0.0000 </r>
      </set>
     </set>
    </set>
   </array>
  </eigenvalues>
  <separator name="orbital magnetization" >
   <v name="MAGDIPOLOUT">      0.00000000      0.00000000      0.00000000</v>
  </separator>
  <dos>
   <i name="efermi">      7.53565976 </i>
   <total>
    <array>
     <dimension dim="1">gridpoints</dimension>
     <dimension dim="2">spin</dimension>
     <field>energy</field>
     <field>total</field>
     <field>integrated</field>
     <set>
      <set comment="spin 1">
       <r>   -49.5417     0.0000     0.0000 </r>
       <r>   -49.3350     0.0000     0.0000 </r>
       <r>   -49.1283     0.0000     0.0000 </r>
       <r>   -48.9217     0.0000     0.0000 </r>
       <r>   -48.7150     0.0000     0.0000 </r>
       <r>   -48.5083     0.0000     0.0000 </r>
       <r>   -48.3016     0.0000     0.0000 </r>
       <r>   -48.0950    -0.0000    -0.0000 </r>
       <r>   -47.8883    -0.0000    -0.0000 </r>
       <r>   -47.6816    -0.0000    -0.0000 </r>
       <r>   -47.4749    -0.0000    -0.0000 </r>
       <r>   -47.2682    -0.0000    -0.0000 </r>
       <r>   -47.0616    -0.0456    -0.0094 </r>
       <r>   -46.8549    -1.2564    -0.2691 </r>
       <r>   -46.6482    27.0508     5.3217 </r>
       <r>   -46.4415    56.2141    16.9398 </r>
       <r>   -46.2349     5.6907    18.1160 </r>
       <r>   -46.0282    -0.5594    18.0003 </r>
       <r>   -45.8215    -0.0016    18.0000 </r>
       <r>   -45.6148    -0.0000    18.0000 </r>
       <r>   -45.4082    -0.0000    18.0000 </r>
       <r>   -45.2015     0.0000    18.0000 </r>
       <r>   -44.9948     0.0000    18.0000 </r>
       <r>   -44.7881     0.0000    18.0000 </r>
       <r>   -44.5814     0.0000    18.0000 </r>
       <r>   -44.3748     0.0000    18.0000 </r>
       <r>   -44.1681     0.0000    18.0000 </r>
       <r>   -43.9614     0.0000    18.0000 </r>
       <r>   -43.7547     0.0000    18.0000 </r>
       <r>   -43.5481     0.0000    18.0000 </r>
       <r>   -43.3414     0.0000    18.0000 </r>
       <r>   -43.1347     0.0000    18.0000 </r>
       <r>   -42.9280     0.0000    18.0000 </r>
       <r>   -42.7214     0.0000    18.0000 </r>
       <r>   -42.5147     0.0000    18.0000 </r>
       <r>   -42.3080     0.0000    18.0000 </r>
       <r>   -42.1013    -0.0000    18.0000 </r>
       <r>   -41.8946    -0.0000    18.0000 </r>
       <r>   -41.6880    -0.0000    18.0000 </r>
       <r>   -41.4813    -0.0000    18.0000 </r>
       <r>   -41.2746    -0.0000    18.0000 </r>
       <r>   -41.0679    -0.0222    17.9954 </r>
       <r>   -40.8613    -0.9547    17.7981 </r>
       <r>   -40.6546    17.4552    21.4057 </r>
       <r>   -40.4479    50.1609    31.7728 </r>
       <r>   -40.2412     1.3807    32.0581 </r>
       <r>   -40.0346    -0.2808    32.0001 </r>
       <r>   -39.8279    -0.0004    32.0000 </r>
       <r>   -39.6212    -0.0000    32.0000 </r>
       <r>   -39.4145    -0.0000    32.0000 </r>
       <r>   -39.2079     0.0000    32.0000 </r>
       <r>   -39.0012     0.0000    32.0000 </r>
       <r>   -38.7945     0.0000    32.0000 </r>
       <r>   -38.5878     0.0000    32.0000 </r>
       <r>   -38.3811     0.0000    32.0000 </r>
       <r>   -38.1745     0.0000    32.0000 </r>
       <r>   -37.9678     0.0000    32.0000 </r>
       <r>   -37.7611     0.0000    32.0000 </r>
       <r>   -37.5544     0.0000    32.0000 </r>
       <r>   -37.3478     0.0000    32.0000 </r>
       <r>   -37.1411     0.0000    32.0000 </r>
       <r>   -36.9344     0.0000    32.0000 </r>
       <r>   -36.7277     0.0000    32.0000 </r>
       <r>   -36.5211     0.0000    32.0000 </r>
       <r>   -36.3144     0.0000    32.0000 </r>
       <r>   -36.1077     0.0000    32.0000 </r>
       <r>   -35.9010     0.0000    32.0000 </r>
       <r>   -35.6943     0.0000    32.0000 </r>
       <r>   -35.4877     0.0000    32.0000 </r>
       <r>   -35.2810     0.0000    32.0000 </r>
       <r>   -35.0743     0.0000    32.0000 </r>
       <r>   -34.8676     0.0000    32.0000 </r>
       <r>   -34.6610     0.0000    32.0000 </r>
       <r>   -34.4543     0.0000    32.0000 </r>
       <r>   -34.2476     0.0000    32.0000 </r>
       <r>   -34.0409     0.0000    32.0000 </r>
       <r>   -33.8343     0.0000    32.0000 </r>
       <r>   -33.6276     0.0000    32.0000 </r>
       <r>   -33.4209     0.0000    32.0000 </r>
       <r>   -33.2142     0.0000    32.0000 </r>
       <r>   -33.0075     0.0000    32.0000 </r>
       <r>   -32.8009     0.0000    32.0000 </r>
       <r>   -32.5942     0.0000    32.0000 </r>
       <r>   -32.3875     0.0000    32.0000 </r>
       <r>   -32.1808     0.0000    32.0000 </r>
       <r>   -31.9742     0.0000    32.0000 </r>
       <r>   -31.7675     0.0000    32.0000 </r>
       <r>   -31.5608     0.0000    32.0000 </r>
       <r>   -31.3541     0.0000    32.0000 </r>
       <r>   -31.1475     0.0000    32.0000 </r>
       <r>   -30.9408     0.0000    32.0000 </r>
       <r>   -30.7341     0.0000    32.0000 </r>
       <r>   -30.5274     0.0000    32.0000 </r>
       <r>   -30.3208     0.0000    32.0000 </r>
       <r>   -30.1141     0.0000    32.0000 </r>
       <r>   -29.9074     0.0000    32.0000 </r>
       <r>   -29.7007     0.0000    32.0000 </r>
       <r>   -29.4940     0.0000    32.0000 </r>
       <r>   -29.2874     0.0000    32.0000 </r>
       <r>   -29.0807     0.0000    32.0000 </r>
       <r>   -28.8740     0.0000    32.0000 </r>
       <r>   -28.6673     0.0000    32.0000 </r>
       <r>   -28.4607     0.0000    32.0000 </r>
       <r>   -28.2540     0.0000    32.0000 </r>
       <r>   -28.0473     0.0000    32.0000 </r>
       <r>   -27.8406     0.0000    32.0000 </r>
       <r>   -27.6340     0.0000    32.0000 </r>
       <r>   -27.4273     0.0000    32.0000 </r>
       <r>   -27.2206     0.0000    32.0000 </r>
       <r>   -27.0139     0.0000    32.0000 </r>
       <r>   -26.8072     0.0000    32.0000 </r>
       <r>   -26.6006     0.0000    32.0000 </r>
       <r>   -26.3939     0.0000    32.0000 </r>
       <r>   -26.1872     0.0000    32.0000 </r>
       <r>   -25.9805     0.0000    32.0000 </r>
       <r>   -25.7739     0.0000    32.0000 </r>
       <r>   -25.5672     0.0000    32.0000 </r>
       <r>   -25.3605     0.0000    32.0000 </r>
       <r>   -25.1538     0.0000    32.0000 </r>
       <r>   -24.9472     0.0000    32.0000 </r>
       <r>   -24.7405     0.0000    32.0000 </r>
       <r>   -24.5338    -0.0000    32.0000 </r>
       <r>   -24.3271    -0.0000    32.0000 </r>
       <r>   -24.1204    -0.0000    32.0000 </r>
       <r>   -23.9138    -0.0000    32.0000 </r>
       <r>   -23.7071    -0.0000    32.0000 </r>
       <r>   -23.5004    -0.0616    31.9873 </r>
       <r>   -23.2937    -0.5456    31.8745 </r>
       <r>   -23.0871    21.4846    36.3149 </r>
       <r>   -22.8804    40.8100    44.7494 </r>
       <r>   -22.6737    86.5474    62.6367 </r>
       <r>   -22.4670    81.2874    79.4369 </r>
       <r>   -22.2604    32.0656    86.0641 </r>
       <r>   -22.0537    -0.1761    86.0277 </r>
       <r>   -21.8470    -0.1341    86.0000 </r>
       <r>   -21.6403    -0.0001    86.0000 </r>
       <r>   -21.4336    -0.0000    86.0000 </r>
       <r>   -21.2270     0.0000    86.0000 </r>
       <r>   -21.0203     0.0000    86.0000 </r>
       <r>   -20.8136     0.0000    86.0000 </r>
       <r>   -20.6069     0.0000    86.0000 </r>
       <r>   -20.4003     0.0000    86.0000 </r>
       <r>   -20.1936    -0.0000    86.0000 </r>
       <r>   -19.9869    -0.0000    86.0000 </r>
       <r>   -19.7802    -0.0000    86.0000 </r>
       <r>   -19.5736    -0.0000    86.0000 </r>
       <r>   -19.3669    -0.0043    85.9991 </r>
       <r>   -19.1602    -0.5654    85.8823 </r>
       <r>   -18.9535     5.2602    86.9694 </r>
       <r>   -18.7469    62.4492    99.8762 </r>
       <r>   -18.5402   122.6761   125.2305 </r>
       <r>   -18.3335    14.7104   128.2708 </r>
       <r>   -18.1268    -1.3011   128.0019 </r>
       <r>   -17.9201    -0.0092   128.0000 </r>
       <r>   -17.7135    -0.0000   128.0000 </r>
       <r>   -17.5068    -0.0000   128.0000 </r>
       <r>   -17.3001     0.0000   128.0000 </r>
       <r>   -17.0934     0.0000   128.0000 </r>
       <r>   -16.8868     0.0000   128.0000 </r>
       <r>   -16.6801     0.0000   128.0000 </r>
       <r>   -16.4734     0.0000   128.0000 </r>
       <r>   -16.2667     0.0000   128.0000 </r>
       <r>   -16.0601     0.0000   128.0000 </r>
       <r>   -15.8534     0.0000   128.0000 </r>
       <r>   -15.6467     0.0000   128.0000 </r>
       <r>   -15.4400     0.0000   128.0000 </r>
       <r>   -15.2333     0.0000   128.0000 </r>
       <r>   -15.0267     0.0000   128.0000 </r>
       <r>   -14.8200     0.0000   128.0000 </r>
       <r>   -14.6133     0.0000   128.0000 </r>
       <r>   -14.4066     0.0000   128.0000 </r>
       <r>   -14.2000     0.0000   128.0000 </r>
       <r>   -13.9933     0.0000   128.0000 </r>
       <r>   -13.7866     0.0000   128.0000 </r>
       <r>   -13.5799     0.0000   128.0000 </r>
       <r>   -13.3733     0.0000   128.0000 </r>
       <r>   -13.1666     0.0000   128.0000 </r>
       <r>   -12.9599     0.0000   128.0000 </r>
       <r>   -12.7532     0.0000   128.0000 </r>
       <r>   -12.5465     0.0000   128.0000 </r>
       <r>   -12.3399     0.0000   128.0000 </r>
       <r>   -12.1332     0.0000   128.0000 </r>
       <r>   -11.9265     0.0000   128.0000 </r>
       <r>   -11.7198     0.0000   128.0000 </r>
       <r>   -11.5132     0.0000   128.0000 </r>
       <r>   -11.3065     0.0000   128.0000 </r>
       <r>   -11.0998     0.0000   128.0000 </r>
       <r>   -10.8931     0.0000   128.0000 </r>
       <r>   -10.6865     0.0000   128.0000 </r>
       <r>   -10.4798     0.0000   128.0000 </r>
       <r>   -10.2731     0.0000   128.0000 </r>
       <r>   -10.0664     0.0000   128.0000 </r>
       <r>    -9.8597     0.0000   128.0000 </r>
       <r>    -9.6531     0.0000   128.0000 </r>
       <r>    -9.4464     0.0000   128.0000 </r>
       <r>    -9.2397     0.0000   128.0000 </r>
       <r>    -9.0330     0.0000   128.0000 </r>
       <r>    -8.8264     0.0000   128.0000 </r>
       <r>    -8.6197     0.0000   128.0000 </r>
       <r>    -8.4130     0.0000   128.0000 </r>
       <r>    -8.2063     0.0000   128.0000 </r>
       <r>    -7.9997     0.0000   128.0000 </r>
       <r>    -7.7930     0.0000   128.0000 </r>
       <r>    -7.5863     0.0000   128.0000 </r>
       <r>    -7.3796     0.0000   128.0000 </r>
       <r>    -7.1730     0.0000   128.0000 </r>
       <r>    -6.9663     0.0000   128.0000 </r>
       <r>    -6.7596     0.0000   128.0000 </r>
       <r>    -6.5529     0.0000   128.0000 </r>
       <r>    -6.3462     0.0000   128.0000 </r>
       <r>    -6.1396     0.0000   128.0000 </r>
       <r>    -5.9329     0.0000   128.0000 </r>
       <r>    -5.7262     0.0000   128.0000 </r>
       <r>    -5.5195     0.0000   128.0000 </r>
       <r>    -5.3129     0.0000   128.0000 </r>
       <r>    -5.1062     0.0000   128.0000 </r>
       <r>    -4.8995     0.0000   128.0000 </r>
       <r>    -4.6928     0.0000   128.0000 </r>
       <r>    -4.4862     0.0000   128.0000 </r>
       <r>    -4.2795     0.0000   128.0000 </r>
       <r>    -4.0728     0.0000   128.0000 </r>
       <r>    -3.8661     0.0000   128.0000 </r>
       <r>    -3.6594     0.0000   128.0000 </r>
       <r>    -3.4528     0.0000   128.0000 </r>
       <r>    -3.2461     0.0000   128.0000 </r>
       <r>    -3.0394     0.0000   128.0000 </r>
       <r>    -2.8327     0.0000   128.0000 </r>
       <r>    -2.6261     0.0000   128.0000 </r>
       <r>    -2.4194     0.0000   128.0000 </r>
       <r>    -2.2127     0.0000   128.0000 </r>
       <r>    -2.0060     0.0000   128.0000 </r>
       <r>    -1.7994     0.0000   128.0000 </r>
       <r>    -1.5927     0.0000   128.0000 </r>
       <r>    -1.3860     0.0000   128.0000 </r>
       <r>    -1.1793     0.0000   128.0000 </r>
       <r>    -0.9726     0.0000   128.0000 </r>
       <r>    -0.7660     0.0000   128.0000 </r>
       <r>    -0.5593    -0.0000   128.0000 </r>
       <r>    -0.3526    -0.0000   128.0000 </r>
       <r>    -0.1459    -0.0000   128.0000 </r>
       <r>     0.0607    -0.0000   128.0000 </r>
       <r>     0.2674    -0.0001   128.0000 </r>
       <r>     0.4741    -0.0119   127.9975 </r>
       <r>     0.6808     0.1531   128.0292 </r>
       <r>     0.8874     0.7526   128.1847 </r>
       <r>     1.0941     1.5019   128.4951 </r>
       <r>     1.3008     1.9193   128.8918 </r>
       <r>     1.5075     2.9366   129.4987 </r>
       <r>     1.7141     4.1366   130.3536 </r>
       <r>     1.9208     1.8387   130.7337 </r>
       <r>     2.1275     4.6268   131.6899 </r>
       <r>     2.3342     3.6454   132.4433 </r>
       <r>     2.5409     3.2857   133.1224 </r>
       <r>     2.7475     5.4390   134.2465 </r>
       <r>     2.9542     8.0984   135.9203 </r>
       <r>     3.1609     8.2784   137.6313 </r>
       <r>     3.3676     7.6673   139.2159 </r>
       <r>     3.5742     8.0321   140.8760 </r>
       <r>     3.7809    14.3945   143.8510 </r>
       <r>     3.9876    20.6328   148.1153 </r>
       <r>     4.1943    21.3023   152.5180 </r>
       <r>     4.4009    25.4484   157.7776 </r>
       <r>     4.6076    33.1142   164.6215 </r>
       <r>     4.8143    34.3350   171.7177 </r>
       <r>     5.0210    40.8380   180.1580 </r>
       <r>     5.2277    36.6898   187.7409 </r>
       <r>     5.4343    33.8444   194.7358 </r>
       <r>     5.6410    34.9605   201.9613 </r>
       <r>     5.8477    27.8784   207.7231 </r>
       <r>     6.0544    15.6024   210.9478 </r>
       <r>     6.2610    49.9389   221.2690 </r>
       <r>     6.4677    64.8971   234.6817 </r>
       <r>     6.6744    59.0735   246.8908 </r>
       <r>     6.8811    52.9038   257.8248 </r>
       <r>     7.0877    51.5569   268.4804 </r>
       <r>     7.2944    57.4120   280.3462 </r>
       <r>     7.5011    48.8218   290.4365 </r>
       <r>     7.7078    46.5422   300.0557 </r>
       <r>     7.9145    50.6577   310.5255 </r>
       <r>     8.1211    44.6913   319.7621 </r>
       <r>     8.3278    31.7371   326.3214 </r>
       <r>     8.5345    25.3577   331.5623 </r>
       <r>     8.7412    20.3102   335.7599 </r>
       <r>     8.9478    15.0092   338.8620 </r>
       <r>     9.1545    13.7253   341.6987 </r>
       <r>     9.3612    23.1112   346.4752 </r>
       <r>     9.5679    20.3800   350.6873 </r>
       <r>     9.7745     6.7088   352.0739 </r>
       <r>     9.9812    -0.3462   352.0023 </r>
       <r>    10.1879    -0.0111   352.0000 </r>
       <r>    10.3946    -0.0000   352.0000 </r>
       <r>    10.6013    -0.0000   352.0000 </r>
       <r>    10.8079     0.0000   352.0000 </r>
       <r>    11.0146     0.0000   352.0000 </r>
       <r>    11.2213     0.0000   352.0000 </r>
       <r>    11.4280     0.0000   352.0000 </r>
       <r>    11.6346     0.0000   352.0000 </r>
       <r>    11.8413     0.0000   352.0000 </r>
       <r>    12.0480     0.0000   352.0000 </r>
       <r>    12.2547     0.0000   352.0000 </r>
       <r>    12.4613     0.0000   352.0000 </r>
      </set>
     </set>
    </array>
   </total>
  </dos>
 </calculation>
 <structure name="finalpos" >
  <crystal>
   <varray name="basis" >
    <v>       6.91717563       0.00709388       0.01688084 </v>
    <v>       0.01075048      10.19556876      -0.00166618 </v>
    <v>       0.02519589      -0.00197448      10.16991215 </v>
   </varray>
   <i name="volume">    717.22323804 </i>
   <varray name="rec_basis" >
    <v>       0.14456871      -0.00015250      -0.00035820 </v>
    <v>      -0.00010063       0.09808194       0.00001929 </v>
    <v>      -0.00023998       0.00001632       0.09832986 </v>
   </varray>
  </crystal>
  <varray name="positions" >
   <v>       0.24354660       0.16953814       0.51121931 </v>
   <v>       0.03637873       0.33037830       0.34331519 </v>
   <v>       0.01299296       0.33486632       0.67074292 </v>
   <v>       0.26638072       0.50196744       0.83413998 </v>
   <v>       0.28414069       0.83148577       0.51134717 </v>
   <v>       0.26414291       0.82367218       0.15153088 </v>
   <v>       0.48428190       0.33149416       0.66742436 </v>
   <v>       0.48730808       0.31761290       0.99077239 </v>
   <v>       0.25066529       0.50011627       0.50817825 </v>
   <v>       0.47843402       0.66880795       0.33124294 </v>
   <v>       0.50755266       0.00353399       0.00231605 </v>
   <v>       0.51298841       0.67361853       0.00484358 </v>
   <v>       0.73552840       0.82680019       0.83988190 </v>
   <v>       0.24856027       0.16873258       0.15926824 </v>
   <v>       0.98864880       0.67842026       0.00342115 </v>
   <v>       0.49914037       0.00929224       0.67482805 </v>
   <v>       0.73503279       0.17012793       0.82422508 </v>
   <v>       0.74190101       0.82941324       0.16526124 </v>
   <v>       0.26375178       0.16054904       0.82509215 </v>
   <v>       0.49213721       0.65791668       0.66671586 </v>
   <v>       0.26788582       0.82881608       0.83952192 </v>
   <v>       0.71808827       0.83250430       0.50185987 </v>
   <v>       0.73310383       0.49890208       0.83416624 </v>
   <v>       0.24561824       0.50736641       0.15289655 </v>
   <v>       0.02032000       0.68137598       0.33799762 </v>
   <v>       0.75588568       0.17526573       0.49779658 </v>
   <v>       0.46308273       0.33434168       0.33523749 </v>
   <v>       0.01746035       0.99414060       0.33421347 </v>
   <v>       0.75581094       0.18103383       0.17639440 </v>
   <v>       0.74725455       0.49431421       0.49751523 </v>
   <v>       0.99276438       0.99774926       0.99959511 </v>
   <v>       0.01154269       0.32289425       0.98000487 </v>
   <v>       0.00315388       0.66625188       0.66827057 </v>
   <v>       0.48443506       0.00050891       0.32173909 </v>
   <v>       0.75238337       0.49828737       0.16844269 </v>
   <v>       0.99768459       0.99791830       0.66857860 </v>
  </varray>
 </structure>
</modeling>
