 vasp.5.4.1 05Feb16 (build Jan 29 2020 16:04:39) complex                        
  
 executed on           IFC91_ompi date 2020.06.15  13:22:46
 running on  160 total cores
 distrk:  each k-point on   20 cores,    8 groups
 distr:  one band on NCORES_PER_BAND=   5 cores,    4 groups


--------------------------------------------------------------------------------------------------------


 INCAR:
 POTCAR:    PAW_PBE Ta 17Jan2003                  
 POTCAR:    PAW_PBE Hf 20Jan2003                  
 POTCAR:    PAW_PBE Nb_sv 25May2007               
 POTCAR:    PAW_PBE Zr_sv 04Jan2005               

 ----------------------------------------------------------------------------- 
|                                                                             |
|           W    W    AA    RRRRR   N    N  II  N    N   GGGG   !!!           |
|           W    W   A  A   R    R  NN   N  II  NN   N  G    G  !!!           |
|           W    W  A    A  R    R  N N  N  II  N N  N  G       !!!           |
|           W WW W  AAAAAA  RRRRR   N  N N  II  N  N N  G  GGG   !            |
|           WW  WW  A    A  R   R   N   NN  II  N   NN  G    G                |
|           W    W  A    A  R    R  N    N  II  N    N   GGGG   !!!           |
|                                                                             |
|      For optimal performance we recommend to set                            |
|        NCORE= 4 - approx SQRT( number of cores)                             |
|      NCORE specifies how many cores store one orbital (NPAR=cpu/NCORE).     |
|      This setting can  greatly improve the performance of VASP for DFT.     |
|      The default, NPAR=number of cores might be grossly inefficient         |
|      on modern multi-core architectures or massively parallel machines.     |
|      Do your own testing !!!!                                               |
|      Unfortunately you need to use the default for GW and RPA calculations. |
|      (for HF NCORE is supported but not extensively tested yet)             |
|                                                                             |
 ----------------------------------------------------------------------------- 


 ----------------------------------------------------------------------------- 
|                                                                             |
|           W    W    AA    RRRRR   N    N  II  N    N   GGGG   !!!           |
|           W    W   A  A   R    R  NN   N  II  NN   N  G    G  !!!           |
|           W    W  A    A  R    R  N N  N  II  N N  N  G       !!!           |
|           W WW W  AAAAAA  RRRRR   N  N N  II  N  N N  G  GGG   !            |
|           WW  WW  A    A  R   R   N   NN  II  N   NN  G    G                |
|           W    W  A    A  R    R  N    N  II  N    N   GGGG   !!!           |
|                                                                             |
|      You have enabled k-point parallelism (KPAR>1).                         |
|      This developmental code was originally  written by Paul Kent at ORNL,  |
|      and carefully double checked in Vienna.                                |
|      GW as well as linear response parallelism added by Martijn Marsman     |
|      and Georg Kresse.                                                      |
|      Carefully verify results versus KPAR=1.                                |
|      Report problems to Paul Kent and Vienna.                               |
|                                                                             |
 ----------------------------------------------------------------------------- 

 POTCAR:    PAW_PBE Ta 17Jan2003                  
   VRHFIN =Ta:  6s5d                                                            
   LEXCH  = PE                                                                  
   EATOM  =   130.6506 eV,    9.6025 Ry                                         
                                                                                
   TITEL  = PAW_PBE Ta 17Jan2003                                                
   LULTRA =        F    use ultrasoft PP ?                                      
   IUNSCR =        1    unscreen: 0-lin 1-nonlin 2-no                           
   RPACOR =    2.330    partial core radius                                     
   POMASS =  180.948; ZVAL   =    5.000    mass and valenz                      
   RCORE  =    2.900    outmost cutoff radius                                   
   RWIGS  =    2.840; RWIGS  =    1.503    wigner-seitz radius (au A)           
   ENMAX  =  223.667; ENMIN  =  167.750 eV                                      
   RCLOC  =    2.205    cutoff for local pot                                    
   LCOR   =        T    correct aug charges                                     
   LPAW   =        T    paw PP                                                  
   EAUG   =  332.075                                                            
   DEXC   =    0.000                                                            
   RMAX   =    2.970    core radius for proj-oper                               
   RAUG   =    1.300    factor for augmentation sphere                          
   RDEP   =    3.060    radius for radial grids                                 
   RDEPT  =    2.354    core radius for aug-charge                              
                                                                                
   Atomic configuration                                                         
   16 entries                                                                   
     n  l   j            E        occ.                                          
     1  0  0.50    -67341.2807   2.0000                                         
     2  0  0.50    -11566.9376   2.0000                                         
     2  1  1.50    -10134.1182   6.0000                                         
     3  0  0.50     -2648.5620   2.0000                                         
     3  1  1.50     -2222.6012   6.0000                                         
     3  2  2.50     -1726.3120  10.0000                                         
     4  0  0.50      -538.6961   2.0000                                         
     4  1  1.50      -399.0129   6.0000                                         
     4  2  2.50      -220.3959  10.0000                                         
     4  3  3.50       -23.0374  14.0000                                         
     5  0  0.50       -71.2901   2.0000                                         
     5  1  1.50       -37.8225   6.0000                                         
     5  2  2.50        -2.6455   4.0000                                         
     6  0  0.50        -4.9623   1.0000                                         
     6  1  1.50        -1.3606   0.0000                                         
     5  3  2.50        -1.3606   0.0000                                         
   Description                                                                  
     l       E           TYP  RCUT    TYP  RCUT                                 
     2     -2.6455043     23  2.500                                             
     2     -0.6258895     23  2.500                                             
     0     -4.9622780     23  2.500                                             
     0      4.7531321     23  2.500                                             
     1     -1.3605826     23  2.900                                             
     1     27.2116520     23  2.900                                             
  local pseudopotential read in
  partial core-charges read in
  partial kinetic energy density read in
  atomic valenz-charges read in
  non local Contribution for L=           2  read in
    real space projection operators read in
  non local Contribution for L=           2  read in
    real space projection operators read in
  non local Contribution for L=           0  read in
    real space projection operators read in
  non local Contribution for L=           0  read in
    real space projection operators read in
  non local Contribution for L=           1  read in
    real space projection operators read in
  non local Contribution for L=           1  read in
    real space projection operators read in
    PAW grid and wavefunctions read in
 
   number of l-projection  operators is LMAX  =           6
   number of lm-projection operators is LMMAX =          18
 
 POTCAR:    PAW_PBE Hf 20Jan2003                  
   VRHFIN =Hf: 6s5d                                                             
   LEXCH  = PE                                                                  
   EATOM  =    75.9011 eV,    5.5786 Ry                                         
                                                                                
   TITEL  = PAW_PBE Hf 20Jan2003                                                
   LULTRA =        F    use ultrasoft PP ?                                      
   IUNSCR =        1    unscreen: 0-lin 1-nonlin 2-no                           
   RPACOR =    2.500    partial core radius                                     
   POMASS =  178.490; ZVAL   =    4.000    mass and valenz                      
   RCORE  =    3.000    outmost cutoff radius                                   
   RWIGS  =    3.050; RWIGS  =    1.614    wigner-seitz radius (au A)           
   ENMAX  =  220.334; ENMIN  =  165.250 eV                                      
   RCLOC  =    2.212    cutoff for local pot                                    
   LCOR   =        T    correct aug charges                                     
   LPAW   =        T    paw PP                                                  
   EAUG   =  335.116                                                            
   DEXC   =    0.000                                                            
   RMAX   =    3.077    core radius for proj-oper                               
   RAUG   =    1.300    factor for augmentation sphere                          
   RDEP   =    3.047    radius for radial grids                                 
   RDEPT  =    2.344    core radius for aug-charge                              
                                                                                
   Atomic configuration                                                         
   16 entries                                                                   
     n  l   j            E        occ.                                          
     1  0  0.50    -65259.4397   2.0000                                         
     2  0  0.50    -11157.9882   2.0000                                         
     2  1  1.50     -9795.2113   6.0000                                         
     3  0  0.50     -2541.4058   2.0000                                         
     3  1  1.50     -2134.4770   6.0000                                         
     3  2  2.50     -1653.5418  10.0000                                         
     4  0  0.50      -510.9575   2.0000                                         
     4  1  1.50      -377.5023   6.0000                                         
     4  2  2.50      -205.2085  10.0000                                         
     4  3  3.50       -15.4905  14.0000                                         
     5  0  0.50       -65.6020   2.0000                                         
     5  1  1.50       -34.2798   6.0000                                         
     5  2  2.50        -1.9877   3.0000                                         
     6  0  0.50        -4.7357   1.0000                                         
     6  1  1.50        -1.3606   0.0000                                         
     5  3  2.50        -1.3606   0.0000                                         
   Description                                                                  
     l       E           TYP  RCUT    TYP  RCUT                                 
     2     -1.9876627     23  2.500                                             
     2      0.0744703     23  2.500                                             
     0     -4.7356889     23  2.600                                             
     0      3.2364747     23  2.600                                             
     1     -1.3605826     23  3.000                                             
     1     27.2116520     23  3.000                                             
  local pseudopotential read in
  partial core-charges read in
  partial kinetic energy density read in
  atomic valenz-charges read in
  non local Contribution for L=           2  read in
    real space projection operators read in
  non local Contribution for L=           2  read in
    real space projection operators read in
  non local Contribution for L=           0  read in
    real space projection operators read in
  non local Contribution for L=           0  read in
    real space projection operators read in
  non local Contribution for L=           1  read in
    real space projection operators read in
  non local Contribution for L=           1  read in
    real space projection operators read in
    PAW grid and wavefunctions read in
 
   number of l-projection  operators is LMAX  =           6
   number of lm-projection operators is LMMAX =          18
 
 POTCAR:    PAW_PBE Nb_sv 25May2007               
   VRHFIN =Nb: 4p5s4d                                                           
   LEXCH  = PE                                                                  
   EATOM  =  1555.1913 eV,  114.3033 Ry                                         
                                                                                
   TITEL  = PAW_PBE Nb_sv 25May2007                                             
   LULTRA =        F    use ultrasoft PP ?                                      
   IUNSCR =        1    unscreen: 0-lin 1-nonlin 2-no                           
   RPACOR =    1.800    partial core radius                                     
   POMASS =   92.910; ZVAL   =   13.000    mass and valenz                      
   RCORE  =    2.400    outmost cutoff radius                                   
   RWIGS  =    2.400; RWIGS  =    1.270    wigner-seitz radius (au A)           
   ENMAX  =  293.235; ENMIN  =  219.927 eV                                      
   ICORE  =        3    local potential                                         
   LCOR   =        T    correct aug charges                                     
   LPAW   =        T    paw PP                                                  
   EAUG   =  455.659                                                            
   DEXC   =    0.000                                                            
   RMAX   =    2.456    core radius for proj-oper                               
   RAUG   =    1.300    factor for augmentation sphere                          
   RDEP   =    2.451    radius for radial grids                                 
   RDEPT  =    1.956    core radius for aug-charge                              
                                                                                
   Atomic configuration                                                         
   11 entries                                                                   
     n  l   j            E        occ.                                          
     1  0  0.50    -18805.2457   2.0000                                         
     2  0  0.50     -2630.2869   2.0000                                         
     2  1  1.50     -2348.4046   6.0000                                         
     3  0  0.50      -438.8757   2.0000                                         
     3  1  1.50      -346.7588   6.0000                                         
     3  2  2.50      -196.2560  10.0000                                         
     4  0  0.50       -58.3859   2.0000                                         
     5  0  0.50        -3.9816   1.0000                                         
     4  1  1.50       -34.5141   6.0000                                         
     4  2  2.50        -3.0408   4.0000                                         
     4  3  2.50        -1.3606   0.0000                                         
   Description                                                                  
     l       E           TYP  RCUT    TYP  RCUT                                 
     0    -58.3859094     23  2.200                                             
     0     -3.9816262     23  2.200                                             
     1    -34.5140738     23  2.200                                             
     1     13.6058260     23  2.200                                             
     2     -3.0408010     23  2.200                                             
     2     -0.1283038     23  2.200                                             
     3     -1.3605826     23  2.400                                             
  local pseudopotential read in
  partial core-charges read in
  partial kinetic energy density read in
  atomic valenz-charges read in
  non local Contribution for L=           0  read in
    real space projection operators read in
  non local Contribution for L=           0  read in
    real space projection operators read in
  non local Contribution for L=           1  read in
    real space projection operators read in
  non local Contribution for L=           1  read in
    real space projection operators read in
  non local Contribution for L=           2  read in
    real space projection operators read in
  non local Contribution for L=           2  read in
    real space projection operators read in
    PAW grid and wavefunctions read in
 
   number of l-projection  operators is LMAX  =           6
   number of lm-projection operators is LMMAX =          18
 
 POTCAR:    PAW_PBE Zr_sv 04Jan2005               
   VRHFIN =Zr: 4s4p5s4d                                                         
   LEXCH  = PE                                                                  
   EATOM  =  1284.2219 eV,   94.3876 Ry                                         
                                                                                
   TITEL  = PAW_PBE Zr_sv 04Jan2005                                             
   LULTRA =        F    use ultrasoft PP ?                                      
   IUNSCR =        1    unscreen: 0-lin 1-nonlin 2-no                           
   RPACOR =    2.200    partial core radius                                     
   POMASS =   91.224; ZVAL   =   12.000    mass and valenz                      
   RCORE  =    2.500    outmost cutoff radius                                   
   RWIGS  =    3.070; RWIGS  =    1.625    wigner-seitz radius (au A)           
   ENMAX  =  229.898; ENMIN  =  172.424 eV                                      
   ICORE  =        3    local potential                                         
   LCOR   =        T    correct aug charges                                     
   LPAW   =        T    paw PP                                                  
   EAUG   =  461.257                                                            
   DEXC   =    0.000                                                            
   RMAX   =    2.561    core radius for proj-oper                               
   RAUG   =    1.300    factor for augmentation sphere                          
   RDEP   =    2.597    radius for radial grids                                 
   RDEPT  =    2.007    core radius for aug-charge                              
                                                                                
   Atomic configuration                                                         
   11 entries                                                                   
     n  l   j            E        occ.                                          
     1  0  0.50    -17820.0161   2.0000                                         
     2  0  0.50     -2467.0882   2.0000                                         
     2  1  1.50     -2199.6095   6.0000                                         
     3  0  0.50      -402.4863   2.0000                                         
     3  1  1.50      -315.3675   6.0000                                         
     3  2  2.50      -172.4472  10.0000                                         
     4  0  0.50       -52.4146   2.0000                                         
     5  0  0.50        -3.8421   1.0000                                         
     4  1  1.50       -30.5054   6.0000                                         
     4  2  2.50        -2.3341   3.0000                                         
     4  3  2.50        -1.3606   0.0000                                         
   Description                                                                  
     l       E           TYP  RCUT    TYP  RCUT                                 
     0    -52.4145962     23  2.200                                             
     0     -3.8421270     23  2.500                                             
     1    -30.5053914     23  2.200                                             
     1     20.4087390     23  2.200                                             
     2     -2.3340816     23  2.500                                             
     2     -0.6120942     23  2.500                                             
     3     -4.0817478     23  2.500                                             
  local pseudopotential read in
  partial core-charges read in
  partial kinetic energy density read in
  atomic valenz-charges read in
  non local Contribution for L=           0  read in
    real space projection operators read in
  non local Contribution for L=           0  read in
    real space projection operators read in
  non local Contribution for L=           1  read in
    real space projection operators read in
  non local Contribution for L=           1  read in
    real space projection operators read in
  non local Contribution for L=           2  read in
    real space projection operators read in
  non local Contribution for L=           2  read in
    real space projection operators read in
    PAW grid and wavefunctions read in
 
   number of l-projection  operators is LMAX  =           6
   number of lm-projection operators is LMMAX =          18
 
 Optimization of the real space projectors (new method)

 maximal supplied QI-value         = 12.85
 optimisation between [QCUT,QGAM] = [  8.87, 17.73] = [ 22.01, 88.06] Ry 
 Optimized for a Real-space Cutoff    1.90 Angstroem

   l    n(q)    QCUT    max X(q) W(low)/X(q) W(high)/X(q)  e(spline) 
   2      9     8.867    62.315    0.23E-03    0.62E-04    0.11E-05
   2      9     8.867    52.185    0.23E-03    0.62E-04    0.11E-05
   0     10     8.867   103.837    0.15E-04    0.23E-04    0.98E-07
   0     10     8.867    59.728    0.12E-04    0.21E-04    0.89E-07
   1     10     8.867    13.958    0.50E-04    0.22E-04    0.14E-06
   1     10     8.867     8.441    0.36E-04    0.19E-04    0.98E-07
 Optimization of the real space projectors (new method)

 maximal supplied QI-value         = 12.47
 optimisation between [QCUT,QGAM] = [  8.86, 17.71] = [ 21.96, 87.83] Ry 
 Optimized for a Real-space Cutoff    1.90 Angstroem

   l    n(q)    QCUT    max X(q) W(low)/X(q) W(high)/X(q)  e(spline) 
   2      9     8.855    48.111    0.22E-03    0.80E-04    0.10E-05
   2      9     8.855    40.545    0.21E-03    0.76E-04    0.95E-06
   0     10     8.855   121.658    0.27E-04    0.12E-04    0.11E-06
   0     10     8.855    71.177    0.22E-04    0.11E-04    0.99E-07
   1     10     8.855    14.183    0.65E-04    0.10E-03    0.98E-07
   1     10     8.855     8.257    0.43E-04    0.73E-04    0.72E-07
 Optimization of the real space projectors (new method)

 maximal supplied QI-value         = 15.68
 optimisation between [QCUT,QGAM] = [  8.78, 17.72] = [ 21.60, 87.97] Ry 
 Optimized for a Real-space Cutoff    1.96 Angstroem

   l    n(q)    QCUT    max X(q) W(low)/X(q) W(high)/X(q)  e(spline) 
   0     10     8.783    10.201    0.29E-04    0.25E-05    0.69E-07
   0     10     8.783     8.174    0.45E-04    0.57E-05    0.14E-06
   1     10     8.783     3.488    0.76E-05    0.24E-04    0.95E-07
   1     10     8.783     4.917    0.78E-04    0.14E-03    0.46E-06
   2      9     8.783   153.744    0.22E-03    0.34E-04    0.15E-05
   2      9     8.783   126.342    0.22E-03    0.35E-04    0.15E-05
 Optimization of the real space projectors (new method)

 maximal supplied QI-value         = 15.12
 optimisation between [QCUT,QGAM] = [  8.77, 17.69] = [ 21.53, 87.61] Ry 
 Optimized for a Real-space Cutoff    1.74 Angstroem

   l    n(q)    QCUT    max X(q) W(low)/X(q) W(high)/X(q)  e(spline) 
   0      9     8.768    12.107    0.28E-04    0.53E-06    0.29E-07
   0      9     8.768     9.948    0.36E-04    0.50E-05    0.64E-07
   1      9     8.768     3.563    0.14E-04    0.16E-04    0.88E-07
   1      9     8.768     4.524    0.21E-03    0.33E-03    0.19E-06
   2      8     8.768    87.261    0.19E-03    0.25E-03    0.24E-06
   2      8     8.768    70.950    0.19E-03    0.24E-03    0.24E-06
  PAW_PBE Ta 17Jan2003                  :
 energy of atom  1       EATOM= -130.6506
 kinetic energy error for atom=    0.0121 (will be added to EATOM!!)
  PAW_PBE Hf 20Jan2003                  :
 energy of atom  2       EATOM=  -75.9011
 kinetic energy error for atom=    0.0071 (will be added to EATOM!!)
  PAW_PBE Nb_sv 25May2007               :
 energy of atom  3       EATOM=-1555.1913
 kinetic energy error for atom=    0.0655 (will be added to EATOM!!)
  PAW_PBE Zr_sv 04Jan2005               :
 energy of atom  4       EATOM=-1284.2219
 kinetic energy error for atom=    0.0483 (will be added to EATOM!!)
 
 
 POSCAR: generated by pypospack                  
  positions in direct lattice
  No initial velocities read in
 exchange correlation table for  LEXCH =        8
   RHO(1)=    0.500       N(1)  =     2000
   RHO(2)=  100.500       N(2)  =     4000
 


--------------------------------------------------------------------------------------------------------


 ion  position               nearest neighbor table
   1  0.752  0.841  0.157-  14 2.87   5 2.91   8 2.96  15 2.96  30 2.98  31 2.99  19 3.00  34 3.05
                            18 3.23  33 3.34  10 3.59
   2  0.241  0.160  0.497-   3 2.75   8 2.90  17 2.93  28 2.94  16 2.96  35 2.97  31 3.00  27 3.03
                            21 3.32  32 3.39  36 3.53
   3  0.005  0.316  0.348-  20 2.73   2 2.75  21 2.79  13 2.91  33 2.95  29 3.02  36 3.05  10 3.08
                            35 3.25   8 3.32  28 3.37  28 3.61
   4  0.264  0.507  0.815-  27 2.89   6 2.92   7 2.95   9 2.97  35 2.98  24 3.03  15 3.04  34 3.06
                            36 3.16  11 3.23  12 3.39  12 3.60
   5  0.515  0.678  0.321-  26 2.83  25 2.89   1 2.91  29 3.01  32 3.04  10 3.05  13 3.06  15 3.09
                            36 3.17  14 3.22  31 3.33   6 3.47  28 3.72
   6  0.531  0.662  0.661-  25 2.79  29 2.83  11 2.89  18 2.89  12 2.91   4 2.92  36 2.96  32 3.03
                             7 3.13   5 3.47  15 3.67  16 3.69
   7  0.981  0.662  0.666-  25 2.91  11 2.95   4 2.95  12 2.95  29 2.96  18 2.99  36 3.05  32 3.10
                             6 3.13  14 3.38  34 3.43  35 3.44  17 3.57
   8  0.996  0.995  0.338-  26 2.87   2 2.90  20 2.91  21 2.92   1 2.96  33 2.96  25 2.99  32 2.99
                            14 3.19   3 3.32  17 3.35  31 3.48  31 3.49  30 3.50
   9  0.474  0.334  0.000-  23 2.85  22 2.95   4 2.97  21 3.03  12 3.04  13 3.10  10 3.10  24 3.13
                            33 3.15  27 3.33  28 3.33  19 3.38  15 3.43
  10  0.767  0.493  0.165-  14 3.01   5 3.05  24 3.05  15 3.05   3 3.08  34 3.09   9 3.10  28 3.14
                            13 3.19  12 3.33  29 3.37  33 3.39   1 3.59  13 3.79
  11  0.268  0.820  0.808-   6 2.89   7 2.95  34 3.01  15 3.04  16 3.05  17 3.11  19 3.11  32 3.11
                            30 3.19   4 3.23  18 3.31  18 3.69
  12  0.749  0.496  0.839-   6 2.91   7 2.95  24 2.96  27 3.02   9 3.04  35 3.06  34 3.12  15 3.16
                            22 3.20  10 3.33   4 3.39  18 3.41  29 3.52   4 3.60
  13  0.224  0.496  0.189-   3 2.91  28 2.95  34 2.97  24 2.99  14 3.02  15 3.05   5 3.06   9 3.10
                            10 3.19  36 3.24  21 3.38  10 3.79
  14  0.976  0.686  0.336-  25 2.80   1 2.87  26 2.89  32 3.00  10 3.01  13 3.02  29 3.05   8 3.19
                             5 3.22  36 3.23   7 3.38  34 3.44
  15  0.481  0.666  0.019-  26 2.95   1 2.96   4 3.04  11 3.04  10 3.05  13 3.05  18 3.06   5 3.09
                            12 3.16  34 3.17   9 3.43  19 3.52   6 3.67  34 3.81
  16  0.518  0.019  0.668-  20 2.92   2 2.96  22 2.98  23 2.99  25 3.02  11 3.05  18 3.07  32 3.13
                            27 3.13  17 3.27  19 3.39  31 3.48   6 3.69  17 3.70
  17  0.987  0.008  0.665-  20 2.90   2 2.93  25 3.00  23 3.01  22 3.07  11 3.11  18 3.12  32 3.12
                            16 3.27  35 3.31   8 3.35  30 3.37   7 3.57  16 3.70
  18  0.741  0.826  0.841-   6 2.89   7 2.99  34 3.01  15 3.06  30 3.06  19 3.07  16 3.07  17 3.12
                             1 3.23  11 3.31  12 3.41  25 3.45  11 3.69
  19  0.481  0.006  0.999-  23 2.95   1 3.00  33 3.06  21 3.06  26 3.07  18 3.07  22 3.09  11 3.11
                            30 3.21  31 3.36   9 3.38  16 3.39  15 3.52  30 3.76
  20  0.758  0.169  0.491-   3 2.73  17 2.90   8 2.91  16 2.92  28 2.94  35 2.97  31 3.01  29 3.37
                            33 3.38
  21  0.218  0.169  0.172-   3 2.79  24 2.85  30 2.86  28 2.87   8 2.92   9 3.03  31 3.05  19 3.06
                            33 3.12   2 3.32  13 3.38
  22  0.754  0.185  0.845-  24 2.82  27 2.86  35 2.93   9 2.95  16 2.98  17 3.07  30 3.07  19 3.09
                            12 3.20  33 3.22
  23  0.248  0.177  0.829-  24 2.78  27 2.78  35 2.83   9 2.85  19 2.95  30 2.97  16 2.99  17 3.01

  24  0.024  0.332  0.989-  23 2.78  22 2.82  21 2.85  12 2.96  13 2.99   4 3.03  33 3.04  10 3.05
                             9 3.13  35 3.29  30 3.44
  25  0.742  0.830  0.503-   6 2.79  14 2.80   5 2.89   7 2.91   8 2.99  17 3.00  31 3.02  16 3.02
                            32 3.37  18 3.45  29 3.45
  26  0.246  0.836  0.185-  31 2.83   5 2.83   8 2.87  14 2.89  34 2.94  15 2.95  30 3.00  19 3.07
                            32 3.25
  27  0.495  0.322  0.675-  23 2.78  22 2.86   4 2.89  36 3.01  12 3.02   2 3.03  29 3.08  16 3.13
                             9 3.33  35 3.42
  28  0.487  0.317  0.327-  21 2.87  20 2.94   2 2.94  13 2.95  33 3.06  29 3.06  36 3.09  10 3.14
                            31 3.27   9 3.33   3 3.37   3 3.61   5 3.72
  29  0.739  0.495  0.495-   6 2.83   7 2.96   5 3.01   3 3.02  14 3.05  28 3.06  35 3.06  27 3.08
                            36 3.34  10 3.37  20 3.37  25 3.45  12 3.52  36 3.63
  30  0.020  0.999  0.995-  21 2.86  23 2.97  33 2.97   1 2.98  26 3.00  18 3.06  22 3.07  11 3.19
                            19 3.21  34 3.37  17 3.37  24 3.44   8 3.50  19 3.76
  31  0.497  1.000  0.328-  26 2.83   1 2.99   2 3.00  32 3.00  20 3.01  25 3.02  21 3.05  33 3.08
                            28 3.27   5 3.33  19 3.36  16 3.48   8 3.48   8 3.49
  32  0.259  0.831  0.503-   8 2.99  14 3.00  31 3.00   6 3.03   5 3.04   7 3.10  11 3.11  17 3.12
                            16 3.13  26 3.25  25 3.37   2 3.39  36 3.40
  33  0.771  0.165  0.160-   3 2.95   8 2.96  30 2.97  24 3.04  28 3.06  19 3.06  31 3.08  21 3.12
                             9 3.15  22 3.22   1 3.34  20 3.38  10 3.39
  34  0.027  0.673  0.001-  26 2.94  13 2.97  18 3.01  11 3.01   1 3.05   4 3.06  10 3.09  12 3.12
                            15 3.17  30 3.37   7 3.43  14 3.44  15 3.81
  35  0.004  0.328  0.667-  23 2.83  22 2.93   2 2.97  20 2.97   4 2.98  36 3.02  12 3.06  29 3.06
                             3 3.25  24 3.29  17 3.31  27 3.42   7 3.44
  36  0.260  0.502  0.505-   6 2.96  27 3.01  35 3.02   7 3.05   3 3.05  28 3.09   4 3.16   5 3.17
                            14 3.23  13 3.24  29 3.34  32 3.40   2 3.53  29 3.63
 
  LATTYP: Found a triclinic cell.
 ALAT       =    10.2050449200
 B/A-ratio  =     0.6827059708
 C/A-ratio  =     1.0107584746
 COS(alpha) =     0.0007871735
 COS(beta)  =     0.0015136296
 COS(gamma) =     0.0102956473
  
  Lattice vectors:
  
 A1 = (   0.0527862964,  -0.0083055362, -10.2049050188)
 A2 = (   6.9669530914,  -0.0028583016,  -0.0356913581)
 A3 = (   0.0038509753, -10.3148324063,  -0.0071981313)


Analysis of symmetry for initial positions (statically):
=====================================================================
 Subroutine PRICEL returns:
 Original cell was already a primitive cell.
 

 Routine SETGRP: Setting up the symmetry group for a 
 triclinic supercell.


 Subroutine GETGRP returns: Found  1 space group operations
 (whereof  1 operations were pure point group operations)
 out of a pool of  2 trial point group operations.


The static configuration has the point symmetry C_1 .


Analysis of symmetry for dynamics (positions and initial velocities):
=====================================================================
 Subroutine PRICEL returns:
 Original cell was already a primitive cell.
 

 Routine SETGRP: Setting up the symmetry group for a 
 triclinic supercell.


 Subroutine GETGRP returns: Found  1 space group operations
 (whereof  1 operations were pure point group operations)
 out of a pool of  2 trial point group operations.


The dynamic configuration has the point symmetry C_1 .


 Subroutine INISYM returns: Found  1 space group operations
 (whereof  1 operations are pure point group operations),
 and found     1 'primitive' translations

 
 
 KPOINTS: k-points                                

Automatic generation of k-mesh.
Space group operators:
 irot       det(A)        alpha          n_x          n_y          n_z        tau_x        tau_y        tau_z
    1     1.000000     0.000000     1.000000     0.000000     0.000000     0.000000     0.000000     0.000000
 
 Subroutine IBZKPT returns following result:
 ===========================================
 
 Found     14 irreducible k-points:
 
 Following reciprocal coordinates:
            Coordinates               Weight
  0.000000  0.000000  0.000000      1.000000
  0.333333  0.000000  0.000000      2.000000
  0.000000  0.333333  0.000000      2.000000
  0.333333  0.333333  0.000000      2.000000
 -0.333333  0.333333  0.000000      2.000000
 -0.000000 -0.000000  0.333333      2.000000
  0.333333  0.000000  0.333333      2.000000
 -0.333333  0.000000  0.333333      2.000000
 -0.000000  0.333333  0.333333      2.000000
  0.333333  0.333333  0.333333      2.000000
 -0.333333  0.333333  0.333333      2.000000
  0.000000 -0.333333  0.333333      2.000000
  0.333333 -0.333333  0.333333      2.000000
 -0.333333 -0.333333  0.333333      2.000000
 
 Following cartesian coordinates:
            Coordinates               Weight
  0.000000  0.000000  0.000000      1.000000
  0.238672  0.000088  0.001234      2.000000
  0.000065  0.161202 -0.000131      2.000000
  0.238737  0.161290  0.001104      2.000000
 -0.238606  0.161114 -0.001365      2.000000
  0.000835 -0.000113  0.162943      2.000000
  0.239506 -0.000025  0.164177      2.000000
 -0.237837 -0.000202  0.161708      2.000000
  0.000900  0.161089  0.162812      2.000000
  0.239572  0.161177  0.164046      2.000000
 -0.237772  0.161000  0.161577      2.000000
  0.000769 -0.161315  0.163074      2.000000
  0.239441 -0.161227  0.164308      2.000000
 -0.237902 -0.161404  0.161839      2.000000
 


--------------------------------------------------------------------------------------------------------




 Dimension of arrays:
   k-points           NKPTS =     14   k-points in BZ     NKDIM =     14   number of bands    NBANDS=    180
   number of dos      NEDOS =    301   number of ions     NIONS =     36
   non local maximal  LDIM  =      6   non local SUM 2l+1 LMDIM =     18
   total plane-waves  NPLWV = 144000
   max r-space proj   IRMAX =   6248   max aug-charges    IRDMAX=  13565
   dimension x,y,z NGX =    40 NGY =   60 NGZ =   60
   dimension x,y,z NGXF=    80 NGYF=  120 NGZF=  120
   support grid    NGXF=    80 NGYF=  120 NGZF=  120
   ions per type =               8  11   8   9
 NGX,Y,Z   is equivalent  to a cutoff of   9.54,  9.67,  9.77 a.u.
 NGXF,Y,Z  is equivalent  to a cutoff of  19.09, 19.34, 19.55 a.u.


 I would recommend the setting:
   dimension x,y,z NGX =    39 NGY =   58 NGZ =   58
 SYSTEM =  automatically generated by mexm         
 POSCAR =  generated by pypospack                  

 Startparameter for this run:
   NWRITE =      2    write-flag & timer
   PREC   = accura    normal or accurate (medium, high low for compatibility)
   ISTART =      0    job   : 0-new  1-cont  2-samecut
   ICHARG =      2    charge: 1-file 2-atom 10-const
   ISPIN  =      1    spin polarized calculation?
   LNONCOLLINEAR =      F non collinear calculations
   LSORBIT =      F    spin-orbit coupling
   INIWAV =      1    electr: 0-lowe 1-rand  2-diag
   LASPH  =      F    aspherical Exc in radial PAW
   METAGGA=      F    non-selfconsistent MetaGGA calc.

 Electronic Relaxation 1
   ENCUT  =  300.0 eV  22.05 Ry    4.70 a.u.   9.84 14.57 14.41*2*pi/ulx,y,z
   ENINI  =  300.0     initial cutoff
   ENAUG  =  461.3 eV  augmentation charge cutoff
   NELM   =     70;   NELMIN=  2; NELMDL= -5     # of ELM steps 
   EDIFF  = 0.1E-04   stopping-criterion for ELM
   LREAL  =      T    real-space projection
   NLSPLINE    = F    spline interpolate recip. space projectors
   LCOMPAT=      F    compatible to vasp.4.4
   GGA_COMPAT  = T    GGA compatible to vasp.4.4-vasp.4.6
   LMAXPAW     = -100 max onsite density
   LMAXMIX     =    2 max onsite mixed and CHGCAR
   VOSKOWN=      0    Vosko Wilk Nusair interpolation
   ROPT   =   -0.00025  -0.00025  -0.00025  -0.00025
 Ionic relaxation
   EDIFFG = -.1E-01   stopping-criterion for IOM
   NSW    =    300    number of steps for IOM
   NBLOCK =      1;   KBLOCK =    300    inner block; outer block 
   IBRION =      2    ionic relax: 0-MD 1-quasi-New 2-CG
   NFREE  =      1    steps in history (QN), initial steepest desc. (CG)
   ISIF   =      3    stress and relaxation
   IWAVPR =     11    prediction:  0-non 1-charg 2-wave 3-comb
   ISYM   =      1    0-nonsym 1-usesym 2-fastsym
   LCORR  =      T    Harris-Foulkes like correction to forces

   POTIM  = 0.1500    time-step for ionic-motion
   TEIN   =    0.0    initial temperature
   TEBEG  =    0.0;   TEEND  =   0.0 temperature during run
   SMASS  =  -3.00    Nose mass-parameter (am)
   estimated Nose-frequenzy (Omega)   =  0.10E-29 period in steps =****** mass=  -0.111E-26a.u.
   SCALEE = 1.0000    scale energy and forces
   NPACO  =    256;   APACO  = 16.0  distance and # of slots for P.C.
   PSTRESS=    0.0 pullay stress

  Mass of Ions in am
   POMASS = 180.95178.49 92.91 91.22
  Ionic Valenz
   ZVAL   =   5.00  4.00 13.00 12.00
  Atomic Wigner-Seitz radii
   RWIGS  =  -1.00 -1.00 -1.00 -1.00
  virtual crystal weights 
   VCA    =   1.00  1.00  1.00  1.00
   NELECT =     296.0000    total number of electrons
   NUPDOWN=      -1.0000    fix difference up-down

 DOS related values:
   EMIN   =  10.00;   EMAX   =-10.00  energy-range for DOS
   EFERMI =   0.00
   ISMEAR =     1;   SIGMA  =   0.15  broadening in eV -4-tet -1-fermi 0-gaus

 Electronic relaxation 2 (details)
   IALGO  =     68    algorithm
   LDIAG  =      T    sub-space diagonalisation (order eigenvalues)
   LSUBROT=      F    optimize rotation matrix (better conditioning)
   TURBO    =      0    0=normal 1=particle mesh
   IRESTART =      0    0=no restart 2=restart with 2 vectors
   NREBOOT  =      0    no. of reboots
   NMIN     =      0    reboot dimension
   EREF     =   0.00    reference energy to select bands
   IMIX   =      4    mixing-type and parameters
     AMIX     =   0.40;   BMIX     =  1.00
     AMIX_MAG =   1.60;   BMIX_MAG =  1.00
     AMIN     =   0.10
     WC   =   100.;   INIMIX=   1;  MIXPRE=   1;  MAXMIX= -45

 Intra band minimization:
   WEIMIN = 0.0010     energy-eigenvalue tresh-hold
   EBREAK =  0.14E-07  absolut break condition
   DEPER  =   0.30     relativ break condition  

   TIME   =   0.40     timestep for ELM

  volume/ion in A,a.u.               =      20.37       137.47
  Fermi-wavevector in a.u.,A,eV,Ry     =   1.209868  2.286319 19.915945  1.463781
  Thomas-Fermi vector in A             =   2.345432
 
 Write flags
   LWAVE  =      F    write WAVECAR
   LCHARG =      F    write CHGCAR
   LVTOT  =      F    write LOCPOT, total local potential
   LVHAR  =      F    write LOCPOT, Hartree potential only
   LELF   =      F    write electronic localiz. function (ELF)
   LORBIT =      0    0 simple, 1 ext, 2 COOP (PROOUT)


 Dipole corrections
   LMONO  =      F    monopole corrections only (constant potential shift)
   LDIPOL =      F    correct potential (dipole corrections)
   IDIPOL =      0    1-x, 2-y, 3-z, 4-all directions 
   EPSILON=  1.0000000 bulk dielectric constant

 Exchange correlation treatment:
   GGA     =    --    GGA type
   LEXCH   =     8    internal setting for exchange type
   VOSKOWN=      0    Vosko Wilk Nusair interpolation
   LHFCALC =     F    Hartree Fock is set to
   LHFONE  =     F    Hartree Fock one center treatment
   AEXX    =    0.0000 exact exchange contribution

 Linear response parameters
   LEPSILON=     F    determine dielectric tensor
   LRPA    =     F    only Hartree local field effects (RPA)
   LNABLA  =     F    use nabla operator in PAW spheres
   LVEL    =     F    velocity operator in full k-point grid
   LINTERFAST=   F  fast interpolation
   KINTER  =     0    interpolate to denser k-point grid
   CSHIFT  =0.1000    complex shift for real part using Kramers Kronig
   OMEGAMAX=  -1.0    maximum frequency
   DEG_THRESHOLD= 0.2000000E-02 threshold for treating states as degnerate
   RTIME   =    0.100 relaxation time in fs

 Orbital magnetization related:
   ORBITALMAG=     F  switch on orbital magnetization
   LCHIMAG   =     F  perturbation theory with respect to B field
   DQ        =  0.001000  dq finite difference perturbation B field



--------------------------------------------------------------------------------------------------------


 conjugate gradient relaxation of ions
 charge density and potential will be updated during run
 non-spin polarized calculation
 RMM-DIIS sequential band-by-band and
  variant of blocked Davidson during initial phase
 perform sub-space diagonalisation
    before iterative eigenvector-optimisation
 modified Broyden-mixing scheme, WC =      100.0
 initial mixing is a Kerker type mixing with AMIX =  0.4000 and BMIX =      1.0000
 Hartree-type preconditioning will be used
 using additional bands           32
 real space projection scheme for non local part
 use partial core corrections
 calculate Harris-corrections to forces 
   (improved forces if not selfconsistent)
 use gradient corrections 
 use of overlap-Matrix (Vanderbilt PP)
 Methfessel and Paxton  Order N= 1 SIGMA  =   0.15


--------------------------------------------------------------------------------------------------------


  energy-cutoff  :      300.00
  volume of cell :      733.33
      direct lattice vectors                 reciprocal lattice vectors
     6.966953091 -0.002858302 -0.035691358     0.143538594  0.000053071  0.000742430
    -0.003850975 10.314832406  0.007198131     0.000039371  0.096947840 -0.000078700
    -0.052786296  0.008305536 10.204905019     0.000501994 -0.000068198  0.097994745

  length of vectors
     6.967045100 10.314835637 10.205044920     0.143540524  0.096947880  0.097996054


 
 k-points in units of 2pi/SCALE and weight: k-points                                
   0.00000000  0.00000000  0.00000000       0.037
   0.23867167  0.00008825  0.00123449       0.074
   0.00006547  0.16120196 -0.00013086       0.074
   0.23873713  0.16129020  0.00110363       0.074
  -0.23860620  0.16111371 -0.00136535       0.074
   0.00083470 -0.00011340  0.16294272       0.074
   0.23950637 -0.00002515  0.16417721       0.074
  -0.23783697 -0.00020164  0.16170823       0.074
   0.00090017  0.16108856  0.16281186       0.074
   0.23957183  0.16117681  0.16404635       0.074
  -0.23777150  0.16100032  0.16157737       0.074
   0.00076924 -0.16131536  0.16307358       0.074
   0.23944090 -0.16122711  0.16430807       0.074
  -0.23790243 -0.16140360  0.16183909       0.074
 
 k-points in reciprocal lattice and weights: k-points                                
   0.00000000  0.00000000  0.00000000       0.037
   0.33333333  0.00000000  0.00000000       0.074
   0.00000000  0.33333333  0.00000000       0.074
   0.33333333  0.33333333  0.00000000       0.074
  -0.33333333  0.33333333  0.00000000       0.074
  -0.00000000 -0.00000000  0.33333333       0.074
   0.33333333  0.00000000  0.33333333       0.074
  -0.33333333  0.00000000  0.33333333       0.074
  -0.00000000  0.33333333  0.33333333       0.074
   0.33333333  0.33333333  0.33333333       0.074
  -0.33333333  0.33333333  0.33333333       0.074
   0.00000000 -0.33333333  0.33333333       0.074
   0.33333333 -0.33333333  0.33333333       0.074
  -0.33333333 -0.33333333  0.33333333       0.074
 
 position of ions in fractional coordinates (direct lattice) 
   0.75209500  0.84129400  0.15672200
   0.24069400  0.15957500  0.49733400
   0.00496300  0.31628500  0.34789800
   0.26396100  0.50676900  0.81490400
   0.51472300  0.67750200  0.32086700
   0.53119200  0.66157800  0.66095300
   0.98096200  0.66184400  0.66588500
   0.99640100  0.99453800  0.33795500
   0.47400600  0.33361400  0.00024800
   0.76662400  0.49332600  0.16526100
   0.26794400  0.81957700  0.80772300
   0.74901000  0.49591000  0.83925400
   0.22417500  0.49635900  0.18889400
   0.97597800  0.68598100  0.33551100
   0.48094000  0.66592200  0.01852300
   0.51758600  0.01886000  0.66791500
   0.98726000  0.00788000  0.66542200
   0.74126200  0.82605600  0.84103000
   0.48084000  0.00642900  0.99914400
   0.75827400  0.16873500  0.49082300
   0.21782900  0.16947000  0.17234300
   0.75361400  0.18540100  0.84476300
   0.24770700  0.17696900  0.82885800
   0.02446800  0.33243500  0.98868700
   0.74211600  0.82974200  0.50311100
   0.24631000  0.83583500  0.18490700
   0.49516800  0.32204900  0.67488700
   0.48698600  0.31694100  0.32650600
   0.73929900  0.49523100  0.49477400
   0.02011700  0.99924300  0.99533700
   0.49735800  0.99999800  0.32792200
   0.25893200  0.83115600  0.50291300
   0.77068400  0.16473100  0.16000300
   0.02651900  0.67291500  0.00098800
   0.00429000  0.32836000  0.66656600
   0.25971500  0.50150700  0.50517100
 
 position of ions in cartesian coordinates  (Angst):
   5.22829801  8.67695856  1.57854558
   1.65003687  1.64943203  5.06780418
   0.01499474  3.26530206  3.55236557
   1.79403659  5.23325104  8.31024458
   3.56650457  6.98951332  3.26092284
   3.66335276  6.82803746  6.73076575
   6.79661789  6.82953659  6.76504535
   6.92020969 10.25845167  3.42039459
   3.30107974  3.43981971 -0.01198570
   5.33041014  5.08775635  1.66266198
   1.82096040  8.45974211  8.23907263
   5.17210669  5.12005810  8.54134380
   1.54993423  5.12078800  1.92321708
   6.77924087  7.07577601  3.39396169
   3.34714421  6.86765300  0.17665345
   3.57066799  0.19860571  6.79767155
   6.84303860  0.08398568  6.75538838
   5.11676160  8.52549565  8.56212068
   3.29722386  0.07323810 10.17905406
   5.25630087  1.74238242  4.98295284
   1.50785445  1.74886343  1.75218920
   5.20508750  1.91724240  8.59516321
   1.68132920  1.83158166  8.45085001
   0.11699808  3.43715295 10.09097654
   5.14053468  8.56070709  5.11368543
   1.70305088  8.62232967  1.88418368
   3.41294724  3.32607142  6.87180267
   3.37435304  3.27051315  3.31686291
   5.12263704  5.11022099  5.02629983
   0.08376598 10.31523339 10.16379423
   3.44390910 10.31611375  3.33585960
   1.77421942  8.57667170  5.12892053
   5.36023894  1.69829872  1.60649441
   0.18211310  6.94093786  0.01397968
  -0.00656183  3.39250229  6.80445318
   1.78082482  5.17641403  5.14956241
 


--------------------------------------------------------------------------------------------------------


 k-point  1 :   0.0000 0.0000 0.0000  plane waves:    8665
 k-point  2 :   0.3333 0.0000 0.0000  plane waves:    8663
 k-point  3 :   0.0000 0.3333 0.0000  plane waves:    8657
 k-point  4 :   0.3333 0.3333 0.0000  plane waves:    8654
 k-point  5 :  -0.3333 0.3333 0.0000  plane waves:    8652
 k-point  6 :  -0.0000-0.0000 0.3333  plane waves:    8653
 k-point  7 :   0.3333 0.0000 0.3333  plane waves:    8645
 k-point  8 :  -0.3333 0.0000 0.3333  plane waves:    8663
 k-point  9 :  -0.0000 0.3333 0.3333  plane waves:    8641
 k-point 10 :   0.3333 0.3333 0.3333  plane waves:    8657
 k-point 11 :  -0.3333 0.3333 0.3333  plane waves:    8656
 k-point 12 :   0.0000-0.3333 0.3333  plane waves:    8638
 k-point 13 :   0.3333-0.3333 0.3333  plane waves:    8663
 k-point 14 :  -0.3333-0.3333 0.3333  plane waves:    8655

 maximum and minimum number of plane-waves per node :      1765     1691

 maximum number of plane-waves:      8665
 maximum index in each direction: 
   IXMAX=   10   IYMAX=   14   IZMAX=   14
   IXMIN=  -10   IYMIN=  -14   IZMIN=  -14

 WARNING: aliasing errors must be expected set NGX to  42 to avoid them
 NGY is ok and might be reduce to  58
 NGZ is ok and might be reduce to  58
 aliasing errors are usually negligible using standard VASP settings
 and one can safely disregard these warnings

 real space projection operators:
  total allocation   :      26789.62 KBytes
  max/ min on nodes  :       5408.16       5299.59


 parallel 3D FFT for wavefunctions:
    minimum data exchange during FFTs selected (reduces bandwidth)
 parallel 3D FFT for charge:
    minimum data exchange during FFTs selected (reduces bandwidth)


 total amount of memory used by VASP on root node    67903. kBytes
========================================================================

   base      :      30000. kBytes
   nonlr-proj:      10333. kBytes
   fftplans  :       2814. kBytes
   grid      :       5360. kBytes
   one-center:        124. kBytes
   wavefun   :      19272. kBytes
 
     INWAV:  cpu time    0.0000: real time    0.0000
 Broyden mixing: mesh for mixing (old mesh)
   NGX = 19   NGY = 29   NGZ = 29
  (NGX  = 80   NGY  =120   NGZ  =120)
  gives a total of  15979 points

 initial charge density was supplied:
 charge density of overlapping atoms calculated
 number of electron     296.0000000 magnetization 
 keeping initial charge density in first step


--------------------------------------------------------------------------------------------------------


 Maximum index for non-local projection operator         1215
 Maximum index for augmentation-charges          677 (set IRDMAX)


--------------------------------------------------------------------------------------------------------


 First call to EWALD:  gamma=   0.197
 Maximum number of real-space cells 3x 2x 2
 Maximum number of reciprocal cells 2x 3x 3

 FEWALD executed in parallel
    FEWALD:  cpu time    0.1127: real time    0.1137


----------------------------------------- Iteration    1(   1)  ---------------------------------------


    POTLOK:  cpu time    0.0482: real time    0.0603
    SETDIJ:  cpu time    0.0242: real time    0.0243
     EDDAV:  cpu time    1.1217: real time    1.1428
       DOS:  cpu time    0.0010: real time    0.0010
    --------------------------------------------
      LOOP:  cpu time    1.2042: real time    1.5906

 eigenvalue-minimisations  :  5544
 total energy-change (2. order) : 0.1872375E+04  (-0.1112928E+05)
 number of electron     296.0000000 magnetization 
 augmentation part      296.0000000 magnetization 

 Free energy of the ion-electron system (eV)
  ---------------------------------------------------
  alpha Z        PSCENC =      1497.06327566
  Ewald energy   TEWEN  =    -19170.05684693
  -Hartree energ DENC   =     -7492.33634139
  -exchange      EXHF   =         0.00000000
  -V(xc)+E(xc)   XCENC  =      -213.13160857
  PAW double counting   =     21780.24394083   -20220.05923427
  entropy T*S    EENTRO =        -0.00720810
  eigenvalues    EBANDS =      -187.85169390
  atomic energy  EATOM  =     25878.51093839
  Solvation  Ediel_sol  =         0.00000000
  ---------------------------------------------------
  free energy    TOTEN  =      1872.37522171 eV

  energy without entropy =     1872.38242980  energy(sigma->0) =     1872.37762441


--------------------------------------------------------------------------------------------------------




----------------------------------------- Iteration    1(   2)  ---------------------------------------


     EDDAV:  cpu time    1.0078: real time    1.0138
       DOS:  cpu time    0.0012: real time    0.0012
    --------------------------------------------
      LOOP:  cpu time    1.0105: real time    1.3394

 eigenvalue-minimisations  :  5688
 total energy-change (2. order) :-0.1957132E+04  (-0.1889443E+04)
 number of electron     296.0000000 magnetization 
 augmentation part      296.0000000 magnetization 

 Free energy of the ion-electron system (eV)
  ---------------------------------------------------
  alpha Z        PSCENC =      1497.06327566
  Ewald energy   TEWEN  =    -19170.05684693
  -Hartree energ DENC   =     -7492.33634139
  -exchange      EXHF   =         0.00000000
  -V(xc)+E(xc)   XCENC  =      -213.13160857
  PAW double counting   =     21780.24394083   -20220.05923427
  entropy T*S    EENTRO =         0.00123730
  eigenvalues    EBANDS =     -2144.99220417
  atomic energy  EATOM  =     25878.51093839
  Solvation  Ediel_sol  =         0.00000000
  ---------------------------------------------------
  free energy    TOTEN  =       -84.75684317 eV

  energy without entropy =      -84.75808046  energy(sigma->0) =      -84.75725560


--------------------------------------------------------------------------------------------------------




----------------------------------------- Iteration    1(   3)  ---------------------------------------


     EDDAV:  cpu time    1.4285: real time    1.5734
       DOS:  cpu time    0.0012: real time    0.0012
    --------------------------------------------
      LOOP:  cpu time    1.4302: real time    1.6257

 eigenvalue-minimisations  :  8704
 total energy-change (2. order) :-0.2549074E+03  (-0.2419506E+03)
 number of electron     296.0000000 magnetization 
 augmentation part      296.0000000 magnetization 

 Free energy of the ion-electron system (eV)
  ---------------------------------------------------
  alpha Z        PSCENC =      1497.06327566
  Ewald energy   TEWEN  =    -19170.05684693
  -Hartree energ DENC   =     -7492.33634139
  -exchange      EXHF   =         0.00000000
  -V(xc)+E(xc)   XCENC  =      -213.13160857
  PAW double counting   =     21780.24394083   -20220.05923427
  entropy T*S    EENTRO =         0.00529258
  eigenvalues    EBANDS =     -2399.90368305
  atomic energy  EATOM  =     25878.51093839
  Solvation  Ediel_sol  =         0.00000000
  ---------------------------------------------------
  free energy    TOTEN  =      -339.66426676 eV

  energy without entropy =     -339.66955934  energy(sigma->0) =     -339.66603095


--------------------------------------------------------------------------------------------------------




----------------------------------------- Iteration    1(   4)  ---------------------------------------


     EDDAV:  cpu time    1.4694: real time    1.4761
       DOS:  cpu time    0.0012: real time    0.0012
    --------------------------------------------
      LOOP:  cpu time    1.4714: real time    1.5147

 eigenvalue-minimisations  :  8376
 total energy-change (2. order) :-0.3062331E+02  (-0.2917343E+02)
 number of electron     296.0000000 magnetization 
 augmentation part      296.0000000 magnetization 

 Free energy of the ion-electron system (eV)
  ---------------------------------------------------
  alpha Z        PSCENC =      1497.06327566
  Ewald energy   TEWEN  =    -19170.05684693
  -Hartree energ DENC   =     -7492.33634139
  -exchange      EXHF   =         0.00000000
  -V(xc)+E(xc)   XCENC  =      -213.13160857
  PAW double counting   =     21780.24394083   -20220.05923427
  entropy T*S    EENTRO =         0.01422647
  eigenvalues    EBANDS =     -2430.53592857
  atomic energy  EATOM  =     25878.51093839
  Solvation  Ediel_sol  =         0.00000000
  ---------------------------------------------------
  free energy    TOTEN  =      -370.28757839 eV

  energy without entropy =     -370.30180486  energy(sigma->0) =     -370.29232055


--------------------------------------------------------------------------------------------------------




----------------------------------------- Iteration    1(   5)  ---------------------------------------


     EDDAV:  cpu time    1.4129: real time    1.5494
       DOS:  cpu time    0.0011: real time    0.0011
    CHARGE:  cpu time    0.0311: real time    0.0313
    MIXING:  cpu time    0.0013: real time    0.0014
    --------------------------------------------
      LOOP:  cpu time    1.4484: real time    1.6227

 eigenvalue-minimisations  :  8288
 total energy-change (2. order) :-0.3156376E+01  (-0.3096871E+01)
 number of electron     295.9999997 magnetization 
 augmentation part       16.1105045 magnetization 

 Broyden mixing:
  rms(total) = 0.63725E+01    rms(broyden)= 0.63720E+01
  rms(prec ) = 0.66288E+01
  weight for this iteration     100.00

 Free energy of the ion-electron system (eV)
  ---------------------------------------------------
  alpha Z        PSCENC =      1497.06327566
  Ewald energy   TEWEN  =    -19170.05684693
  -Hartree energ DENC   =     -7492.33634139
  -exchange      EXHF   =         0.00000000
  -V(xc)+E(xc)   XCENC  =      -213.13160857
  PAW double counting   =     21780.24394083   -20220.05923427
  entropy T*S    EENTRO =         0.01241319
  eigenvalues    EBANDS =     -2433.69049150
  atomic energy  EATOM  =     25878.51093839
  Solvation  Ediel_sol  =         0.00000000
  ---------------------------------------------------
  free energy    TOTEN  =      -373.44395460 eV

  energy without entropy =     -373.45636779  energy(sigma->0) =     -373.44809233


--------------------------------------------------------------------------------------------------------




----------------------------------------- Iteration    1(   6)  ---------------------------------------


    POTLOK:  cpu time    0.0293: real time    0.0293
    SETDIJ:  cpu time    0.0036: real time    0.0036
    EDDIAG:  cpu time    0.0806: real time    0.0809
  RMM-DIIS:  cpu time    0.7054: real time    0.7090
    ORTHCH:  cpu time    0.0126: real time    0.0126
       DOS:  cpu time    0.0010: real time    0.0010
    CHARGE:  cpu time    0.0299: real time    0.0300
    MIXING:  cpu time    0.0018: real time    0.0133
    --------------------------------------------
      LOOP:  cpu time    0.8648: real time    0.9422

 eigenvalue-minimisations  :  6874
 total energy-change (2. order) : 0.1028347E+02  (-0.2222505E+01)
 number of electron     295.9999997 magnetization 
 augmentation part       16.7744004 magnetization 

 Broyden mixing:
  rms(total) = 0.30435E+01    rms(broyden)= 0.30434E+01
  rms(prec ) = 0.32472E+01
  weight for this iteration     100.00

 eigenvalues of (default mixing * dielectric matrix)
  average eigenvalue GAMMA=   1.8335
  1.8335

 Free energy of the ion-electron system (eV)
  ---------------------------------------------------
  alpha Z        PSCENC =      1497.06327566
  Ewald energy   TEWEN  =    -19170.05684693
  -Hartree energ DENC   =     -7330.44944752
  -exchange      EXHF   =         0.00000000
  -V(xc)+E(xc)   XCENC  =      -216.77398956
  PAW double counting   =     27294.29950940   -25741.40915896
  entropy T*S    EENTRO =         0.01430030
  eigenvalues    EBANDS =     -2574.35906417
  atomic energy  EATOM  =     25878.51093839
  Solvation  Ediel_sol  =         0.00000000
  ---------------------------------------------------
  free energy    TOTEN  =      -363.16048338 eV

  energy without entropy =     -363.17478368  energy(sigma->0) =     -363.16525015


--------------------------------------------------------------------------------------------------------




----------------------------------------- Iteration    1(   7)  ---------------------------------------


    POTLOK:  cpu time    0.0282: real time    0.0634
    SETDIJ:  cpu time    0.0038: real time    0.0059
    EDDIAG:  cpu time    0.0787: real time    0.0794
  RMM-DIIS:  cpu time    0.7692: real time    0.7724
    ORTHCH:  cpu time    0.0124: real time    0.0125
       DOS:  cpu time    0.0010: real time    0.0010
    CHARGE:  cpu time    0.0298: real time    0.0299
    MIXING:  cpu time    0.0013: real time    0.0013
    --------------------------------------------
      LOOP:  cpu time    0.9252: real time    1.0347

 eigenvalue-minimisations  :  7462
 total energy-change (2. order) : 0.2162010E-01  (-0.2506081E+01)
 number of electron     295.9999996 magnetization 
 augmentation part       17.2495350 magnetization 

 Broyden mixing:
  rms(total) = 0.95210E+00    rms(broyden)= 0.95173E+00
  rms(prec ) = 0.24612E+01
  weight for this iteration     100.00

 eigenvalues of (default mixing * dielectric matrix)
  average eigenvalue GAMMA=   1.2045
  1.8214  0.5877

 Free energy of the ion-electron system (eV)
  ---------------------------------------------------
  alpha Z        PSCENC =      1497.06327566
  Ewald energy   TEWEN  =    -19170.05684693
  -Hartree energ DENC   =     -7221.45692857
  -exchange      EXHF   =         0.00000000
  -V(xc)+E(xc)   XCENC  =      -216.61816787
  PAW double counting   =     32895.33924098   -31336.61617064
  entropy T*S    EENTRO =         0.00848362
  eigenvalues    EBANDS =     -2689.31268791
  atomic energy  EATOM  =     25878.51093839
  Solvation  Ediel_sol  =         0.00000000
  ---------------------------------------------------
  free energy    TOTEN  =      -363.13886328 eV

  energy without entropy =     -363.14734690  energy(sigma->0) =     -363.14169116


--------------------------------------------------------------------------------------------------------




----------------------------------------- Iteration    1(   8)  ---------------------------------------


    POTLOK:  cpu time    0.0286: real time    0.0287
    SETDIJ:  cpu time    0.0036: real time    0.0036
    EDDIAG:  cpu time    0.0771: real time    0.0774
  RMM-DIIS:  cpu time    0.8372: real time    0.8403
    ORTHCH:  cpu time    0.0136: real time    0.0137
       DOS:  cpu time    0.0017: real time    0.0017
    CHARGE:  cpu time    0.0321: real time    0.0322
    MIXING:  cpu time    0.0015: real time    0.0015
    --------------------------------------------
      LOOP:  cpu time    0.9960: real time    1.0621

 eigenvalue-minimisations  :  7661
 total energy-change (2. order) : 0.3893015E+01  (-0.4702375E+00)
 number of electron     295.9999997 magnetization 
 augmentation part       17.0291941 magnetization 

 Broyden mixing:
  rms(total) = 0.43424E+00    rms(broyden)= 0.43389E+00
  rms(prec ) = 0.76553E+00
  weight for this iteration     100.00

 eigenvalues of (default mixing * dielectric matrix)
  average eigenvalue GAMMA=   1.1229
  1.8032  1.1267  0.4389

 Free energy of the ion-electron system (eV)
  ---------------------------------------------------
  alpha Z        PSCENC =      1497.06327566
  Ewald energy   TEWEN  =    -19170.05684693
  -Hartree energ DENC   =     -7238.13641918
  -exchange      EXHF   =         0.00000000
  -V(xc)+E(xc)   XCENC  =      -215.73622218
  PAW double counting   =     33547.15368929   -31985.08152347
  entropy T*S    EENTRO =         0.01948364
  eigenvalues    EBANDS =     -2672.98222304
  atomic energy  EATOM  =     25878.51093839
  Solvation  Ediel_sol  =         0.00000000
  ---------------------------------------------------
  free energy    TOTEN  =      -359.24584784 eV

  energy without entropy =     -359.26533148  energy(sigma->0) =     -359.25234238


--------------------------------------------------------------------------------------------------------




----------------------------------------- Iteration    1(   9)  ---------------------------------------


    POTLOK:  cpu time    0.0363: real time    0.0364
    SETDIJ:  cpu time    0.0046: real time    0.0046
    EDDIAG:  cpu time    0.1300: real time    0.1311
  RMM-DIIS:  cpu time    0.6701: real time    0.8860
    ORTHCH:  cpu time    0.0129: real time    0.0131
       DOS:  cpu time    0.0012: real time    0.0012
    CHARGE:  cpu time    0.0391: real time    0.0393
    MIXING:  cpu time    0.0015: real time    0.0015
    --------------------------------------------
      LOOP:  cpu time    0.8967: real time    1.1854

 eigenvalue-minimisations  :  7595
 total energy-change (2. order) : 0.2134887E+00  (-0.2324797E+00)
 number of electron     295.9999997 magnetization 
 augmentation part       16.9018024 magnetization 

 Broyden mixing:
  rms(total) = 0.30863E+00    rms(broyden)= 0.30846E+00
  rms(prec ) = 0.42638E+00
  weight for this iteration     100.00

 eigenvalues of (default mixing * dielectric matrix)
  average eigenvalue GAMMA=   1.1000
  1.7895  1.7895  0.4106  0.4106

 Free energy of the ion-electron system (eV)
  ---------------------------------------------------
  alpha Z        PSCENC =      1497.06327566
  Ewald energy   TEWEN  =    -19170.05684693
  -Hartree energ DENC   =     -7238.03027939
  -exchange      EXHF   =         0.00000000
  -V(xc)+E(xc)   XCENC  =      -215.34116571
  PAW double counting   =     33704.73154325   -32139.20711769
  entropy T*S    EENTRO =         0.01945183
  eigenvalues    EBANDS =     -2676.72215858
  atomic energy  EATOM  =     25878.51093839
  Solvation  Ediel_sol  =         0.00000000
  ---------------------------------------------------
  free energy    TOTEN  =      -359.03235918 eV

  energy without entropy =     -359.05181100  energy(sigma->0) =     -359.03884312


--------------------------------------------------------------------------------------------------------




----------------------------------------- Iteration    1(  10)  ---------------------------------------


    POTLOK:  cpu time    0.0295: real time    0.0296
    SETDIJ:  cpu time    0.1426: real time    0.1429
    EDDIAG:  cpu time    0.1220: real time    0.1223
  RMM-DIIS:  cpu time    0.8735: real time    0.8768
    ORTHCH:  cpu time    0.0126: real time    0.0126
       DOS:  cpu time    0.0027: real time    0.0027
    CHARGE:  cpu time    0.0400: real time    0.0401
    MIXING:  cpu time    0.0014: real time    0.0014
    --------------------------------------------
      LOOP:  cpu time    1.2249: real time    1.2665

 eigenvalue-minimisations  :  7603
 total energy-change (2. order) : 0.4504129E-01  (-0.4462311E-01)
 number of electron     295.9999997 magnetization 
 augmentation part       16.8032841 magnetization 

 Broyden mixing:
  rms(total) = 0.15313E+00    rms(broyden)= 0.15305E+00
  rms(prec ) = 0.26991E+00
  weight for this iteration     100.00

 eigenvalues of (default mixing * dielectric matrix)
  average eigenvalue GAMMA=   1.0919
  1.9489  1.9489  0.7151  0.4749  0.3716

 Free energy of the ion-electron system (eV)
  ---------------------------------------------------
  alpha Z        PSCENC =      1497.06327566
  Ewald energy   TEWEN  =    -19170.05684693
  -Hartree energ DENC   =     -7249.03744500
  -exchange      EXHF   =         0.00000000
  -V(xc)+E(xc)   XCENC  =      -214.42209942
  PAW double counting   =     33905.03978385   -32332.51371907
  entropy T*S    EENTRO =         0.02056439
  eigenvalues    EBANDS =     -2673.59176975
  atomic energy  EATOM  =     25878.51093839
  Solvation  Ediel_sol  =         0.00000000
  ---------------------------------------------------
  free energy    TOTEN  =      -358.98731789 eV

  energy without entropy =     -359.00788228  energy(sigma->0) =     -358.99417269


--------------------------------------------------------------------------------------------------------




----------------------------------------- Iteration    1(  11)  ---------------------------------------


    POTLOK:  cpu time    0.0288: real time    0.0289
    SETDIJ:  cpu time    0.0122: real time    0.0123
    EDDIAG:  cpu time    0.5756: real time    0.6197
  RMM-DIIS:  cpu time    0.7786: real time    0.8447
    ORTHCH:  cpu time    0.0123: real time    0.0123
       DOS:  cpu time    0.0035: real time    0.0035
    CHARGE:  cpu time    0.0319: real time    0.0321
    MIXING:  cpu time    0.0014: real time    0.0014
    --------------------------------------------
      LOOP:  cpu time    1.4451: real time    1.5993

 eigenvalue-minimisations  :  7630
 total energy-change (2. order) : 0.3292524E-01  (-0.1536270E-01)
 number of electron     295.9999997 magnetization 
 augmentation part       16.7738279 magnetization 

 Broyden mixing:
  rms(total) = 0.80102E-01    rms(broyden)= 0.80047E-01
  rms(prec ) = 0.15704E+00
  weight for this iteration     100.00

 eigenvalues of (default mixing * dielectric matrix)
  average eigenvalue GAMMA=   1.0422
  2.1069  1.8332  1.0154  0.4691  0.4691  0.3598

 Free energy of the ion-electron system (eV)
  ---------------------------------------------------
  alpha Z        PSCENC =      1497.06327566
  Ewald energy   TEWEN  =    -19170.05684693
  -Hartree energ DENC   =     -7256.27336042
  -exchange      EXHF   =         0.00000000
  -V(xc)+E(xc)   XCENC  =      -213.88502811
  PAW double counting   =     34070.38179096   -32493.79378924
  entropy T*S    EENTRO =         0.01978220
  eigenvalues    EBANDS =     -2670.92115515
  atomic energy  EATOM  =     25878.51093839
  Solvation  Ediel_sol  =         0.00000000
  ---------------------------------------------------
  free energy    TOTEN  =      -358.95439265 eV

  energy without entropy =     -358.97417485  energy(sigma->0) =     -358.96098672


--------------------------------------------------------------------------------------------------------




----------------------------------------- Iteration    1(  12)  ---------------------------------------


    POTLOK:  cpu time    0.0291: real time    0.0292
    SETDIJ:  cpu time    0.0134: real time    0.0135
    EDDIAG:  cpu time    0.0850: real time    0.0854
  RMM-DIIS:  cpu time    0.8912: real time    0.8949
    ORTHCH:  cpu time    0.0129: real time    0.0130
       DOS:  cpu time    0.1145: real time    0.1150
    CHARGE:  cpu time    0.8254: real time    0.8276
    MIXING:  cpu time    0.0014: real time    0.0014
    --------------------------------------------
      LOOP:  cpu time    1.9737: real time    2.0202

 eigenvalue-minimisations  :  7702
 total energy-change (2. order) : 0.6997247E-02  (-0.5709691E-02)
 number of electron     295.9999997 magnetization 
 augmentation part       16.7745877 magnetization 

 Broyden mixing:
  rms(total) = 0.46633E-01    rms(broyden)= 0.46608E-01
  rms(prec ) = 0.71547E-01
  weight for this iteration     100.00

 eigenvalues of (default mixing * dielectric matrix)
  average eigenvalue GAMMA=   1.0214
  2.1760  1.8231  1.2570  0.6491  0.5252  0.3598  0.3598

 Free energy of the ion-electron system (eV)
  ---------------------------------------------------
  alpha Z        PSCENC =      1497.06327566
  Ewald energy   TEWEN  =    -19170.05684693
  -Hartree energ DENC   =     -7257.16852159
  -exchange      EXHF   =         0.00000000
  -V(xc)+E(xc)   XCENC  =      -213.74356165
  PAW double counting   =     34189.61071852   -32611.25885801
  entropy T*S    EENTRO =         0.01992291
  eigenvalues    EBANDS =     -2671.92446270
  atomic energy  EATOM  =     25878.51093839
  Solvation  Ediel_sol  =         0.00000000
  ---------------------------------------------------
  free energy    TOTEN  =      -358.94739540 eV

  energy without entropy =     -358.96731831  energy(sigma->0) =     -358.95403637


--------------------------------------------------------------------------------------------------------




----------------------------------------- Iteration    1(  13)  ---------------------------------------


    POTLOK:  cpu time    0.0279: real time    0.0281
    SETDIJ:  cpu time    0.0940: real time    0.0944
    EDDIAG:  cpu time    0.1030: real time    0.1034
  RMM-DIIS:  cpu time    0.7897: real time    0.7924
    ORTHCH:  cpu time    0.0125: real time    0.0125
       DOS:  cpu time    0.0018: real time    0.0018
    CHARGE:  cpu time    0.0299: real time    0.0301
    MIXING:  cpu time    0.0015: real time    0.0015
    --------------------------------------------
      LOOP:  cpu time    1.0608: real time    1.1311

 eigenvalue-minimisations  :  7695
 total energy-change (2. order) : 0.1876688E-02  (-0.1803088E-02)
 number of electron     295.9999997 magnetization 
 augmentation part       16.7745685 magnetization 

 Broyden mixing:
  rms(total) = 0.28854E-01    rms(broyden)= 0.28842E-01
  rms(prec ) = 0.37924E-01
  weight for this iteration     100.00

 eigenvalues of (default mixing * dielectric matrix)
  average eigenvalue GAMMA=   1.0814
  2.3446  2.0226  1.4596  1.0750  0.5670  0.4465  0.3864  0.3495

 Free energy of the ion-electron system (eV)
  ---------------------------------------------------
  alpha Z        PSCENC =      1497.06327566
  Ewald energy   TEWEN  =    -19170.05684693
  -Hartree energ DENC   =     -7257.13783111
  -exchange      EXHF   =         0.00000000
  -V(xc)+E(xc)   XCENC  =      -213.73145284
  PAW double counting   =     34260.38894814   -32681.13515999
  entropy T*S    EENTRO =         0.01981025
  eigenvalues    EBANDS =     -2672.86720029
  atomic energy  EATOM  =     25878.51093839
  Solvation  Ediel_sol  =         0.00000000
  ---------------------------------------------------
  free energy    TOTEN  =      -358.94551872 eV

  energy without entropy =     -358.96532897  energy(sigma->0) =     -358.95212213


--------------------------------------------------------------------------------------------------------




----------------------------------------- Iteration    1(  14)  ---------------------------------------


    POTLOK:  cpu time    0.0283: real time    0.0284
    SETDIJ:  cpu time    0.0072: real time    0.0072
    EDDIAG:  cpu time    0.0843: real time    0.0849
  RMM-DIIS:  cpu time    0.7923: real time    0.7971
    ORTHCH:  cpu time    0.0131: real time    0.0132
       DOS:  cpu time    0.0038: real time    0.0038
    CHARGE:  cpu time    0.0298: real time    0.0299
    MIXING:  cpu time    0.0015: real time    0.0016
    --------------------------------------------
      LOOP:  cpu time    0.9611: real time    1.0280

 eigenvalue-minimisations  :  7730
 total energy-change (2. order) :-0.1481293E-03  (-0.6942164E-03)
 number of electron     295.9999997 magnetization 
 augmentation part       16.7733305 magnetization 

 Broyden mixing:
  rms(total) = 0.14610E-01    rms(broyden)= 0.14604E-01
  rms(prec ) = 0.26236E-01
  weight for this iteration     100.00

 eigenvalues of (default mixing * dielectric matrix)
  average eigenvalue GAMMA=   1.0628
  2.5131  2.0543  1.5615  1.0809  0.5926  0.5926  0.4426  0.3810  0.3470

 Free energy of the ion-electron system (eV)
  ---------------------------------------------------
  alpha Z        PSCENC =      1497.06327566
  Ewald energy   TEWEN  =    -19170.05684693
  -Hartree energ DENC   =     -7257.31512134
  -exchange      EXHF   =         0.00000000
  -V(xc)+E(xc)   XCENC  =      -213.72480085
  PAW double counting   =     34295.96278384   -32716.06248098
  entropy T*S    EENTRO =         0.01989797
  eigenvalues    EBANDS =     -2673.34331260
  atomic energy  EATOM  =     25878.51093839
  Solvation  Ediel_sol  =         0.00000000
  ---------------------------------------------------
  free energy    TOTEN  =      -358.94566684 eV

  energy without entropy =     -358.96556482  energy(sigma->0) =     -358.95229950


--------------------------------------------------------------------------------------------------------




----------------------------------------- Iteration    1(  15)  ---------------------------------------


    POTLOK:  cpu time    0.0280: real time    0.0281
    SETDIJ:  cpu time    0.0035: real time    0.0035
    EDDIAG:  cpu time    0.0779: real time    0.0783
  RMM-DIIS:  cpu time    0.7943: real time    0.7995
    ORTHCH:  cpu time    0.0124: real time    0.0125
       DOS:  cpu time    0.0010: real time    0.0010
    CHARGE:  cpu time    0.0305: real time    0.0306
    MIXING:  cpu time    0.0016: real time    0.0016
    --------------------------------------------
      LOOP:  cpu time    0.9498: real time    1.0154

 eigenvalue-minimisations  :  7827
 total energy-change (2. order) :-0.3497522E-04  (-0.3232181E-03)
 number of electron     295.9999997 magnetization 
 augmentation part       16.7719865 magnetization 

 Broyden mixing:
  rms(total) = 0.67338E-02    rms(broyden)= 0.67288E-02
  rms(prec ) = 0.15096E-01
  weight for this iteration     100.00

 eigenvalues of (default mixing * dielectric matrix)
  average eigenvalue GAMMA=   1.0318
  2.5656  2.0749  1.4896  1.2599  0.6987  0.6422  0.4345  0.4345  0.3471  0.3707

 Free energy of the ion-electron system (eV)
  ---------------------------------------------------
  alpha Z        PSCENC =      1497.06327566
  Ewald energy   TEWEN  =    -19170.05684693
  -Hartree energ DENC   =     -7257.98022966
  -exchange      EXHF   =         0.00000000
  -V(xc)+E(xc)   XCENC  =      -213.70595308
  PAW double counting   =     34317.71457322   -32737.38973646
  entropy T*S    EENTRO =         0.01996562
  eigenvalues    EBANDS =     -2673.12168857
  atomic energy  EATOM  =     25878.51093839
  Solvation  Ediel_sol  =         0.00000000
  ---------------------------------------------------
  free energy    TOTEN  =      -358.94570182 eV

  energy without entropy =     -358.96566744  energy(sigma->0) =     -358.95235703


--------------------------------------------------------------------------------------------------------




----------------------------------------- Iteration    1(  16)  ---------------------------------------


    POTLOK:  cpu time    0.0297: real time    0.0298
    SETDIJ:  cpu time    0.0036: real time    0.0036
    EDDIAG:  cpu time    0.0781: real time    0.0783
  RMM-DIIS:  cpu time    0.7343: real time    0.7368
    ORTHCH:  cpu time    0.0126: real time    0.0128
       DOS:  cpu time    0.0009: real time    0.0009
    CHARGE:  cpu time    0.0320: real time    0.0321
    MIXING:  cpu time    0.0017: real time    0.0017
    --------------------------------------------
      LOOP:  cpu time    0.8934: real time    0.9355

 eigenvalue-minimisations  :  7194
 total energy-change (2. order) : 0.1362360E-04  (-0.1373785E-03)
 number of electron     295.9999997 magnetization 
 augmentation part       16.7717963 magnetization 

 Broyden mixing:
  rms(total) = 0.35792E-02    rms(broyden)= 0.35769E-02
  rms(prec ) = 0.63873E-02
  weight for this iteration     100.00

 eigenvalues of (default mixing * dielectric matrix)
  average eigenvalue GAMMA=   1.0133
  2.5939  2.0979  1.4998  1.3792  0.8589  0.6586  0.4914  0.4914  0.3686  0.3686
  0.3378

 Free energy of the ion-electron system (eV)
  ---------------------------------------------------
  alpha Z        PSCENC =      1497.06327566
  Ewald energy   TEWEN  =    -19170.05684693
  -Hartree energ DENC   =     -7258.06861840
  -exchange      EXHF   =         0.00000000
  -V(xc)+E(xc)   XCENC  =      -213.70194194
[...]
    102       5.4889      2.00000
    103       5.5269      2.00000
    104       5.6263      2.00000
    105       5.6677      2.00000
    106       5.7312      2.00000
    107       5.7917      2.00000
    108       5.8493      2.00000
    109       5.8876      2.00000
    110       6.0405      2.00000
    111       6.1102      2.00000
    112       6.1346      2.00000
    113       6.1761      2.00000
    114       6.2110      2.00000
    115       6.2295      2.00000
    116       6.2423      2.00000
    117       6.2948      2.00000
    118       6.3176      2.00000
    119       6.3657      2.00000
    120       6.4237      2.00000
    121       6.4470      2.00000
    122       6.4664      2.00000
    123       6.5033      2.00000
    124       6.5801      2.00000
    125       6.6075      2.00000
    126       6.6518      2.00000
    127       6.6917      2.00000
    128       6.7307      2.00000
    129       6.7397      2.00000
    130       6.7716      2.00000
    131       6.8337      2.00000
    132       6.8923      2.00000
    133       6.9146      2.00000
    134       6.9614      2.00000
    135       6.9943      2.00002
    136       7.0326      2.00008
    137       7.0837      2.00056
    138       7.1287      2.00235
    139       7.1520      2.00456
    140       7.1769      2.00870
    141       7.2230      2.02388
    142       7.2607      2.04458
    143       7.2946      2.06418
    144       7.3158      2.07073
    145       7.3362      2.06649
    146       7.3735      2.00977
    147       7.4157      1.82480
    148       7.4605      1.46163
    149       7.4816      1.24128
    150       7.5041      0.98988
    151       7.5452      0.54641
    152       7.5629      0.38207
    153       7.6015      0.11372
    154       7.6445     -0.03596
    155       7.6951     -0.07008
    156       7.7329     -0.05247
    157       7.7722     -0.02942
    158       7.8142     -0.01254
    159       7.8357     -0.00748
    160       7.8607     -0.00384
    161       7.8905     -0.00160
    162       7.9482     -0.00023
    163       7.9751     -0.00008
    164       8.0090     -0.00002
    165       8.0657     -0.00000
    166       8.1155     -0.00000
    167       8.1713     -0.00000
    168       8.2429     -0.00000
    169       8.3089     -0.00000
    170       8.4020     -0.00000
    171       8.4645     -0.00000
    172       8.5030     -0.00000
    173       8.6628     -0.00000
    174       8.8064     -0.00000
    175       8.8684     -0.00000
    176       9.3656     -0.00000
    177       9.4187     -0.00000
    178       9.4423     -0.00000
    179       9.5239     -0.00000
    180       9.5933     -0.00000


--------------------------------------------------------------------------------------------------------


 soft charge-density along one line, spin component           1
         0         1         2         3         4         5         6         7         8         9
 total charge-density along one line
 
 pseudopotential strength for first ion, spin component:           1
 -6.393   0.001  -0.000  -0.001   0.000  -7.593   0.001  -0.000
  0.001  -6.401  -0.001   0.002   0.001   0.001  -7.603  -0.001
 -0.000  -0.001  -6.403   0.001  -0.001  -0.000  -0.001  -7.605
 -0.001   0.002   0.001  -6.394   0.000  -0.002   0.002   0.001
  0.000   0.001  -0.001   0.000  -6.401   0.000   0.002  -0.002
 -7.593   0.001  -0.000  -0.002   0.000  -8.997   0.001  -0.001
  0.001  -7.603  -0.001   0.002   0.002   0.001  -9.009  -0.001
 -0.000  -0.001  -7.605   0.001  -0.002  -0.001  -0.001  -9.012
 -0.002   0.002   0.001  -7.594   0.000  -0.002   0.003   0.001
  0.000   0.002  -0.002   0.000  -7.604   0.000   0.002  -0.002
 -0.000   0.001   0.001  -0.001  -0.002  -0.000   0.002   0.001
 -0.000   0.002   0.002  -0.001  -0.003  -0.000   0.003   0.002
  0.002   0.001   0.001  -0.005   0.002   0.002   0.001   0.001
 -0.005  -0.003   0.005   0.000   0.001  -0.005  -0.003   0.006
 -0.002  -0.005   0.000   0.002  -0.002  -0.002  -0.005   0.000
 -0.002  -0.001  -0.002   0.007  -0.004  -0.003  -0.002  -0.002
  0.007   0.004  -0.008   0.000  -0.001   0.008   0.005  -0.010
  0.003   0.007  -0.000  -0.004   0.003   0.003   0.008  -0.000
 total augmentation occupancy for first ion, spin component:           1
  4.812   0.033   0.001  -0.090   0.009  -2.415  -0.010   0.015   0.046  -0.002   0.072  -0.022  -0.070   0.059  -0.036  -0.002
  0.033   4.499  -0.061   0.167   0.124  -0.010  -2.295   0.033  -0.103  -0.075  -0.097   0.022   0.107  -0.028   0.056   0.002
  0.001  -0.061   4.557   0.051   0.030   0.015   0.033  -2.449  -0.026  -0.007   0.031   0.007  -0.012  -0.025   0.022  -0.001
 -0.090   0.167   0.051   4.796   0.035   0.046  -0.104  -0.026  -2.429  -0.023   0.052  -0.010   0.070   0.023   0.051   0.005
  0.009   0.124   0.030   0.035   4.448  -0.002  -0.075  -0.007  -0.023  -2.398   0.041  -0.024  -0.029  -0.021   0.024  -0.001
 -2.415  -0.010   0.015   0.046  -0.002   1.236   0.000  -0.016  -0.023  -0.000  -0.053   0.012   0.033  -0.030   0.018   0.001
 -0.010  -2.295   0.033  -0.104  -0.075   0.000   1.191  -0.018   0.061   0.045   0.058  -0.012  -0.054   0.015  -0.029  -0.001
  0.015   0.033  -2.449  -0.026  -0.007  -0.016  -0.018   1.329   0.014  -0.001  -0.017  -0.003   0.004   0.003  -0.011   0.000
  0.046  -0.103  -0.026  -2.429  -0.023  -0.023   0.061   0.014   1.253   0.015  -0.032   0.005  -0.035  -0.010  -0.033  -0.002
 -0.002  -0.075  -0.007  -0.023  -2.398  -0.000   0.045  -0.001   0.015   1.304  -0.025   0.013   0.008   0.008  -0.010   0.001
  0.072  -0.097   0.031   0.052   0.041  -0.053   0.058  -0.017  -0.032  -0.025   2.191  -0.226  -0.003  -0.000   0.000   0.001
 -0.022   0.022   0.007  -0.010  -0.024   0.012  -0.012  -0.003   0.005   0.013  -0.226   0.025   0.001  -0.002   0.000  -0.000
 -0.070   0.107  -0.012   0.070  -0.029   0.033  -0.054   0.004  -0.035   0.008  -0.003   0.001   0.272  -0.002   0.012   0.007
  0.059  -0.028  -0.025   0.023  -0.021  -0.030   0.015   0.003  -0.010   0.008  -0.000  -0.002  -0.002   0.277  -0.003   0.000
 -0.036   0.056   0.022   0.051   0.024   0.018  -0.029  -0.011  -0.033  -0.010   0.000   0.000   0.012  -0.003   0.284   0.000
 -0.002   0.002  -0.001   0.005  -0.001   0.001  -0.001   0.000  -0.002   0.001   0.001  -0.000   0.007   0.000   0.000   0.000
  0.005   0.001  -0.002  -0.000  -0.001  -0.002  -0.001   0.001   0.000   0.000  -0.000  -0.000   0.000   0.007  -0.000   0.000
  0.001   0.004   0.000   0.001   0.001  -0.001  -0.002  -0.000  -0.001  -0.000  -0.000   0.000   0.000  -0.000   0.007   0.000


------------------------ aborting loop because EDIFF is reached ----------------------------------------


    CHARGE:  cpu time    0.0290: real time    0.0292
    FORLOC:  cpu time    0.0131: real time    0.0137
    FORNL :  cpu time    0.2964: real time    0.3160
    STRESS:  cpu time    0.9323: real time    0.9483
    FORCOR:  cpu time    0.0431: real time    0.0433
    FORHAR:  cpu time    0.0186: real time    0.0187
    MIXING:  cpu time    0.0013: real time    0.0013
    OFIELD:  cpu time    0.0000: real time    0.0000

  FORCE on cell =-STRESS in cart. coord.  units (eV):
  Direction    XX          YY          ZZ          XY          YZ          ZX
  --------------------------------------------------------------------------------------
  Alpha Z  1494.58555  1494.58555  1494.58555
  Ewald   -5312.88967 -7802.73125 -6039.96394    57.70463  -607.29489   419.05329
  Hartree  3417.38073  1101.57974  2745.65927    40.60609  -550.26662   348.35216
  E(xc)   -1287.20121 -1287.23758 -1287.21958     0.18548     0.53506    -0.26285
  Local   -3225.12453  1575.90191 -1832.56877   -99.11944  1156.08555  -768.11192
  n-local  -282.61776  -286.85541  -287.64667    -1.57011    -1.00214    -2.46729
  augment   206.30605   206.98067   207.43008     0.28851     0.31801     0.36197
  Kinetic  4989.52267  4997.76273  4999.73714     1.89515     1.63063     3.08027
  Fock        0.00000     0.00000     0.00000     0.00000     0.00000     0.00000
  -------------------------------------------------------------------------------------
  Total      -0.03818    -0.01364     0.01308    -0.00968     0.00563     0.00563
  in kB      -0.08327    -0.02974     0.02854    -0.02112     0.01227     0.01227
  external pressure =       -0.03 kB  Pullay stress =        0.00 kB


 VOLUME and BASIS-vectors are now :
 -----------------------------------------------------------------------------
  energy-cutoff  :      300.00
  volume of cell :      734.55
      direct lattice vectors                 reciprocal lattice vectors
     6.967266125 -0.004397441 -0.035210158     0.143532070  0.000084847  0.000731435
    -0.006132775 10.323885946  0.005873412     0.000060801  0.096862825 -0.000066170
    -0.052046205  0.007009088 10.212392686     0.000494833 -0.000055416  0.097922805

  length of vectors
     6.967356482 10.323889438 10.212527714     0.143533958  0.096862867  0.097924071


 FORCES acting on ions
    electron-ion (+dipol)            ewald-force                    non-local-force                 convergence-correction
 -----------------------------------------------------------------------------------------------
   0.341E+02 0.124E+03 0.658E+02   -.342E+02 -.124E+03 -.657E+02   0.648E-01 -.135E+00 -.243E-01   0.157E-03 0.294E-02 -.429E-02
   0.249E+02 0.661E+02 -.285E+02   -.255E+02 -.661E+02 0.281E+02   0.604E+00 -.457E-01 0.421E+00   -.758E-03 0.760E-02 0.121E-02
   -.128E+02 -.118E+03 0.392E+02   0.132E+02 0.117E+03 -.387E+02   -.432E+00 0.773E+00 -.560E+00   -.118E-02 -.226E-03 -.674E-02
   -.447E+02 -.169E+03 -.713E+02   0.449E+02 0.170E+03 0.706E+02   -.132E+00 -.157E+00 0.658E+00   -.690E-03 -.140E-01 0.934E-02
   -.233E+02 0.656E+02 0.904E+02   0.242E+02 -.648E+02 -.909E+02   -.840E+00 -.826E+00 0.600E+00   0.381E-02 -.472E-02 -.977E-02
   0.101E+02 -.573E+02 -.140E+03   -.939E+01 0.574E+02 0.140E+03   -.738E+00 -.639E-01 -.228E+00   0.549E-03 -.116E-01 0.688E-02
   -.811E+01 -.563E+02 -.934E+02   0.738E+01 0.563E+02 0.934E+02   0.728E+00 -.340E-01 -.909E-02   0.345E-03 -.111E-01 0.616E-02
   0.117E+02 0.786E+02 -.338E+02   -.116E+02 -.788E+02 0.339E+02   -.981E-01 0.202E+00 -.152E+00   -.336E-02 0.616E-02 -.933E-02
   -.328E+02 -.135E+03 -.294E+02   0.321E+02 0.135E+03 0.288E+02   0.656E+00 0.249E+00 0.570E+00   0.586E-03 -.108E-02 -.327E-02
   0.284E+02 -.906E+02 0.315E+02   -.281E+02 0.907E+02 -.313E+02   -.324E+00 -.738E-01 -.227E+00   0.637E-03 -.577E-02 -.711E-02
   -.339E+02 0.396E+02 -.534E+01   0.342E+02 -.403E+02 0.501E+01   -.264E+00 0.647E+00 0.326E+00   -.145E-03 -.107E-03 0.701E-02
   0.400E+02 -.139E+03 -.594E+02   -.403E+02 0.139E+03 0.591E+02   0.344E+00 0.387E-02 0.354E+00   0.496E-03 -.102E-01 0.665E-02
   -.185E+02 -.810E+02 0.236E+02   0.180E+02 0.808E+02 -.233E+02   0.450E+00 0.225E+00 -.253E+00   -.120E-02 -.638E-02 -.786E-02
   0.129E+02 0.490E+02 0.433E+02   -.136E+02 -.480E+02 -.437E+02   0.692E+00 -.970E+00 0.455E+00   -.231E-02 -.344E-02 -.719E-02
   -.430E+02 0.196E+02 0.426E+02   0.428E+02 -.194E+02 -.421E+02   0.173E+00 -.148E+00 -.491E+00   0.221E-02 -.691E-02 0.565E-03
   0.198E+02 0.122E+03 -.606E+02   -.194E+02 -.122E+03 0.605E+02   -.396E+00 -.535E+00 0.100E+00   -.257E-03 0.105E-01 0.610E-02
   -.185E+02 0.118E+03 -.296E+02   0.182E+02 -.117E+03 0.293E+02   0.340E+00 -.812E+00 0.373E+00   0.274E-03 0.951E-02 0.535E-02
   0.409E+02 0.541E+02 -.335E+01   -.413E+02 -.547E+02 0.300E+01   0.369E+00 0.595E+00 0.335E+00   -.241E-03 0.789E-03 0.833E-02
   -.366E+02 0.119E+03 0.609E+02   0.365E+02 -.119E+03 -.610E+02   0.159E+00 0.522E-01 0.319E-01   0.267E-02 0.842E-02 0.130E-02
   -.817E+02 0.155E+03 -.436E+02   0.825E+02 -.155E+03 0.430E+02   -.864E+00 -.129E+00 0.561E+00   0.136E-02 0.169E-01 -.593E-04
   -.920E+02 -.559E+02 -.212E+02   0.909E+02 0.564E+02 0.218E+02   0.116E+01 -.572E+00 -.496E+00   -.287E-02 0.157E-01 -.259E-01
   0.162E+03 0.195E+03 -.410E+02   -.162E+03 -.194E+03 0.413E+02   0.671E-02 -.102E+01 -.230E+00   0.235E-02 0.302E-01 0.230E-01
   -.152E+03 0.258E+03 0.251E+02   0.152E+03 -.257E+03 -.252E+02   -.114E-01 -.612E+00 0.117E+00   0.702E-02 0.291E-01 0.228E-01
   0.301E+02 -.491E+03 -.115E+03   -.292E+02 0.491E+03 0.114E+03   -.920E+00 0.660E+00 0.730E+00   -.488E-02 -.475E-02 -.106E-01
   -.710E+02 0.140E+03 -.159E+03   0.707E+02 -.141E+03 0.159E+03   0.277E+00 0.820E+00 -.314E+00   0.398E-02 0.685E-02 -.169E-01
   -.487E+02 0.316E+03 0.143E+03   0.486E+02 -.317E+03 -.142E+03   0.130E+00 0.412E+00 -.879E+00   0.156E-02 0.520E-02 -.159E-01
   0.126E+02 -.202E+03 -.918E+02   -.131E+02 0.201E+03 0.926E+02   0.451E+00 0.734E+00 -.901E+00   -.453E-02 -.286E-02 0.329E-01
   0.220E+02 -.287E+03 0.163E+03   -.225E+02 0.286E+03 -.163E+03   0.537E+00 0.103E+01 0.121E+00   0.307E-02 -.783E-03 -.214E-01
   -.644E+02 -.286E+03 0.866E+02   0.641E+02 0.287E+03 -.864E+02   0.295E+00 -.495E+00 -.217E+00   0.390E-02 -.221E-01 0.835E-03
   0.675E+02 0.400E+03 0.183E+03   -.670E+02 -.400E+03 -.183E+03   -.460E+00 0.650E-01 -.618E-01   -.898E-02 0.288E-01 0.543E-02
   -.381E+02 0.172E+03 0.156E+02   0.380E+02 -.172E+03 -.156E+02   0.818E-02 -.909E-01 0.867E-02   0.769E-02 0.163E-01 -.245E-01
   0.673E+02 0.120E+03 -.219E+03   -.672E+02 -.119E+03 0.219E+03   -.144E+00 -.119E+00 0.530E-02   -.364E-02 0.536E-02 -.954E-02
   0.113E+03 -.200E+02 0.425E+02   -.112E+03 0.201E+02 -.422E+02   -.111E+01 -.120E+00 -.233E+00   0.590E-03 0.124E-01 -.216E-01
   0.770E+02 0.567E+02 0.986E+02   -.765E+02 -.563E+02 -.983E+02   -.449E+00 -.373E+00 -.313E+00   -.683E-02 -.263E-01 0.577E-02
   -.177E+02 -.205E+03 0.169E+02   0.181E+02 0.204E+03 -.168E+02   -.408E+00 0.759E+00 -.168E+00   0.304E-03 -.121E-02 0.290E-01
   0.634E+02 -.274E+03 0.737E+02   -.631E+02 0.274E+03 -.735E+02   -.296E+00 -.116E-01 -.249E+00   -.506E-02 -.243E-01 0.543E-02
 -----------------------------------------------------------------------------------------------
   0.452E+00 0.621E-01 0.256E+00   0.227E-12 0.568E-13 0.426E-13   -.449E+00 -.114E+00 -.237E+00   -.336E-02 0.549E-01 -.179E-01
 
 
 POSITION                                       TOTAL-FORCE (eV/Angst)
 -----------------------------------------------------------------------------------
      5.22434      8.69042      1.57876        -0.001927     -0.000164      0.000696
      1.65017      1.62829      5.07302         0.000575      0.000909      0.001884
      0.02026      3.26082      3.55143         0.004148      0.002557     -0.001286
      1.79182      5.23237      8.34273        -0.000178      0.002241      0.003758
      3.57455      7.00384      3.25805         0.001935     -0.000849     -0.000279
      3.65767      6.82772      6.73613         0.001308     -0.005554     -0.003184
      6.79078      6.84518      6.77915         0.000795      0.001338     -0.000711
      6.91441     10.26528      3.41718         0.001277     -0.001367      0.002999
      3.30570      3.43499     -0.00970        -0.002366      0.000455     -0.001440
      5.32740      5.08920      1.67268         0.000297     -0.001076      0.002145
      1.81739      8.45971      8.24175         0.000109     -0.001185      0.001169
      5.16851      5.12258      8.54294         0.000823      0.002556      0.000027
      1.55307      5.12403      1.90633        -0.001316      0.001087      0.001004
      6.77754      7.08724      3.38553        -0.000639      0.000474     -0.002391
      3.34850      6.87958      0.17574        -0.001844      0.000553      0.001091
      3.57375      0.19579      6.80463        -0.000505      0.000729     -0.004267
      6.83855      0.07833      6.76216         0.000206     -0.003645     -0.003799
      5.11123      8.53241      8.56478        -0.003526     -0.004740     -0.005661
      3.29507      0.07015     10.18412         0.000468     -0.000086      0.001636
      5.25546      1.74898      4.98892         0.002884      0.001537     -0.001493
      1.50780      1.75098      1.75260        -0.000104      0.000161      0.000600
      5.20621      1.91258      8.60049        -0.001606      0.000797     -0.000997
      1.68356      1.83565      8.45592        -0.003298      0.001390     -0.002784
      0.11357      3.43869     10.09534         0.001663      0.004498      0.001881
      5.13745      8.56282      5.11666         0.001946     -0.001916      0.001739
      1.70330      8.62780      1.88506        -0.002889      0.000577      0.000454
      3.41897      3.32481      6.88305         0.001720      0.001278      0.001230
      3.37117      3.26669      3.32334         0.001185      0.001040      0.004161
      5.13570      5.11471      5.03083         0.005064     -0.002317     -0.000115
      0.08484     10.32485     10.16959        -0.000012     -0.001123     -0.000445
      3.45192      0.00281      3.32851         0.001049     -0.001983      0.003309
      1.77140      8.59949      5.12634        -0.002308     -0.000100     -0.000415
      5.36038      1.70009      1.60621         0.000144      0.000176      0.000842
      0.17370      6.95033      0.01272        -0.000547     -0.000534     -0.000099
     -0.00273      3.39000      6.81216        -0.001049     -0.000437     -0.000688
      1.77269      5.17625      5.15162        -0.003481      0.002721     -0.000568
 -----------------------------------------------------------------------------------
    total drift:                                0.000048      0.002732      0.001247


--------------------------------------------------------------------------------------------------------



  FREE ENERGIE OF THE ION-ELECTRON SYSTEM (eV)
  ---------------------------------------------------
  free  energy   TOTEN  =      -358.95348712 eV

  energy  without entropy=     -358.97424519  energy(sigma->0) =     -358.96040647
 
 d Force = 0.9410311E-04[ 0.583E-04, 0.130E-03]  d Energy = 0.1189953E-03-0.249E-04
 d Force = 0.2142925E+00[ 0.213E+00, 0.215E+00]  d Ewald  =-0.1985386E-01 0.234E+00


--------------------------------------------------------------------------------------------------------


    POTLOK:  cpu time    0.0400: real time    0.0402


--------------------------------------------------------------------------------------------------------


 Conjugate gradient step on ions:
 trial-energy change:   -0.000119  1 .order   -0.000117   -0.000168   -0.000067
  (g-gl).g = 0.237E-04      g.g   = 0.299E-04  gl.gl    = 0.699E-04
 g(Force)  = 0.216E-04   g(Stress)= 0.828E-05 ortho     = 0.550E-05
 gamma     =   0.33918
 trial     =   5.28907
 opt step  =   8.77208  (harmonic =   8.77208) maximal distance =0.00240564
 next E    =  -358.953508   (d E  =  -0.00014)


--------------------------------------------------------------------------------------------------------


  
 reached required accuracy - stopping structural energy minimisation
     LOOP+:  cpu time    5.6050: real time    6.8621
    4ORBIT:  cpu time    0.0000: real time    0.0000

 total amount of memory used by VASP on root node    67903. kBytes
========================================================================

   base      :      30000. kBytes
   nonlr-proj:      10333. kBytes
   fftplans  :       2814. kBytes
   grid      :       5360. kBytes
   one-center:        124. kBytes
   wavefun   :      19272. kBytes
 
  
  
 General timing and accounting informations for this job:
 ========================================================
  
                  Total CPU time used (sec):      127.433
                            User time (sec):      126.517
                          System time (sec):        0.916
                         Elapsed time (sec):      150.977
  
                   Maximum memory used (kb):      258324.
                   Average memory used (kb):           0.
  
                          Minor page faults:       108787
                          Major page faults:           34
                 Voluntary context switches:         5831
