<?xml version="1.0" encoding="ISO-8859-1"?>
<modeling>
 <generator>
  <i name="program" type="string">vasp </i>
  <i name="version" type="string">5.4.1  </i>
  <i name="subversion" type="string">05Feb16 (build Jan 29 2020 16:04:39) complex                          parallel </i>
  <i name="platform" type="string">IFC91_ompi </i>
  <i name="date" type="string">2020 06 15 </i>
  <i name="time" type="string">13:22:46 </i>
 </generator>
 <incar>
  <i type="string" name="SYSTEM"> automatically generated by mexm</i>
  <i type="int" name="ISTART">     0</i>
  <i type="string" name="PREC">accurate               ! avoid wrap aro</i>
  <i type="string" name="ALGO"> Fast                   ! blocked Davids</i>
  <i type="int" name="ISPIN">     1</i>
  <i type="int" name="ICHARG">     2</i>
  <i type="int" name="NELM">    70</i>
  <i type="int" name="IBRION">     2</i>
  <i name="EDIFF">      0.00001000</i>
  <i name="EDIFFG">     -0.01000000</i>
  <i type="int" name="NSW">   300</i>
  <i type="int" name="ISIF">     3</i>
  <i type="int" name="ISYM">     1</i>
  <i name="ENCUT">    300.00000000</i>
  <i name="POTIM">      0.15000000</i>
  <i type="string" name="LREAL"> Auto                  ! unpublished met</i>
  <i type="int" name="ISMEAR">     1</i>
  <i name="SIGMA">      0.15000000</i>
  <i type="logical" name="LWAVE"> F  </i>
  <i type="logical" name="LCHARG"> F  </i>
  <i type="logical" name="LVTOT"> F  </i>
  <v type="int" name="KPOINT_BSE">    -1     0     0     0</v>
  <i type="int" name="NELM">    70</i>
 </incar>
 <kpoints>
  <generation param="Gamma">
   <v type="int" name="divisions">       3        3        3 </v>
   <v name="usershift">      0.00000000       0.00000000       0.00000000 </v>
   <v name="genvec1">      0.33333333      -0.00000000      -0.00000000 </v>
   <v name="genvec2">      0.00000000       0.33333333      -0.00000000 </v>
   <v name="genvec3">      0.00000000      -0.00000000       0.33333333 </v>
   <v name="shift">      0.00000000       0.00000000       0.00000000 </v>
  </generation>
  <varray name="kpointlist" >
   <v>       0.00000000       0.00000000       0.00000000 </v>
   <v>       0.33333333       0.00000000       0.00000000 </v>
   <v>       0.00000000       0.33333333       0.00000000 </v>
   <v>       0.33333333       0.33333333       0.00000000 </v>
   <v>      -0.33333333       0.33333333       0.00000000 </v>
   <v>      -0.00000000      -0.00000000       0.33333333 </v>
   <v>       0.33333333       0.00000000       0.33333333 </v>
   <v>      -0.33333333       0.00000000       0.33333333 </v>
   <v>      -0.00000000       0.33333333       0.33333333 </v>
   <v>       0.33333333       0.33333333       0.33333333 </v>
   <v>      -0.33333333       0.33333333       0.33333333 </v>
   <v>       0.00000000      -0.33333333       0.33333333 </v>
   <v>       0.33333333      -0.33333333       0.33333333 </v>
   <v>      -0.33333333      -0.33333333       0.33333333 </v>
  </varray>
  <varray name="weights" >
   <v>       0.03703704 </v>
   <v>       0.07407407 </v>
   <v>       0.07407407 </v>
   <v>       0.07407407 </v>
   <v>       0.07407407 </v>
   <v>       0.07407407 </v>
   <v>       0.07407407 </v>
   <v>       0.07407407 </v>
   <v>       0.07407407 </v>
   <v>       0.07407407 </v>
   <v>       0.07407407 </v>
   <v>       0.07407407 </v>
   <v>       0.07407407 </v>
   <v>       0.07407407 </v>
  </varray>
 </kpoints>
 <parameters>
  <separator name="general" >
   <i type="string" name="SYSTEM">automatically generated by mexm</i>
   <i type="logical" name="LCOMPAT"> F  </i>
  </separator>
  <separator name="electronic" >
   <i type="string" name="PREC">accura</i>
   <i name="ENMAX">    300.00000000</i>
   <i name="ENAUG">    461.25700000</i>
   <i name="EDIFF">      0.00001000</i>
   <i type="int" name="IALGO">    68</i>
   <i type="int" name="IWAVPR">    11</i>
   <i type="int" name="NBANDS">   180</i>
   <i name="NELECT">    296.00000000</i>
   <i type="int" name="TURBO">     0</i>
   <i type="int" name="IRESTART">     0</i>
   <i type="int" name="NREBOOT">     0</i>
   <i type="int" name="NMIN">     0</i>
   <i name="EREF">      0.00000000</i>
   <separator name="electronic smearing" >
    <i type="int" name="ISMEAR">     1</i>
    <i name="SIGMA">      0.15000000</i>
    <i name="KSPACING">      0.50000000</i>
    <i type="logical" name="KGAMMA"> T  </i>
   </separator>
   <separator name="electronic projectors" >
    <i type="logical" name="LREAL"> T  </i>
    <v name="ROPT">     -0.00025000     -0.00025000     -0.00025000     -0.00025000</v>
    <i type="int" name="LMAXPAW">  -100</i>
    <i type="int" name="LMAXMIX">     2</i>
    <i type="logical" name="NLSPLINE"> F  </i>
   </separator>
   <separator name="electronic startup" >
    <i type="int" name="ISTART">     0</i>
    <i type="int" name="ICHARG">     2</i>
    <i type="int" name="INIWAV">     1</i>
   </separator>
   <separator name="electronic spin" >
    <i type="int" name="ISPIN">     1</i>
    <i type="logical" name="LNONCOLLINEAR"> F  </i>
    <v name="MAGMOM">      1.00000000      1.00000000      1.00000000      1.00000000      1.00000000      1.00000000      1.00000000      1.00000000      1.00000000      1.00000000      1.00000000      1.00000000      1.00000000      1.00000000      1.00000000      1.00000000      1.00000000      1.00000000      1.00000000      1.00000000
      1.00000000      1.00000000      1.00000000      1.00000000      1.00000000      1.00000000      1.00000000      1.00000000      1.00000000      1.00000000      1.00000000      1.00000000      1.00000000      1.00000000      1.00000000      1.00000000</v>
    <i name="NUPDOWN">     -1.00000000</i>
    <i type="logical" name="LSORBIT"> F  </i>
    <v name="SAXIS">      0.00000000      0.00000000      1.00000000</v>
    <i type="logical" name="LSPIRAL"> F  </i>
    <v name="QSPIRAL">      0.00000000      0.00000000      0.00000000</v>
    <i type="logical" name="LZEROZ"> F  </i>
   </separator>
   <separator name="electronic exchange-correlation" >
    <i type="logical" name="LASPH"> F  </i>
    <i type="logical" name="LMETAGGA"> F  </i>
   </separator>
   <separator name="electronic convergence" >
    <i type="int" name="NELM">    70</i>
    <i type="int" name="NELMDL">    -5</i>
    <i type="int" name="NELMIN">     2</i>
    <i name="ENINI">    300.00000000</i>
    <separator name="electronic convergence detail" >
     <i type="logical" name="LDIAG"> T  </i>
     <i type="logical" name="LSUBROT"> F  </i>
     <i name="WEIMIN">      0.00100000</i>
     <i name="EBREAK">      0.00000001</i>
     <i name="DEPER">      0.30000000</i>
     <i type="int" name="NRMM">     4</i>
     <i name="TIME">      0.40000000</i>
    </separator>
   </separator>
   <separator name="electronic mixer" >
    <i name="AMIX">      0.40000000</i>
    <i name="BMIX">      1.00000000</i>
    <i name="AMIN">      0.10000000</i>
    <i name="AMIX_MAG">      1.60000000</i>
    <i name="BMIX_MAG">      1.00000000</i>
    <separator name="electronic mixer details" >
     <i type="int" name="IMIX">     4</i>
     <i type="logical" name="MIXFIRST"> F  </i>
     <i type="int" name="MAXMIX">   -45</i>
     <i name="WC">    100.00000000</i>
     <i type="int" name="INIMIX">     1</i>
     <i type="int" name="MIXPRE">     1</i>
     <i type="int" name="MREMOVE">     5</i>
    </separator>
   </separator>
   <separator name="electronic dipolcorrection" >
    <i type="logical" name="LDIPOL"> F  </i>
    <i type="logical" name="LMONO"> F  </i>
    <i type="int" name="IDIPOL">     0</i>
    <i name="EPSILON">      1.00000000</i>
    <v name="DIPOL">   -100.00000000   -100.00000000   -100.00000000</v>
    <i name="EFIELD">      0.00000000</i>
   </separator>
  </separator>
  <separator name="grids" >
   <i type="int" name="NGX">    40</i>
   <i type="int" name="NGY">    60</i>
   <i type="int" name="NGZ">    60</i>
   <i type="int" name="NGXF">    80</i>
   <i type="int" name="NGYF">   120</i>
   <i type="int" name="NGZF">   120</i>
   <i type="logical" name="ADDGRID"> F  </i>
  </separator>
  <separator name="ionic" >
   <i type="int" name="NSW">   300</i>
   <i type="int" name="IBRION">     2</i>
   <i type="int" name="ISIF">     3</i>
   <i name="PSTRESS">      0.00000000</i>
   <i name="EDIFFG">     -0.01000000</i>
   <i type="int" name="NFREE">     1</i>
   <i name="POTIM">      0.15000000</i>
   <i name="SMASS">     -3.00000000</i>
   <i name="SCALEE">      1.00000000</i>
  </separator>
  <separator name="ionic md" >
   <i name="TEBEG">      0.00010000</i>
   <i name="TEEND">      0.00010000</i>
   <i type="int" name="NBLOCK">     1</i>
   <i type="int" name="KBLOCK">   300</i>
   <i type="int" name="NPACO">   256</i>
   <i name="APACO">     16.00000000</i>
  </separator>
  <separator name="symmetry" >
   <i type="int" name="ISYM">     1</i>
   <i name="SYMPREC">      0.00001000</i>
  </separator>
  <separator name="dos" >
   <i type="logical" name="LORBIT"> F  </i>
   <v name="RWIGS">     -1.00000000     -1.00000000     -1.00000000     -1.00000000</v>
   <i type="int" name="NEDOS">   301</i>
   <i name="EMIN">     10.00000000</i>
   <i name="EMAX">    -10.00000000</i>
   <i name="EFERMI">      0.00000000</i>
  </separator>
  <separator name="writing" >
   <i type="int" name="NWRITE">     2</i>
   <i type="logical" name="LWAVE"> F  </i>
   <i type="logical" name="LCHARG"> F  </i>
   <i type="logical" name="LPARD"> F  </i>
   <i type="logical" name="LVTOT"> F  </i>
   <i type="logical" name="LVHAR"> F  </i>
   <i type="logical" name="LELF"> F  </i>
   <i type="logical" name="LOPTICS"> F  </i>
   <v name="STM">      0.00000000      0.00000000      0.00000000      0.00000000      0.00000000      0.00000000      0.00000000</v>
  </separator>
  <separator name="performance" >
   <i type="int" name="NPAR">     4</i>
   <i type="int" name="NSIM">     4</i>
   <i type="int" name="NBLK">    -1</i>
   <i type="logical" name="LPLANE"> T  </i>
   <i type="logical" name="LSCALAPACK"> T  </i>
   <i type="logical" name="LSCAAWARE"> F  </i>
   <i type="logical" name="LSCALU"> F  </i>
   <i type="logical" name="LASYNC"> F  </i>
   <i type="logical" name="LORBITALREAL"> F  </i>
  </separator>
  <separator name="miscellaneous" >
   <i type="int" name="IDIOT">     3</i>
   <i type="logical" name="LMUSIC"> F  </i>
   <v name="POMASS">    180.94800000    178.49000000     92.91000000     91.22400000</v>
   <v name="DARWINR">      0.00000000      0.00000000      0.00000000      0.00000000</v>
   <v name="DARWINV">      1.00000000      1.00000000      1.00000000      1.00000000</v>
   <i type="logical" name="LCORR"> T  </i>
  </separator>
  <i type="logical" name="GGA_COMPAT"> T  </i>
  <i type="logical" name="LBERRY"> F  </i>
  <i type="int" name="ICORELEVEL">     0</i>
  <i type="logical" name="LDAU"> F  </i>
  <i type="int" name="I_CONSTRAINED_M">     0</i>
  <separator name="electronic exchange-correlation" >
   <i type="string" name="GGA">--</i>
   <i type="int" name="VOSKOWN">     0</i>
   <i type="logical" name="LHFCALC"> F  </i>
   <i type="string" name="PRECFOCK"></i>
   <i type="logical" name="LSYMGRAD"> F  </i>
   <i type="logical" name="LHFONE"> F  </i>
   <i type="logical" name="LRHFCALC"> F  </i>
   <i type="logical" name="LTHOMAS"> F  </i>
   <i type="logical" name="LMODELHF"> F  </i>
   <i name="ENCUT4O">     -1.00000000</i>
   <i type="int" name="EXXOEP">     0</i>
   <i type="int" name="FOURORBIT">     0</i>
   <i name="AEXX">      0.00000000</i>
   <i name="HFALPHA">      0.00000000</i>
   <i name="MCALPHA">      0.00000000</i>
   <i name="ALDAX">      1.00000000</i>
   <i name="AGGAX">      1.00000000</i>
   <i name="ALDAC">      1.00000000</i>
   <i name="AGGAC">      1.00000000</i>
   <i type="int" name="NKREDX">     1</i>
   <i type="int" name="NKREDY">     1</i>
   <i type="int" name="NKREDZ">     1</i>
   <i type="logical" name="SHIFTRED"> F  </i>
   <i type="logical" name="ODDONLY"> F  </i>
   <i type="logical" name="EVENONLY"> F  </i>
   <i type="int" name="LMAXFOCK">     0</i>
   <i type="int" name="NMAXFOCKAE">     0</i>
   <i type="logical" name="LFOCKAEDFT"> F  </i>
   <i name="HFSCREEN">      0.00000000</i>
   <i name="HFSCREENC">      0.00000000</i>
   <i type="int" name="NBANDSGWLOW">     0</i>
  </separator>
  <separator name="vdW DFT" >
   <i type="logical" name="LUSE_VDW"> F  </i>
   <i name="Zab_VDW">     -0.84910000</i>
   <i name="PARAM1">      0.12340000</i>
   <i name="PARAM2">      1.00000000</i>
   <i name="PARAM3">      0.00000000</i>
  </separator>
  <separator name="model GW" >
   <i type="int" name="MODEL_GW">     0</i>
   <i name="MODEL_EPS0">     12.22224425</i>
   <i name="MODEL_ALPHA">      1.00000000</i>
  </separator>
  <separator name="linear response parameters" >
   <i type="logical" name="LEPSILON"> F  </i>
   <i type="logical" name="LRPA"> F  </i>
   <i type="logical" name="LNABLA"> F  </i>
   <i type="logical" name="LVEL"> F  </i>
   <i type="int" name="KINTER">     0</i>
   <i name="CSHIFT">      0.10000000</i>
   <i name="OMEGAMAX">     -1.00000000</i>
   <i name="DEG_THRESHOLD">      0.00200000</i>
  </separator>
  <separator name="orbital magnetization" >
   <i type="logical" name="NUCIND"> F  </i>
   <v name="MAGPOS">      0.00000000      0.00000000      0.00000000</v>
   <i type="logical" name="LNICSALL"> T  </i>
   <i type="logical" name="ORBITALMAG"> F  </i>
   <i type="logical" name="LMAGBLOCH"> F  </i>
   <i type="logical" name="LCHIMAG"> F  </i>
   <i type="logical" name="LGAUGE"> T  </i>
   <i type="int" name="MAGATOM">     0</i>
   <v name="MAGDIPOL">      0.00000000      0.00000000      0.00000000</v>
   <v name="AVECCONST">      0.00000000      0.00000000      0.00000000</v>
  </separator>
  <separator name="response functions" >
   <i type="logical" name="LADDER"> F  </i>
   <i type="logical" name="LFXC"> F  </i>
   <i type="logical" name="LHARTREE"> T  </i>
   <i type="int" name="IBSE">     0</i>
   <v type="int" name="KPOINT">    -1     0     0     0</v>
   <i type="logical" name="LTCTE"> F  </i>
   <i type="logical" name="LTETE"> F  </i>
   <i type="logical" name="LTRIPLET"> F  </i>
   <i type="logical" name="LFXCEPS"> F  </i>
   <i type="logical" name="LFXHEG"> F  </i>
   <i type="int" name="NATURALO">     0</i>
   <i type="logical" name="L2ORDER"> F  </i>
   <i type="logical" name="LUSEW"> F  </i>
   <i name="ENCUTGW">     -2.00000000</i>
   <i name="ENCUTGWSOFT">     -2.00000000</i>
   <i name="ENCUTLF">     -1.00000000</i>
   <i type="int" name="LMAXMP2">    -1</i>
   <i name="SCISSOR">      0.00000000</i>
   <i type="int" name="NOMEGA">     0</i>
   <i type="int" name="NOMEGAR">     0</i>
   <i type="int" name="NBANDSGW">    -1</i>
   <i type="int" name="NBANDSO">    -1</i>
   <i type="int" name="NBANDSV">    -1</i>
   <i type="int" name="NELM">    70</i>
   <i type="int" name="NELMHF">     1</i>
   <i type="int" name="DIM">     3</i>
   <i type="int" name="ANTIRES">     0</i>
   <i name="OMEGAMAX">    -30.00000000</i>
   <i name="OMEGAMIN">    -30.00000000</i>
   <i name="OMEGATL">   -200.00000000</i>
   <i type="int" name="OMEGAGRID">     0</i>
   <i name="CSHIFT">     -0.10000000</i>
   <i type="logical" name="SELFENERGY"> F  </i>
   <i type="logical" name="LSPECTRAL"> F  </i>
   <i type="logical" name="LSPECTRALGW"> F  </i>
   <i type="logical" name="LSINGLES"> F  </i>
   <i type="logical" name="LFERMIGW"> F  </i>
   <i type="logical" name="ODDONLYGW"> F  </i>
   <i type="logical" name="EVENONLYGW"> F  </i>
   <i type="int" name="NKREDLFX">     1</i>
   <i type="int" name="NKREDLFY">     1</i>
   <i type="int" name="NKREDLFZ">     1</i>
   <i type="int" name="MAXMEM">  1800</i>
   <i type="int" name="TELESCOPE">     0</i>
   <i type="int" name="TAUPAR">     1</i>
   <i type="int" name="OMEGAPAR">    -1</i>
   <i name="LAMBDA">      1.00000000</i>
  </separator>
  <separator name="External order field" >
   <i name="OFIELD_KAPPA">      0.00000000</i>
   <v name="OFIELD_K">      0.00000000      0.00000000      0.00000000</v>
   <i name="OFIELD_Q6_NEAR">      0.00000000</i>
   <i name="OFIELD_Q6_FAR">      0.00000000</i>
   <i name="OFIELD_A">      0.00000000</i>
  </separator>
 </parameters>
 <atominfo>
  <atoms>      36 </atoms>
  <types>       4 </types>
  <array name="atoms" >
   <dimension dim="1">ion</dimension>
   <field type="string">element</field>
   <field type="int">atomtype</field>
   <set>
    <rc><c>Ta</c><c>   1</c></rc>
    <rc><c>Ta</c><c>   1</c></rc>
    <rc><c>Ta</c><c>   1</c></rc>
    <rc><c>Ta</c><c>   1</c></rc>
    <rc><c>Ta</c><c>   1</c></rc>
    <rc><c>Ta</c><c>   1</c></rc>
    <rc><c>Ta</c><c>   1</c></rc>
    <rc><c>Ta</c><c>   1</c></rc>
    <rc><c>Hf</c><c>   2</c></rc>
    <rc><c>Hf</c><c>   2</c></rc>
    <rc><c>Hf</c><c>   2</c></rc>
    <rc><c>Hf</c><c>   2</c></rc>
    <rc><c>Hf</c><c>   2</c></rc>
    <rc><c>Hf</c><c>   2</c></rc>
    <rc><c>Hf</c><c>   2</c></rc>
    <rc><c>Hf</c><c>   2</c></rc>
    <rc><c>Hf</c><c>   2</c></rc>
    <rc><c>Hf</c><c>   2</c></rc>
    <rc><c>Hf</c><c>   2</c></rc>
    <rc><c>Nb</c><c>   3</c></rc>
    <rc><c>Nb</c><c>   3</c></rc>
    <rc><c>Nb</c><c>   3</c></rc>
    <rc><c>Nb</c><c>   3</c></rc>
    <rc><c>Nb</c><c>   3</c></rc>
    <rc><c>Nb</c><c>   3</c></rc>
    <rc><c>Nb</c><c>   3</c></rc>
    <rc><c>Nb</c><c>   3</c></rc>
    <rc><c>Zr</c><c>   4</c></rc>
    <rc><c>Zr</c><c>   4</c></rc>
    <rc><c>Zr</c><c>   4</c></rc>
    <rc><c>Zr</c><c>   4</c></rc>
    <rc><c>Zr</c><c>   4</c></rc>
    <rc><c>Zr</c><c>   4</c></rc>
    <rc><c>Zr</c><c>   4</c></rc>
    <rc><c>Zr</c><c>   4</c></rc>
    <rc><c>Zr</c><c>   4</c></rc>
   </set>
  </array>
  <array name="atomtypes" >
   <dimension dim="1">type</dimension>
   <field type="int">atomspertype</field>
   <field type="string">element</field>
   <field>mass</field>
   <field>valence</field>
   <field type="string">pseudopotential</field>
   <set>
    <rc><c>   8</c><c>Ta</c><c>    180.94800000</c><c>      5.00000000</c><c>  PAW_PBE Ta 17Jan2003                  </c></rc>
    <rc><c>  11</c><c>Hf</c><c>    178.49000000</c><c>      4.00000000</c><c>  PAW_PBE Hf 20Jan2003                  </c></rc>
    <rc><c>   8</c><c>Nb</c><c>     92.91000000</c><c>     13.00000000</c><c>  PAW_PBE Nb_sv 25May2007               </c></rc>
    <rc><c>   9</c><c>Zr</c><c>     91.22400000</c><c>     12.00000000</c><c>  PAW_PBE Zr_sv 04Jan2005               </c></rc>
   </set>
  </array>
 </atominfo>
 <structure name="initialpos" >
  <crystal>
   <varray name="basis" >
    <v>       6.96695309      -0.00285830      -0.03569136 </v>
    <v>      -0.00385098      10.31483241       0.00719813 </v>
    <v>      -0.05278630       0.00830554      10.20490502 </v>
   </varray>
   <i name="volume">    733.33465514 </i>
   <varray name="rec_basis" >
    <v>       0.14353859       0.00005307       0.00074243 </v>
    <v>       0.00003937       0.09694784      -0.00007870 </v>
    <v>       0.00050199      -0.00006820       0.09799474 </v>
   </varray>
  </crystal>
  <varray name="positions" >
   <v>       0.75209500       0.84129400       0.15672200 </v>
   <v>       0.24069400       0.15957500       0.49733400 </v>
   <v>       0.00496300       0.31628500       0.34789800 </v>
   <v>       0.26396100       0.50676900       0.81490400 </v>
   <v>       0.51472300       0.67750200       0.32086700 </v>
   <v>       0.53119200       0.66157800       0.66095300 </v>
   <v>       0.98096200       0.66184400       0.66588500 </v>
   <v>       0.99640100       0.99453800       0.33795500 </v>
   <v>       0.47400600       0.33361400       0.00024800 </v>
   <v>       0.76662400       0.49332600       0.16526100 </v>
   <v>       0.26794400       0.81957700       0.80772300 </v>
   <v>       0.74901000       0.49591000       0.83925400 </v>
   <v>       0.22417500       0.49635900       0.18889400 </v>
   <v>       0.97597800       0.68598100       0.33551100 </v>
   <v>       0.48094000       0.66592200       0.01852300 </v>
   <v>       0.51758600       0.01886000       0.66791500 </v>
   <v>       0.98726000       0.00788000       0.66542200 </v>
   <v>       0.74126200       0.82605600       0.84103000 </v>
   <v>       0.48084000       0.00642900       0.99914400 </v>
   <v>       0.75827400       0.16873500       0.49082300 </v>
   <v>       0.21782900       0.16947000       0.17234300 </v>
   <v>       0.75361400       0.18540100       0.84476300 </v>
   <v>       0.24770700       0.17696900       0.82885800 </v>
   <v>       0.02446800       0.33243500       0.98868700 </v>
   <v>       0.74211600       0.82974200       0.50311100 </v>
   <v>       0.24631000       0.83583500       0.18490700 </v>
   <v>       0.49516800       0.32204900       0.67488700 </v>
   <v>       0.48698600       0.31694100       0.32650600 </v>
   <v>       0.73929900       0.49523100       0.49477400 </v>
   <v>       0.02011700       0.99924300       0.99533700 </v>
   <v>       0.49735800       0.99999800       0.32792200 </v>
   <v>       0.25893200       0.83115600       0.50291300 </v>
   <v>       0.77068400       0.16473100       0.16000300 </v>
   <v>       0.02651900       0.67291500       0.00098800 </v>
   <v>       0.00429000       0.32836000       0.66656600 </v>
   <v>       0.25971500       0.50150700       0.50517100 </v>
  </varray>
 </structure>
 <calculation>
  <scstep>
   <time name="dav">    1.12    1.14</time>
   <time name="total">    1.20    1.59</time>
   <energy>
    <i name="alphaZ">   1497.06327566 </i>
    <i name="ewald"> -19170.05684693 </i>
    <i name="hartreedc">  -7492.33634139 </i>
    <i name="XCdc">   -213.13160857 </i>
    <i name="pawpsdc">  21780.24394083 </i>
    <i name="pawaedc"> -20220.05923427 </i>
    <i name="eentropy">     -0.00720810 </i>
    <i name="bandstr">   -187.85169390 </i>
    <i name="atom">  25878.51093839 </i>
    <i name="e_fr_energy">   1872.37522171 </i>
    <i name="e_wo_entrp">   1872.38242980 </i>
    <i name="e_0_energy">   1872.37762441 </i>
   </energy>
  </scstep>
  <scstep>
   <time name="dav">    1.01    1.01</time>
   <time name="total">    1.01    1.34</time>
   <energy>
    <i name="e_fr_energy">    -84.75684317 </i>
    <i name="e_wo_entrp">    -84.75808046 </i>
    <i name="e_0_energy">    -84.75725560 </i>
   </energy>
  </scstep>
  <scstep>
   <time name="dav">    1.43    1.57</time>
   <time name="total">    1.43    1.63</time>
   <energy>
    <i name="e_fr_energy">   -339.66426676 </i>
    <i name="e_wo_entrp">   -339.66955934 </i>
    <i name="e_0_energy">   -339.66603095 </i>
   </energy>
  </scstep>
  <scstep>
   <time name="dav">    1.47    1.48</time>
   <time name="total">    1.47    1.51</time>
   <energy>
    <i name="e_fr_energy">   -370.28757839 </i>
    <i name="e_wo_entrp">   -370.30180486 </i>
    <i name="e_0_energy">   -370.29232055 </i>
   </energy>
  </scstep>
  <scstep>
   <time name="dav">    1.41    1.55</time>
   <time name="total">    1.45    1.62</time>
   <energy>
    <i name="e_fr_energy">   -373.44395460 </i>
    <i name="e_wo_entrp">   -373.45636779 </i>
    <i name="e_0_energy">   -373.44809233 </i>
   </energy>
  </scstep>
  <scstep>
   <time name="diag">    0.08    0.08</time>
   <time name="diis">    0.71    0.71</time>
   <time name="orth">    0.01    0.01</time>
   <time name="total">    0.86    0.94</time>
   <energy>
    <i name="e_fr_energy">   -363.16048338 </i>
    <i name="e_wo_entrp">   -363.17478368 </i>
    <i name="e_0_energy">   -363.16525015 </i>
   </energy>
  </scstep>
  <scstep>
   <time name="diag">    0.08    0.08</time>
   <time name="diis">    0.77    0.77</time>
   <time name="orth">    0.01    0.01</time>
   <time name="total">    0.93    1.03</time>
   <energy>
    <i name="e_fr_energy">   -363.13886328 </i>
    <i name="e_wo_entrp">   -363.14734690 </i>
    <i name="e_0_energy">   -363.14169116 </i>
   </energy>
  </scstep>
  <scstep>
   <time name="diag">    0.08    0.08</time>
   <time name="diis">    0.84    0.84</time>
   <time name="orth">    0.01    0.01</time>
   <time name="total">    1.00    1.06</time>
   <energy>
    <i name="e_fr_energy">   -359.24584784 </i>
    <i name="e_wo_entrp">   -359.26533148 </i>
    <i name="e_0_energy">   -359.25234238 </i>
   </energy>
  </scstep>
  <scstep>
   <time name="diag">    0.13    0.13</time>
   <time name="diis">    0.67    0.89</time>
   <time name="orth">    0.01    0.01</time>
   <time name="total">    0.90    1.19</time>
   <energy>
    <i name="e_fr_energy">   -359.03235918 </i>
    <i name="e_wo_entrp">   -359.05181100 </i>
    <i name="e_0_energy">   -359.03884312 </i>
   </energy>
  </scstep>
  <scstep>
   <time name="diag">    0.12    0.12</time>
   <time name="diis">    0.87    0.88</time>
   <time name="orth">    0.01    0.01</time>
   <time name="total">    1.22    1.27</time>
   <energy>
    <i name="e_fr_energy">   -358.98731789 </i>
    <i name="e_wo_entrp">   -359.00788228 </i>
    <i name="e_0_energy">   -358.99417269 </i>
   </energy>
  </scstep>
  <scstep>
   <time name="diag">    0.58    0.62</time>
   <time name="diis">    0.78    0.84</time>
   <time name="orth">    0.01    0.01</time>
   <time name="total">    1.45    1.60</time>
   <energy>
    <i name="e_fr_energy">   -358.95439265 </i>
    <i name="e_wo_entrp">   -358.97417485 </i>
    <i name="e_0_energy">   -358.96098672 </i>
   </energy>
  </scstep>
  <scstep>
   <time name="diag">    0.09    0.09</time>
   <time name="diis">    0.89    0.89</time>
   <time name="orth">    0.01    0.01</time>
   <time name="total">    1.97    2.02</time>
   <energy>
    <i name="e_fr_energy">   -358.94739540 </i>
    <i name="e_wo_entrp">   -358.96731831 </i>
    <i name="e_0_energy">   -358.95403637 </i>
   </energy>
  </scstep>
  <scstep>
   <time name="diag">    0.10    0.10</time>
   <time name="diis">    0.79    0.79</time>
   <time name="orth">    0.01    0.01</time>
   <time name="total">    1.06    1.13</time>
   <energy>
    <i name="e_fr_energy">   -358.94551872 </i>
    <i name="e_wo_entrp">   -358.96532897 </i>
    <i name="e_0_energy">   -358.95212213 </i>
   </energy>
  </scstep>
  <scstep>
   <time name="diag">    0.08    0.08</time>
   <time name="diis">    0.79    0.80</time>
   <time name="orth">    0.01    0.01</time>
   <time name="total">    0.96    1.03</time>
   <energy>
    <i name="e_fr_energy">   -358.94566684 </i>
    <i name="e_wo_entrp">   -358.96556482 </i>
    <i name="e_0_energy">   -358.95229950 </i>
   </energy>
  </scstep>
  <scstep>
   <time name="diag">    0.08    0.08</time>
   <time name="diis">    0.79    0.80</time>
   <time name="orth">    0.01    0.01</time>
   <time name="total">    0.95    1.02</time>
   <energy>
    <i name="e_fr_energy">   -358.94570182 </i>
    <i name="e_wo_entrp">   -358.96566744 </i>
    <i name="e_0_energy">   -358.95235703 </i>
   </energy>
  </scstep>
  <scstep>
   <time name="diag">    0.08    0.08</time>
   <time name="diis">    0.73    0.74</time>
   <time name="orth">    0.01    0.01</time>
   <time name="total">    0.89    0.94</time>
   <energy>
    <i name="e_fr_energy">   -358.94568820 </i>
    <i name="e_wo_entrp">   -358.96560321 </i>
    <i name="e_0_energy">   -358.95232653 </i>
   </energy>
  </scstep>
  <scstep>
   <time name="diag">    0.13    0.13</time>
   <time name="diis">    0.67    0.67</time>
   <time name="orth">    0.01    0.01</time>
   <time name="total">    0.95    1.00</time>
   <energy>
    <i name="e_fr_energy">   -358.94569432 </i>
    <i name="e_wo_entrp">   -358.96557420 </i>
    <i name="e_0_energy">   -358.95232094 </i>
   </energy>
  </scstep>
  <scstep>
   <time name="diag">    0.08    0.08</time>
   <time name="diis">    0.59    0.59</time>
   <time name="orth">    0.01    0.01</time>
   <time name="total">    0.75    0.79</time>
   <energy>
    <i name="e_fr_energy">   -358.94570796 </i>
    <i name="e_wo_entrp">   -358.96562402 </i>
    <i name="e_0_energy">   -358.95234664 </i>
   </energy>
  </scstep>
  <scstep>
   <time name="diag">    0.08    0.08</time>
   <time name="diis">    0.49    0.49</time>
   <time name="orth">    0.01    0.01</time>
   <time name="total">    0.61    0.68</time>
   <energy>
    <i name="alphaZ">   1497.06327566 </i>
    <i name="ewald"> -19170.05684693 </i>
    <i name="hartreedc">  -7258.12947018 </i>
    <i name="XCdc">   -213.70334463 </i>
    <i name="pawpsdc">  34334.14359562 </i>
    <i name="pawaedc"> -32753.56295673 </i>
    <i name="eentropy">      0.01990912 </i>
    <i name="bandstr">  -2673.23081327 </i>
    <i name="atom">  25878.51093839 </i>
    <i name="e_fr_energy">   -358.94571296 </i>
    <i name="e_wo_entrp">   -358.96562208 </i>
    <i name="e_0_energy">   -358.95234933 </i>
   </energy>
  </scstep>
  <structure>
   <crystal>
    <varray name="basis" >
     <v>       6.96695309      -0.00285830      -0.03569136 </v>
     <v>      -0.00385098      10.31483241       0.00719813 </v>
     <v>      -0.05278630       0.00830554      10.20490502 </v>
    </varray>
    <i name="volume">    733.33465514 </i>
    <varray name="rec_basis" >
     <v>       0.14353859       0.00005307       0.00074243 </v>
     <v>       0.00003937       0.09694784      -0.00007870 </v>
     <v>       0.00050199      -0.00006820       0.09799474 </v>
    </varray>
   </crystal>
   <varray name="positions" >
    <v>       0.75209500       0.84129400       0.15672200 </v>
    <v>       0.24069400       0.15957500       0.49733400 </v>
    <v>       0.00496300       0.31628500       0.34789800 </v>
    <v>       0.26396100       0.50676900       0.81490400 </v>
    <v>       0.51472300       0.67750200       0.32086700 </v>
    <v>       0.53119200       0.66157800       0.66095300 </v>
    <v>       0.98096200       0.66184400       0.66588500 </v>
    <v>       0.99640100       0.99453800       0.33795500 </v>
    <v>       0.47400600       0.33361400       0.00024800 </v>
    <v>       0.76662400       0.49332600       0.16526100 </v>
    <v>       0.26794400       0.81957700       0.80772300 </v>
    <v>       0.74901000       0.49591000       0.83925400 </v>
    <v>       0.22417500       0.49635900       0.18889400 </v>
    <v>       0.97597800       0.68598100       0.33551100 </v>
    <v>       0.48094000       0.66592200       0.01852300 </v>
    <v>       0.51758600       0.01886000       0.66791500 </v>
    <v>       0.98726000       0.00788000       0.66542200 </v>
    <v>       0.74126200       0.82605600       0.84103000 </v>
    <v>       0.48084000       0.00642900       0.99914400 </v>
    <v>       0.75827400       0.16873500       0.49082300 </v>
    <v>       0.21782900       0.16947000       0.17234300 </v>
    <v>       0.75361400       0.18540100       0.84476300 </v>
    <v>       0.24770700       0.17696900       0.82885800 </v>
    <v>       0.02446800       0.33243500       0.98868700 </v>
    <v>       0.74211600       0.82974200       0.50311100 </v>
    <v>       0.24631000       0.83583500       0.18490700 </v>
    <v>       0.49516800       0.32204900       0.67488700 </v>
    <v>       0.48698600       0.31694100       0.32650600 </v>
    <v>       0.73929900       0.49523100       0.49477400 </v>
    <v>       0.02011700       0.99924300       0.99533700 </v>
    <v>       0.49735800       0.99999800       0.32792200 </v>
    <v>       0.25893200       0.83115600       0.50291300 </v>
    <v>       0.77068400       0.16473100       0.16000300 </v>
    <v>       0.02651900       0.67291500       0.00098800 </v>
    <v>       0.00429000       0.32836000       0.66656600 </v>
    <v>       0.25971500       0.50150700       0.50517100 </v>
   </varray>
  </structure>
  <varray name="forces" >
   <v>      -0.00985329      -0.00335604       0.01577801 </v>
   <v>       0.00533944      -0.06606145       0.00312324 </v>
   <v>      -0.02095935      -0.03602741      -0.03617830 </v>
   <v>       0.00641710       0.00788009       0.13049147 </v>
   <v>       0.05694813       0.06129597      -0.04672192 </v>
   <v>      -0.00528818       0.01771627       0.02836029 </v>
   <v>      -0.02335108       0.05291570       0.03992040 </v>
   <v>      -0.01353154      -0.00932280      -0.01675330 </v>
   <v>      -0.00106104      -0.00069144       0.00208679 </v>
   <v>      -0.00367159       0.00190636       0.01416481 </v>
   <v>      -0.00493253      -0.01763500      -0.00822364 </v>
   <v>      -0.00769422      -0.00203812      -0.01167318 </v>
   <v>       0.00429330      -0.00655855      -0.07298641 </v>
   <v>      -0.02290307       0.02978692      -0.02749950 </v>
   <v>       0.00592695       0.00313621      -0.00725781 </v>
   <v>       0.00919107      -0.01469300       0.00662609 </v>
   <v>      -0.00759811      -0.00739534       0.00662619 </v>
   <v>      -0.00281037      -0.00377114      -0.00619027 </v>
   <v>       0.00607877      -0.00541422       0.00144676 </v>
   <v>       0.00016582       0.02454847       0.00107804 </v>
   <v>       0.00001996       0.01043605       0.00379997 </v>
   <v>       0.00167266      -0.00369804      -0.01165617 </v>
   <v>      -0.00476121       0.01717517      -0.00360552 </v>
   <v>      -0.00270010      -0.00419370      -0.00649333 </v>
   <v>       0.00093461      -0.00746719      -0.00706256 </v>
   <v>       0.00061310      -0.00528279       0.01021623 </v>
   <v>       0.04475051      -0.03553636       0.02884120 </v>
   <v>       0.00536313      -0.02308756       0.00363916 </v>
   <v>       0.04192791       0.00123326      -0.00762721 </v>
   <v>       0.00388779       0.00221730       0.00232070 </v>
   <v>       0.00584930      -0.00476042      -0.00865527 </v>
   <v>       0.00093321       0.08198605      -0.00929998 </v>
   <v>      -0.00117172       0.01043825       0.00700625 </v>
   <v>      -0.01195228       0.00222459      -0.00071634 </v>
   <v>      -0.00938352      -0.01767641       0.00898530 </v>
   <v>      -0.04668956      -0.05022970      -0.02591019 </v>
  </varray>
  <varray name="stress" >
   <v>       1.84638762      -0.03919133      -0.07331889 </v>
   <v>      -0.03919134       1.94873131      -0.04693999 </v>
   <v>      -0.07331893      -0.04693998       2.04126369 </v>
  </varray>
  <energy>
   <i name="e_fr_energy">   -358.94571296 </i>
   <i name="e_wo_entrp">   -358.95234933 </i>
   <i name="e_0_energy">      0.01990912 </i>
  </energy>
  <time name="totalsc">   22.73   25.22</time>
 </calculation>
 <calculation>
  <scstep>
   <time name="dav">    1.16    1.17</time>
   <time name="total">    1.25    1.43</time>
   <energy>
    <i name="alphaZ">   1495.45665124 </i>
    <i name="ewald"> -19163.03962892 </i>
    <i name="hartreedc">  -7255.68414800 </i>
    <i name="XCdc">   -214.02296438 </i>
    <i name="pawpsdc">  34334.30220873 </i>
    <i name="pawaedc"> -32753.71783783 </i>
    <i name="eentropy">      0.02002034 </i>
    <i name="bandstr">  -2680.77502828 </i>
    <i name="atom">  25878.51093839 </i>
    <i name="e_fr_energy">   -358.94978872 </i>
    <i name="e_wo_entrp">   -358.96980906 </i>
    <i name="e_0_energy">   -358.95646217 </i>
   </energy>
  </scstep>
  <scstep>
   <time name="diag">    0.15    0.15</time>
   <time name="diis">    0.72    0.85</time>
   <time name="orth">    0.01    0.01</time>
   <time name="total">    0.95    1.13</time>
   <energy>
    <i name="e_fr_energy">   -358.94868232 </i>
    <i name="e_wo_entrp">   -358.96866637 </i>
    <i name="e_0_energy">   -358.95534367 </i>
   </energy>
  </scstep>
  <scstep>
   <time name="diag">    0.08    0.08</time>
   <time name="diis">    0.79    0.80</time>
   <time name="orth">    0.01    0.01</time>
   <time name="total">    0.95    1.00</time>
   <energy>
    <i name="e_fr_energy">   -358.94782460 </i>
    <i name="e_wo_entrp">   -358.96790846 </i>
    <i name="e_0_energy">   -358.95451922 </i>
   </energy>
  </scstep>
  <scstep>
   <time name="diag">    0.09    0.09</time>
   <time name="diis">    0.79    0.79</time>
   <time name="orth">    0.01    0.01</time>
   <time name="total">    0.96    1.01</time>
   <energy>
    <i name="e_fr_energy">   -358.94741914 </i>
    <i name="e_wo_entrp">   -358.96749745 </i>
    <i name="e_0_energy">   -358.95411191 </i>
   </energy>
  </scstep>
  <scstep>
   <time name="diag">    0.08    0.08</time>
   <time name="diis">    0.76    0.77</time>
   <time name="orth">    0.01    0.01</time>
   <time name="total">    0.92    0.96</time>
   <energy>
    <i name="e_fr_energy">   -358.94732699 </i>
    <i name="e_wo_entrp">   -358.96736232 </i>
    <i name="e_0_energy">   -358.95400544 </i>
   </energy>
  </scstep>
  <scstep>
   <time name="diag">    0.08    0.08</time>
   <time name="diis">    0.72    0.72</time>
   <time name="orth">    0.01    0.01</time>
   <time name="total">    0.87    0.92</time>
   <energy>
    <i name="e_fr_energy">   -358.94732425 </i>
    <i name="e_wo_entrp">   -358.96739633 </i>
    <i name="e_0_energy">   -358.95401494 </i>
   </energy>
  </scstep>
  <scstep>
   <time name="diag">    0.08    0.08</time>
   <time name="diis">    0.43    0.43</time>
   <time name="orth">    0.01    0.01</time>
   <time name="total">    0.55    0.63</time>
   <energy>
    <i name="alphaZ">   1495.45665124 </i>
    <i name="ewald"> -19163.03962892 </i>
    <i name="hartreedc">  -7260.32504431 </i>
    <i name="XCdc">   -213.82134397 </i>
    <i name="pawpsdc">  34284.39368510 </i>
    <i name="pawaedc"> -32703.68456072 </i>
    <i name="eentropy">      0.02004796 </i>
    <i name="bandstr">  -2676.45806220 </i>
    <i name="atom">  25878.51093839 </i>
    <i name="e_fr_energy">   -358.94731743 </i>
    <i name="e_wo_entrp">   -358.96736539 </i>
    <i name="e_0_energy">   -358.95400009 </i>
   </energy>
  </scstep>
  <structure>
   <crystal>
    <varray name="basis" >
     <v>       6.96932064      -0.00290926      -0.03579873 </v>
     <v>      -0.00392677      10.31853113       0.00711179 </v>
     <v>      -0.05294197       0.00822075      10.20873875 </v>
    </varray>
    <i name="volume">    734.12250369 </i>
    <varray name="rec_basis" >
     <v>       0.14348985       0.00005409       0.00074409 </v>
     <v>       0.00004006       0.09691309      -0.00007783 </v>
     <v>       0.00050314      -0.00006732       0.09795796 </v>
    </varray>
   </crystal>
   <varray name="positions" >
    <v>       0.75207470       0.84128927       0.15674431 </v>
    <v>       0.24070507       0.15948231       0.49733853 </v>
    <v>       0.00491904       0.31623448       0.34784657 </v>
    <v>       0.26397574       0.50677991       0.81508911 </v>
    <v>       0.51484085       0.67758809       0.32080109 </v>
    <v>       0.53118133       0.66160282       0.66099317 </v>
    <v>       0.98091396       0.66191819       0.66594140 </v>
    <v>       0.99637270       0.99452493       0.33793115 </v>
    <v>       0.47400382       0.33361303       0.00025095 </v>
    <v>       0.76661653       0.49332866       0.16528106 </v>
    <v>       0.26793365       0.81955226       0.80771132 </v>
    <v>       0.74899389       0.49590715       0.83923739 </v>
    <v>       0.22418313       0.49634988       0.18879052 </v>
    <v>       0.97593015       0.68602281       0.33547180 </v>
    <v>       0.48095224       0.66592641       0.01851275 </v>
    <v>       0.51760515       0.01883938       0.66792448 </v>
    <v>       0.98724428       0.00786961       0.66543135 </v>
    <v>       0.74125609       0.82605071       0.84102120 </v>
    <v>       0.48085264       0.00642141       0.99914610 </v>
    <v>       0.75827437       0.16876944       0.49082451 </v>
    <v>       0.21782909       0.16948464       0.17234838 </v>
    <v>       0.75361735       0.18539583       0.84474648 </v>
    <v>       0.24769708       0.17699310       0.82885283 </v>
    <v>       0.02446232       0.33242912       0.98867778 </v>
    <v>       0.74211786       0.82973153       0.50310100 </v>
    <v>       0.24631138       0.83582758       0.18492150 </v>
    <v>       0.49526125       0.32199913       0.67492826 </v>
    <v>       0.48699716       0.31690860       0.32651122 </v>
    <v>       0.73938602       0.49523276       0.49476349 </v>
    <v>       0.02012510       0.99924611       0.99534032 </v>
    <v>       0.49737005       0.99999133       0.32790977 </v>
    <v>       0.25893390       0.83127105       0.50289974 </v>
    <v>       0.77068165       0.16474564       0.16001292 </v>
    <v>       0.02649416       0.67291812       0.00098690 </v>
    <v>       0.00427059       0.32833518       0.66657869 </v>
    <v>       0.25961769       0.50143653       0.50513396 </v>
   </varray>
  </structure>
  <varray name="forces" >
   <v>      -0.00967398      -0.00099334       0.01361098 </v>
   <v>       0.00123735      -0.06226186       0.00191699 </v>
   <v>      -0.01440147      -0.03578296      -0.03115881 </v>
   <v>       0.00637157       0.00540156       0.11601162 </v>
   <v>       0.05220466       0.05728005      -0.04409221 </v>
   <v>      -0.00191344       0.01331853       0.02422368 </v>
   <v>      -0.02395957       0.04712974       0.03717972 </v>
   <v>      -0.01149725      -0.00782528      -0.01666003 </v>
   <v>      -0.00121694      -0.00311494       0.00157511 </v>
   <v>      -0.00301536       0.00152605       0.01382190 </v>
   <v>      -0.00411330      -0.01878980      -0.00703180 </v>
   <v>      -0.00883767      -0.00215919      -0.01192059 </v>
   <v>       0.00316106      -0.00630053      -0.06673228 </v>
   <v>      -0.02049746       0.03016148      -0.02789359 </v>
   <v>       0.00462255       0.00542926      -0.00502318 </v>
   <v>       0.01012887      -0.01068252       0.00620087 </v>
   <v>      -0.00874249      -0.00490540       0.00514723 </v>
   <v>      -0.00460666      -0.00414134      -0.00554490 </v>
   <v>       0.00379973      -0.00445637       0.00232778 </v>
   <v>       0.00159790       0.02333226       0.00102524 </v>
   <v>      -0.00265848       0.00987105       0.00294690 </v>
   <v>       0.00136732      -0.00181191      -0.00969735 </v>
   <v>      -0.00218900       0.01861358      -0.00328084 </v>
   <v>      -0.00178726      -0.00534268      -0.00705143 </v>
   <v>      -0.00127582      -0.00990980      -0.00487642 </v>
   <v>       0.00200357      -0.00669571       0.01059166 </v>
   <v>       0.03843216      -0.03290723       0.02880439 </v>
   <v>       0.00251788      -0.02379095       0.00261541 </v>
   <v>       0.03763380       0.00405994      -0.00429932 </v>
   <v>       0.00441239       0.00297846       0.00393119 </v>
   <v>       0.00555796      -0.00318573      -0.00895275 </v>
   <v>       0.00060167       0.07467814      -0.01131363 </v>
   <v>       0.00103940       0.00896686       0.00547497 </v>
   <v>      -0.00980657       0.00393068      -0.00023627 </v>
   <v>      -0.00541644      -0.01716606       0.00831060 </v>
   <v>      -0.04108066      -0.04445405      -0.01995089 </v>
  </varray>
  <varray name="stress" >
   <v>       0.63161248      -0.04041619      -0.06239149 </v>
   <v>      -0.04041624       0.73614604      -0.04115382 </v>
   <v>      -0.06239154      -0.04115383       0.81820617 </v>
  </varray>
  <energy>
   <i name="e_fr_energy">   -358.94731743 </i>
   <i name="e_wo_entrp">   -358.95400009 </i>
   <i name="e_0_energy">      0.02004796 </i>
  </energy>
  <time name="totalsc">    8.16    8.96</time>
 </calculation>
 <calculation>
  <scstep>
   <time name="dav">    1.14    1.14</time>
   <time name="total">    1.22    1.40</time>
   <energy>
    <i name="alphaZ">   1492.45210994 </i>
    <i name="ewald"> -19149.89207944 </i>
    <i name="hartreedc">  -7255.70669820 </i>
    <i name="XCdc">   -214.42095294 </i>
    <i name="pawpsdc">  34285.74860351 </i>
    <i name="pawaedc"> -32705.07707482 </i>
    <i name="eentropy">      0.02023047 </i>
    <i name="bandstr">  -2690.59191835 </i>
    <i name="atom">  25878.51093839 </i>
    <i name="e_fr_energy">   -358.95684143 </i>
    <i name="e_wo_entrp">   -358.97707190 </i>
    <i name="e_0_energy">   -358.96358492 </i>
   </energy>
  </scstep>
  <scstep>
   <time name="diag">    0.08    0.08</time>
   <time name="diis">    0.78    0.78</time>
   <time name="orth">    0.01    0.01</time>
   <time name="total">    0.94    0.97</time>
   <energy>
    <i name="e_fr_energy">   -358.95282446 </i>
    <i name="e_wo_entrp">   -358.97299327 </i>
    <i name="e_0_energy">   -358.95954740 </i>
   </energy>
  </scstep>
  <scstep>
   <time name="diag">    0.08    0.08</time>
   <time name="diis">    0.79    0.80</time>
   <time name="orth">    0.01    0.01</time>
   <time name="total">    0.95    1.02</time>
   <energy>
    <i name="e_fr_energy">   -358.94977990 </i>
    <i name="e_wo_entrp">   -358.97014194 </i>
    <i name="e_0_energy">   -358.95656724 </i>
   </energy>
  </scstep>
  <scstep>
   <time name="diag">    0.08    0.08</time>
   <time name="diis">    0.79    0.80</time>
   <time name="orth">    0.01    0.01</time>
   <time name="total">    0.95    1.00</time>
   <energy>
    <i name="e_fr_energy">   -358.94841766 </i>
    <i name="e_wo_entrp">   -358.96876485 </i>
    <i name="e_0_energy">   -358.95520006 </i>
   </energy>
  </scstep>
  <scstep>
   <time name="diag">    0.10    0.13</time>
   <time name="diis">    0.71    0.80</time>
   <time name="orth">    0.01    0.01</time>
   <time name="total">    0.89    1.07</time>
   <energy>
    <i name="e_fr_energy">   -358.94812314 </i>
    <i name="e_wo_entrp">   -358.96839517 </i>
    <i name="e_0_energy">   -358.95488048 </i>
   </energy>
  </scstep>
  <scstep>
   <time name="diag">    0.08    0.08</time>
   <time name="diis">    0.74    0.74</time>
   <time name="orth">    0.01    0.01</time>
   <time name="total">    0.89    0.96</time>
   <energy>
    <i name="e_fr_energy">   -358.94814551 </i>
    <i name="e_wo_entrp">   -358.96848471 </i>
    <i name="e_0_energy">   -358.95492525 </i>
   </energy>
  </scstep>
  <scstep>
   <time name="diag">    0.08    0.08</time>
   <time name="diis">    0.73    0.73</time>
   <time name="orth">    0.01    0.01</time>
   <time name="total">    0.91    0.98</time>
   <energy>
    <i name="e_fr_energy">   -358.94814701 </i>
    <i name="e_wo_entrp">   -358.96844021 </i>
    <i name="e_0_energy">   -358.95491141 </i>
   </energy>
  </scstep>
  <scstep>
   <time name="diag">    0.08    0.08</time>
   <time name="diis">    0.54    0.54</time>
   <time name="orth">    0.01    0.01</time>
   <time name="total">    0.69    0.76</time>
   <energy>
    <i name="e_fr_energy">   -358.94814883 </i>
    <i name="e_wo_entrp">   -358.96844373 </i>
    <i name="e_0_energy">   -358.95491380 </i>
   </energy>
  </scstep>
  <scstep>
   <time name="diag">    0.08    0.08</time>
   <time name="diis">    0.43    0.44</time>
   <time name="orth">    0.01    0.01</time>
   <time name="total">    0.56    0.61</time>
   <energy>
    <i name="alphaZ">   1492.45210994 </i>
    <i name="ewald"> -19149.89207944 </i>
    <i name="hartreedc">  -7264.03925018 </i>
    <i name="XCdc">   -214.05676040 </i>
    <i name="pawpsdc">  34194.99347605 </i>
    <i name="pawaedc"> -32614.43495912 </i>
    <i name="eentropy">      0.02030758 </i>
    <i name="bandstr">  -2682.50193373 </i>
    <i name="atom">  25878.51093839 </i>
    <i name="e_fr_energy">   -358.94815091 </i>
    <i name="e_wo_entrp">   -358.96845850 </i>
    <i name="e_0_energy">   -358.95492011 </i>
   </energy>
  </scstep>
  <structure>
   <crystal>
    <varray name="basis" >
     <v>       6.97375731      -0.00300476      -0.03599995 </v>
     <v>      -0.00406880      10.32546234       0.00695000 </v>
     <v>      -0.05323369       0.00806187      10.21592298 </v>
    </varray>
    <i name="volume">    735.60040799 </i>
    <varray name="rec_basis" >
     <v>       0.14339860       0.00005600       0.00074719 </v>
     <v>       0.00004134       0.09684803      -0.00007621 </v>
     <v>       0.00050530      -0.00006569       0.09788909 </v>
    </varray>
   </crystal>
   <varray name="positions" >
    <v>       0.75203667       0.84128040       0.15678610 </v>
    <v>       0.24072582       0.15930867       0.49734702 </v>
    <v>       0.00483669       0.31613984       0.34775024 </v>
    <v>       0.26400336       0.50680036       0.81543587 </v>
    <v>       0.51506162       0.67774936       0.32067763 </v>
    <v>       0.53116135       0.66164932       0.66106841 </v>
    <v>       0.98082397       0.66205716       0.66604704 </v>
    <v>       0.99631969       0.99450045       0.33788647 </v>
    <v>       0.47399973       0.33361120       0.00025648 </v>
    <v>       0.76660253       0.49333363       0.16531864 </v>
    <v>       0.26791426       0.81950592       0.80768944 </v>
    <v>       0.74896371       0.49590181       0.83920628 </v>
    <v>       0.22419836       0.49633280       0.18859669 </v>
    <v>       0.97584051       0.68610114       0.33539838 </v>
    <v>       0.48097516       0.66593468       0.01849354 </v>
    <v>       0.51764103       0.01880076       0.66794223 </v>
    <v>       0.98721484       0.00785015       0.66544886 </v>
    <v>       0.74124502       0.82604081       0.84100473 </v>
    <v>       0.48087632       0.00640718       0.99915004 </v>
    <v>       0.75827508       0.16883396       0.49082733 </v>
    <v>       0.21782926       0.16951206       0.17235846 </v>
    <v>       0.75362362       0.18538613       0.84471555 </v>
    <v>       0.24767851       0.17703825       0.82884316 </v>
    <v>       0.02445167       0.33241811       0.98866049 </v>
    <v>       0.74212134       0.82971192       0.50308226 </v>
    <v>       0.24631396       0.83581367       0.18494866 </v>
    <v>       0.49543593       0.32190572       0.67500556 </v>
    <v>       0.48701807       0.31684792       0.32652101 </v>
    <v>       0.73954904       0.49523607       0.49474379 </v>
    <v>       0.02014028       0.99925194       0.99534653 </v>
    <v>       0.49739264       0.99997885       0.32788687 </v>
    <v>       0.25893747       0.83148656       0.50287489 </v>
    <v>       0.77067725       0.16477306       0.16003150 </v>
    <v>       0.02644764       0.67292395       0.00098482 </v>
    <v>       0.00423423       0.32828869       0.66660247 </v>
    <v>       0.25943539       0.50130451       0.50506458 </v>
   </varray>
  </structure>
  <varray name="forces" >
   <v>      -0.00854085       0.00264878       0.00868677 </v>
   <v>      -0.00597072      -0.05483488      -0.00037591 </v>
   <v>      -0.00262378      -0.03714673      -0.01919777 </v>
   <v>       0.00575994       0.00159639       0.08921474 </v>
   <v>       0.04496201       0.05127842      -0.03665721 </v>
   <v>       0.00258465       0.00720694       0.01502483 </v>
   <v>      -0.02414985       0.03813768       0.03144831 </v>
   <v>      -0.00763240      -0.00464986      -0.01350139 </v>
   <v>      -0.00209325      -0.00852249      -0.00081650 </v>
   <v>      -0.00130359       0.00077714       0.01444141 </v>
   <v>      -0.00338668      -0.02195314      -0.00643582 </v>
   <v>      -0.01038722      -0.00174794      -0.01415704 </v>
   <v>       0.00090028      -0.00607545      -0.05402878 </v>
   <v>      -0.01679075       0.03155662      -0.02586083 </v>
   <v>       0.00156885       0.01035851      -0.00172949 </v>
   <v>       0.01040880      -0.00376034       0.00401740 </v>
   <v>      -0.00877194       0.00024535       0.00196367 </v>
   <v>      -0.00733042      -0.00522757      -0.00555203 </v>
   <v>      -0.00026458      -0.00205983       0.00129312 </v>
   <v>       0.00493615       0.01951422      -0.00021283 </v>
   <v>      -0.00935608       0.00931637       0.00236750 </v>
   <v>       0.00102464       0.00054553      -0.00616211 </v>
   <v>       0.00222295       0.01848774      -0.00284731 </v>
   <v>       0.00152964      -0.00815756      -0.00841207 </v>
   <v>      -0.00377303      -0.01481158      -0.00072869 </v>
   <v>       0.00293289      -0.00952604       0.01121323 </v>
   <v>       0.02434836      -0.02743266       0.02871636 </v>
   <v>      -0.00316820      -0.02551603       0.00151785 </v>
   <v>       0.03052325       0.01060424       0.00186242 </v>
   <v>       0.00609083       0.00477220       0.00540137 </v>
   <v>       0.00524929       0.00022804      -0.00869066 </v>
   <v>      -0.00072108       0.06126749      -0.01413977 </v>
   <v>       0.00594491       0.00560935       0.00365096 </v>
   <v>      -0.00636717       0.00797669       0.00044606 </v>
   <v>       0.00315079      -0.01673903       0.00781872 </v>
   <v>      -0.03150666      -0.03396659      -0.00957853 </v>
  </varray>
  <varray name="stress" >
   <v>      -1.99175954      -0.04038192      -0.02060073 </v>
   <v>      -0.04038195      -1.83711842      -0.03583431 </v>
   <v>      -0.02060067      -0.03583436      -1.79466197 </v>
  </varray>
  <energy>
   <i name="e_fr_energy">   -358.94815091 </i>
   <i name="e_wo_entrp">   -358.95492011 </i>
   <i name="e_0_energy">      0.02030758 </i>
  </energy>
  <time name="totalsc">    9.60   10.61</time>
 </calculation>
 <calculation>
  <scstep>
   <time name="dav">    0.99    1.00</time>
   <time name="total">    1.07    1.26</time>
   <energy>
    <i name="alphaZ">   1492.67419606 </i>
    <i name="ewald"> -19150.32190438 </i>
    <i name="hartreedc">  -7264.80516540 </i>
    <i name="XCdc">   -214.01654335 </i>
    <i name="pawpsdc">  34194.90806727 </i>
    <i name="pawaedc"> -32614.47179331 </i>
    <i name="eentropy">      0.02030743 </i>
    <i name="bandstr">  -2681.44741583 </i>
    <i name="atom">  25878.51093839 </i>
    <i name="e_fr_energy">   -358.94931313 </i>
    <i name="e_wo_entrp">   -358.96962055 </i>
    <i name="e_0_energy">   -358.95608227 </i>
   </energy>
  </scstep>
  <scstep>
   <time name="diag">    0.10    0.12</time>
   <time name="diis">    0.71    0.77</time>
   <time name="orth">    0.01    0.01</time>
   <time name="total">    0.89    1.01</time>
   <energy>
    <i name="e_fr_energy">   -358.94957231 </i>
    <i name="e_wo_entrp">   -358.96995930 </i>
    <i name="e_0_energy">   -358.95636797 </i>
   </energy>
  </scstep>
  <scstep>
   <time name="diag">    0.08    0.08</time>
   <time name="diis">    0.73    0.74</time>
   <time name="orth">    0.01    0.01</time>
   <time name="total">    0.89    0.95</time>
   <energy>
    <i name="e_fr_energy">   -358.94945991 </i>
    <i name="e_wo_entrp">   -358.96975811 </i>
    <i name="e_0_energy">   -358.95622597 </i>
   </energy>
  </scstep>
  <scstep>
   <time name="diag">    0.08    0.09</time>
   <time name="diis">    0.55    0.65</time>
   <time name="orth">    0.01    0.01</time>
   <time name="total">    0.72    0.89</time>
   <energy>
    <i name="e_fr_energy">   -358.94944869 </i>
    <i name="e_wo_entrp">   -358.96974912 </i>
    <i name="e_0_energy">   -358.95621550 </i>
   </energy>
  </scstep>
  <scstep>
   <time name="diag">    0.08    0.08</time>
   <time name="diis">    0.48    0.49</time>
   <time name="orth">    0.01    0.01</time>
   <time name="total">    0.61    0.65</time>
   <energy>
    <i name="alphaZ">   1492.67419606 </i>
    <i name="ewald"> -19150.32190438 </i>
    <i name="hartreedc">  -7264.08107905 </i>
    <i name="XCdc">   -214.04640527 </i>
    <i name="pawpsdc">  34199.90029971 </i>
    <i name="pawaedc"> -32619.56335821 </i>
    <i name="eentropy">      0.02031490 </i>
    <i name="bandstr">  -2682.04244638 </i>
    <i name="atom">  25878.51093839 </i>
    <i name="e_fr_energy">   -358.94944423 </i>
    <i name="e_wo_entrp">   -358.96975913 </i>
    <i name="e_0_energy">   -358.95621586 </i>
   </energy>
  </scstep>
  <structure>
   <crystal>
    <varray name="basis" >
     <v>       6.97314260      -0.00310260      -0.03610934 </v>
     <v>      -0.00421438      10.32503035       0.00680031 </v>
     <v>      -0.05339041       0.00791425      10.21573244 </v>
    </varray>
    <i name="volume">    735.49096237 </i>
    <varray name="rec_basis" >
     <v>       0.14341127       0.00005804       0.00074946 </v>
     <v>       0.00004271       0.09685208      -0.00007481 </v>
     <v>       0.00050688      -0.00006427       0.09789093 </v>
    </varray>
   </crystal>
   <varray name="positions" >
    <v>       0.75200044       0.84128014       0.15681843 </v>
    <v>       0.24072245       0.15914708       0.49735044 </v>
    <v>       0.00479232       0.31604112       0.34767680 </v>
    <v>       0.26402979       0.50681214       0.81573018 </v>
    <v>       0.51526207       0.67790002       0.32056588 </v>
    <v>       0.53115783       0.66168159       0.66112584 </v>
    <v>       0.98072983       0.66217799       0.66614281 </v>
    <v>       0.99627819       0.99448220       0.33784552 </v>
    <v>       0.47399325       0.33359783       0.00025784 </v>
    <v>       0.76659332       0.49333708       0.16535761 </v>
    <v>       0.26789776       0.81945205       0.80766966 </v>
    <v>       0.74892686       0.49589676       0.83917066 </v>
    <v>       0.22420680       0.49631597       0.18842603 </v>
    <v>       0.97576189       0.68618407       0.33532555 </v>
    <v>       0.48098926       0.66595376       0.01848201 </v>
    <v>       0.51768046       0.01877722       0.66795657 </v>
    <v>       0.98718203       0.00784143       0.66545988 </v>
    <v>       0.74122384       0.82602851       0.84098874 </v>
    <v>       0.48088680       0.00639751       0.99915380 </v>
    <v>       0.75828616       0.16889274       0.49082835 </v>
    <v>       0.21780902       0.16953854       0.17236659 </v>
    <v>       0.75362870       0.18538242       0.84469197 </v>
    <v>       0.24767466       0.17708648       0.82883442 </v>
    <v>       0.02444993       0.33240100       0.98863996 </v>
    <v>       0.74211474       0.82968100       0.50307242 </v>
    <v>       0.24632167       0.83579317       0.18497802 </v>
    <v>       0.49557071       0.32182181       0.67508449 </v>
    <v>       0.48702093       0.31678211       0.32652783 </v>
    <v>       0.73969153       0.49525321       0.49473760 </v>
    <v>       0.02016068       0.99926167       0.99535750 </v>
    <v>       0.49741449       0.99997337       0.32786331 </v>
    <v>       0.25893745       0.83167715       0.50284223 </v>
    <v>       0.77068817       0.16479409       0.16004563 </v>
    <v>       0.02641209       0.67293839       0.00098446 </v>
    <v>       0.00422419       0.32824240       0.66662521 </v>
    <v>       0.25928166       0.50119299       0.50501778 </v>
   </varray>
  </structure>
  <varray name="forces" >
   <v>      -0.00727166       0.00772096       0.00346337 </v>
   <v>      -0.00577093      -0.04913600       0.00030391 </v>
   <v>       0.00349409      -0.02743296      -0.01395885 </v>
   <v>       0.00362900      -0.00225179       0.07116376 </v>
   <v>       0.03400888       0.03843673      -0.02689978 </v>
   <v>       0.00165353       0.00015429       0.00800901 </v>
   <v>      -0.02014154       0.03012586       0.02568928 </v>
   <v>      -0.00576008      -0.00254582      -0.01240873 </v>
   <v>       0.00170189      -0.01105750       0.00158083 </v>
   <v>      -0.00236292      -0.00032627       0.01400480 </v>
   <v>      -0.00418370      -0.01740767      -0.00254254 </v>
   <v>      -0.01060792      -0.00137469      -0.01245524 </v>
   <v>       0.00177885      -0.00460408      -0.04376661 </v>
   <v>      -0.00890243       0.02441460      -0.02349477 </v>
   <v>       0.00173362       0.01253415      -0.00135777 </v>
   <v>       0.00892065      -0.00208435       0.00440560 </v>
   <v>      -0.00799049      -0.00014941       0.00296599 </v>
   <v>      -0.00778496      -0.00162508      -0.00327511 </v>
   <v>      -0.00281014      -0.00048335       0.00055409 </v>
   <v>       0.00125681       0.01574756       0.00150704 </v>
   <v>      -0.00638868       0.00459751      -0.00094011 </v>
   <v>       0.00075978      -0.00234016      -0.00430186 </v>
   <v>       0.00393769       0.01433797      -0.00184839 </v>
   <v>       0.00026682      -0.00642170      -0.00728410 </v>
   <v>      -0.00589689      -0.01129352       0.00104570 </v>
   <v>       0.00403691      -0.00819990       0.00653863 </v>
   <v>       0.01813085      -0.01997606       0.02298223 </v>
   <v>      -0.00428655      -0.02108479       0.00194858 </v>
   <v>       0.02508330       0.01067168       0.00387953 </v>
   <v>       0.00581323       0.00589201       0.00571489 </v>
   <v>       0.00481226       0.00258766      -0.00831121 </v>
   <v>      -0.00102250       0.04967789      -0.01504358 </v>
   <v>       0.00330468       0.00266301      -0.00006088 </v>
   <v>      -0.00553417       0.00922431       0.00043659 </v>
   <v>       0.00654806      -0.01344086       0.00679462 </v>
   <v>      -0.02415535      -0.02555023      -0.00503895 </v>
  </varray>
  <varray name="stress" >
   <v>      -2.06229945      -0.05301786      -0.01954245 </v>
   <v>      -0.05301780      -1.80694594      -0.02281906 </v>
   <v>      -0.01954245      -0.02281906      -1.81433926 </v>
  </varray>
  <energy>
   <i name="e_fr_energy">   -358.94944423 </i>
   <i name="e_wo_entrp">   -358.95621586 </i>
   <i name="e_0_energy">      0.02031490 </i>
  </energy>
  <time name="totalsc">    5.90    6.63</time>
 </calculation>
 <calculation>
  <scstep>
   <time name="dav">    1.13    1.14</time>
   <time name="total">    1.22    1.41</time>
   <energy>
    <i name="alphaZ">   1493.34075314 </i>
    <i name="ewald"> -19151.54401748 </i>
    <i name="hartreedc">  -7266.66915486 </i>
    <i name="XCdc">   -213.91639093 </i>
    <i name="pawpsdc">  34200.39006940 </i>
    <i name="pawaedc"> -32620.08679000 </i>
    <i name="eentropy">      0.02032576 </i>
    <i name="bandstr">  -2678.99624624 </i>
    <i name="atom">  25878.51093839 </i>
    <i name="e_fr_energy">   -358.95051282 </i>
    <i name="e_wo_entrp">   -358.97083857 </i>
    <i name="e_0_energy">   -358.95728807 </i>
   </energy>
  </scstep>
  <scstep>
   <time name="diag">    0.08    0.08</time>
   <time name="diis">    0.83    0.86</time>
   <time name="orth">    0.02    0.03</time>
   <time name="total">    0.99    1.09</time>
   <energy>
    <i name="e_fr_energy">   -358.95291639 </i>
    <i name="e_wo_entrp">   -358.97345438 </i>
    <i name="e_0_energy">   -358.95976239 </i>
   </energy>
  </scstep>
  <scstep>
   <time name="diag">    0.08    0.08</time>
   <time name="diis">    0.77    0.77</time>
   <time name="orth">    0.01    0.01</time>
   <time name="total">    0.93    0.98</time>
   <energy>
    <i name="e_fr_energy">   -358.95176727 </i>
    <i name="e_wo_entrp">   -358.97206428 </i>
    <i name="e_0_energy">   -358.95853294 </i>
   </energy>
  </scstep>
  <scstep>
   <time name="diag">    0.08    0.08</time>
   <time name="diis">    0.83    0.84</time>
   <time name="orth">    0.01    0.01</time>
   <time name="total">    1.01    1.06</time>
   <energy>
    <i name="e_fr_energy">   -358.95168294 </i>
    <i name="e_wo_entrp">   -358.97197818 </i>
    <i name="e_0_energy">   -358.95844802 </i>
   </energy>
  </scstep>
  <scstep>
   <time name="diag">    0.10    0.11</time>
   <time name="diis">    0.85    0.85</time>
   <time name="orth">    0.01    0.01</time>
   <time name="total">    1.03    1.09</time>
   <energy>
    <i name="e_fr_energy">   -358.95166179 </i>
    <i name="e_wo_entrp">   -358.97199823 </i>
    <i name="e_0_energy">   -358.95844060 </i>
   </energy>
  </scstep>
  <scstep>
   <time name="diag">    0.11    0.14</time>
   <time name="diis">    0.75    0.77</time>
   <time name="orth">    0.01    0.01</time>
   <time name="total">    0.94    1.02</time>
   <energy>
    <i name="e_fr_energy">   -358.95166050 </i>
    <i name="e_wo_entrp">   -358.97196432 </i>
    <i name="e_0_energy">   -358.95842844 </i>
   </energy>
  </scstep>
  <scstep>
   <time name="diag">    0.08    0.08</time>
   <time name="diis">    0.51    0.51</time>
   <time name="orth">    0.01    0.01</time>
   <time name="total">    0.64    0.68</time>
   <energy>
    <i name="alphaZ">   1493.34075314 </i>
    <i name="ewald"> -19151.54401748 </i>
    <i name="hartreedc">  -7264.70212418 </i>
    <i name="XCdc">   -213.99760531 </i>
    <i name="pawpsdc">  34218.81108342 </i>
    <i name="pawaedc"> -32638.56121570 </i>
    <i name="eentropy">      0.02029510 </i>
    <i name="bandstr">  -2680.82976491 </i>
    <i name="atom">  25878.51093839 </i>
    <i name="e_fr_energy">   -358.95165754 </i>
    <i name="e_wo_entrp">   -358.97195263 </i>
    <i name="e_0_energy">   -358.95842257 </i>
   </energy>
  </scstep>
  <structure>
   <crystal>
    <varray name="basis" >
     <v>       6.97129847      -0.00339614      -0.03643751 </v>
     <v>      -0.00465112      10.32373437       0.00635125 </v>
     <v>      -0.05386055       0.00747139      10.21516081 </v>
    </varray>
    <i name="volume">    735.16267380 </i>
    <varray name="rec_basis" >
     <v>       0.14344928       0.00006416       0.00075631 </v>
     <v>       0.00004682       0.09686424      -0.00007060 </v>
     <v>       0.00051165      -0.00006000       0.09789645 </v>
    </varray>
   </crystal>
   <varray name="positions" >
    <v>       0.75189176       0.84127937       0.15691542 </v>
    <v>       0.24071234       0.15866230       0.49736066 </v>
    <v>       0.00465916       0.31574494       0.34745647 </v>
    <v>       0.26410913       0.50684751       0.81661315 </v>
    <v>       0.51586349       0.67835203       0.32023065 </v>
    <v>       0.53114728       0.66177840       0.66129813 </v>
    <v>       0.98044741       0.66254048       0.66643013 </v>
    <v>       0.99615369       0.99442746       0.33772267 </v>
    <v>       0.47397381       0.33355770       0.00026192 </v>
    <v>       0.76656572       0.49334742       0.16547452 </v>
    <v>       0.26784823       0.81929042       0.80761034 </v>
    <v>       0.74881632       0.49588160       0.83906379 </v>
    <v>       0.22423211       0.49626546       0.18791403 </v>
    <v>       0.97552600       0.68643287       0.33510707 </v>
    <v>       0.48103155       0.66601100       0.01844743 </v>
    <v>       0.51779876       0.01870659       0.66799957 </v>
    <v>       0.98708362       0.00781525       0.66549294 </v>
    <v>       0.74116029       0.82599161       0.84094079 </v>
    <v>       0.48091825       0.00636851       0.99916507 </v>
    <v>       0.75831942       0.16906909       0.49083141 </v>
    <v>       0.21774828       0.16961796       0.17239100 </v>
    <v>       0.75364395       0.18537128       0.84462123 </v>
    <v>       0.24766313       0.17723119       0.82880819 </v>
    <v>       0.02444471       0.33234965       0.98857835 </v>
    <v>       0.74209492       0.82958825       0.50304291 </v>
    <v>       0.24634479       0.83573168       0.18506609 </v>
    <v>       0.49597507       0.32157007       0.67532128 </v>
    <v>       0.48702950       0.31658467       0.32654828 </v>
    <v>       0.74011906       0.49530464       0.49471901 </v>
    <v>       0.02022189       0.99929086       0.99539039 </v>
    <v>       0.49748007       0.99995694       0.32779265 </v>
    <v>       0.25893742       0.83224894       0.50274427 </v>
    <v>       0.77072096       0.16485720       0.16008802 </v>
    <v>       0.02630544       0.67298171       0.00098338 </v>
    <v>       0.00419409       0.32810351       0.66669345 </v>
    <v>       0.25882038       0.50085843       0.50487735 </v>
   </varray>
  </structure>
  <varray name="forces" >
   <v>      -0.00288917       0.02144037      -0.01138062 </v>
   <v>      -0.00476734      -0.03236579       0.00232328 </v>
   <v>       0.02036064      -0.00011682       0.00412083 </v>
   <v>      -0.00473299      -0.01298536       0.01814581 </v>
   <v>       0.00363016       0.00024929       0.00353802 </v>
   <v>      -0.00218492      -0.01911437      -0.01158468 </v>
   <v>      -0.00678902       0.00667361       0.00869118 </v>
   <v>      -0.00252461       0.00432214      -0.00427319 </v>
   <v>       0.01434157      -0.01460643       0.00819376 </v>
   <v>      -0.00524837      -0.00363244       0.01072888 </v>
   <v>      -0.00680830      -0.00704402       0.00758381 </v>
   <v>      -0.01032862       0.00165590      -0.00694023 </v>
   <v>       0.00426194      -0.00007122      -0.01609469 </v>
   <v>       0.01239663       0.00342169      -0.01430271 </v>
   <v>       0.00312899       0.01617857      -0.00371048 </v>
   <v>       0.00622940       0.00185581       0.00119784 </v>
   <v>      -0.00711356      -0.00201779       0.00191606 </v>
   <v>      -0.00866315       0.00700487       0.00179414 </v>
   <v>      -0.00874896       0.00292734      -0.00299639 </v>
   <v>      -0.00824865       0.00090194       0.00730136 </v>
   <v>       0.00083408      -0.00849231      -0.01030827 </v>
   <v>       0.00005385      -0.01219292       0.00319069 </v>
   <v>       0.00915500      -0.00054666       0.00016033 </v>
   <v>      -0.00493393       0.00267684      -0.00349870 </v>
   <v>      -0.00950451      -0.00044217       0.00746338 </v>
   <v>       0.00469850      -0.00569637      -0.00538425 </v>
   <v>      -0.00288344       0.00534376       0.00438587 </v>
   <v>      -0.00632350      -0.00792208       0.00345237 </v>
   <v>       0.01162026       0.01217787       0.01140077 </v>
   <v>       0.00521568       0.00493015       0.00304107 </v>
   <v>       0.00759751       0.01176074      -0.00459885 </v>
   <v>      -0.00359342       0.01648782      -0.01449385 </v>
   <v>      -0.00487013      -0.00444617      -0.00965955 </v>
   <v>      -0.00507451       0.01210195      -0.00235703 </v>
   <v>       0.01677898      -0.00139530       0.00319121 </v>
   <v>      -0.00407208       0.00097757       0.00976282 </v>
  </varray>
  <varray name="stress" >
   <v>      -1.31690410      -0.03724133       0.07359030 </v>
   <v>      -0.03724134      -0.96340572      -0.00201884 </v>
   <v>       0.07359032      -0.00201883      -1.08732428 </v>
  </varray>
  <energy>
   <i name="e_fr_energy">   -358.95165754 </i>
   <i name="e_wo_entrp">   -358.95842257 </i>
   <i name="e_0_energy">      0.02029510 </i>
  </energy>
  <time name="totalsc">    8.36    9.13</time>
 </calculation>
 <calculation>
  <scstep>
   <time name="dav">    1.08    1.08</time>
   <time name="total">    1.16    1.45</time>
   <energy>
    <i name="alphaZ">   1493.56636323 </i>
    <i name="ewald"> -19151.93461339 </i>
    <i name="hartreedc">  -7265.67597958 </i>
    <i name="XCdc">   -213.95024313 </i>
    <i name="pawpsdc">  34218.52573026 </i>
    <i name="pawaedc"> -32638.25221524 </i>
    <i name="eentropy">      0.02031837 </i>
    <i name="bandstr">  -2679.76198217 </i>
    <i name="atom">  25878.51093839 </i>
    <i name="e_fr_energy">   -358.95168326 </i>
    <i name="e_wo_entrp">   -358.97200162 </i>
    <i name="e_0_energy">   -358.95845605 </i>
   </energy>
  </scstep>
  <scstep>
   <time name="diag">    0.08    0.08</time>
   <time name="diis">    0.75    0.75</time>
   <time name="orth">    0.01    0.01</time>
   <time name="total">    0.92    0.95</time>
   <energy>
    <i name="e_fr_energy">   -358.95197190 </i>
    <i name="e_wo_entrp">   -358.97235639 </i>
    <i name="e_0_energy">   -358.95876673 </i>
   </energy>
  </scstep>
  <scstep>
   <time name="diag">    0.08    0.08</time>
   <time name="diis">    0.79    0.82</time>
   <time name="orth">    0.01    0.03</time>
   <time name="total">    0.96    1.08</time>
   <energy>
    <i name="e_fr_energy">   -358.95184086 </i>
    <i name="e_wo_entrp">   -358.97214471 </i>
    <i name="e_0_energy">   -358.95860881 </i>
   </energy>
  </scstep>
  <scstep>
   <time name="diag">    0.08    0.08</time>
   <time name="diis">    0.71    0.71</time>
   <time name="orth">    0.01    0.01</time>
   <time name="total">    0.90    0.97</time>
   <energy>
    <i name="e_fr_energy">   -358.95183470 </i>
    <i name="e_wo_entrp">   -358.97213847 </i>
    <i name="e_0_energy">   -358.95860263 </i>
   </energy>
  </scstep>
  <scstep>
   <time name="diag">    0.08    0.08</time>
   <time name="diis">    0.50    0.50</time>
   <time name="orth">    0.01    0.01</time>
   <time name="total">    0.62    0.68</time>
   <energy>
    <i name="alphaZ">   1493.56636323 </i>
    <i name="ewald"> -19151.93461339 </i>
    <i name="hartreedc">  -7265.05101886 </i>
    <i name="XCdc">   -213.97565443 </i>
    <i name="pawpsdc">  34224.55854584 </i>
    <i name="pawaedc"> -32644.25793320 </i>
    <i name="eentropy">      0.02031693 </i>
    <i name="bandstr">  -2680.38877922 </i>
    <i name="atom">  25878.51093839 </i>
    <i name="e_fr_energy">   -358.95183471 </i>
    <i name="e_wo_entrp">   -358.97215165 </i>
    <i name="e_0_energy">   -358.95860702 </i>
   </energy>
  </scstep>
  <structure>
   <crystal>
    <varray name="basis" >
     <v>       6.97067457      -0.00349545      -0.03654853 </v>
     <v>      -0.00479888      10.32329592       0.00619932 </v>
     <v>      -0.05401961       0.00732156      10.21496742 </v>
    </varray>
    <i name="volume">    735.05162408 </i>
    <varray name="rec_basis" >
     <v>       0.14346215       0.00006623       0.00075862 </v>
     <v>       0.00004821       0.09686835      -0.00006918 </v>
     <v>       0.00051327      -0.00005855       0.09789832 </v>
    </varray>
   </crystal>
   <varray name="positions" >
    <v>       0.75185498       0.84127911       0.15694823 </v>
    <v>       0.24070891       0.15849826       0.49736411 </v>
    <v>       0.00461408       0.31564472       0.34738191 </v>
    <v>       0.26413600       0.50685950       0.81691189 </v>
    <v>       0.51606701       0.67850497       0.32011724 </v>
    <v>       0.53114371       0.66181116       0.66135642 </v>
    <v>       0.98035184       0.66266314       0.66652734 </v>
    <v>       0.99611155       0.99440894       0.33768110 </v>
    <v>       0.47396724       0.33354412       0.00026330 </v>
    <v>       0.76655638       0.49335092       0.16551408 </v>
    <v>       0.26783146       0.81923573       0.80759027 </v>
    <v>       0.74877890       0.49587647       0.83902763 </v>
    <v>       0.22424066       0.49624836       0.18774081 </v>
    <v>       0.97544617       0.68651705       0.33503315 </v>
    <v>       0.48104587       0.66603037       0.01843573 </v>
    <v>       0.51783880       0.01868270       0.66801412 </v>
    <v>       0.98705032       0.00780639       0.66550412 </v>
    <v>       0.74113878       0.82597912       0.84092456 </v>
    <v>       0.48092890       0.00635870       0.99916888 </v>
    <v>       0.75833068       0.16912876       0.49083244 </v>
    <v>       0.21772773       0.16964484       0.17239926 </v>
    <v>       0.75364911       0.18536751       0.84459730 </v>
    <v>       0.24765922       0.17728015       0.82879931 </v>
    <v>       0.02444294       0.33233227       0.98855750 </v>
    <v>       0.74208820       0.82955686       0.50303292 </v>
    <v>       0.24635262       0.83571087       0.18509589 </v>
    <v>       0.49611191       0.32148490       0.67540140 </v>
    <v>       0.48703239       0.31651786       0.32655520 </v>
    <v>       0.74026374       0.49532205       0.49471273 </v>
    <v>       0.02024261       0.99930073       0.99540152 </v>
    <v>       0.49750226       0.99995138       0.32776874 </v>
    <v>       0.25893742       0.83244241       0.50271113 </v>
    <v>       0.77073206       0.16487855       0.16010236 </v>
    <v>       0.02626935       0.67299637       0.00098302 </v>
    <v>       0.00418390       0.32805652       0.66671653 </v>
    <v>       0.25866428       0.50074522       0.50482983 </v>
   </varray>
  </structure>
  <varray name="forces" >
   <v>      -0.00202198       0.02615144      -0.01674735 </v>
   <v>      -0.00501072      -0.02749947       0.00308285 </v>
   <v>       0.02654601       0.00969347       0.00956943 </v>
   <v>      -0.00679035      -0.01603524       0.00114741 </v>
   <v>      -0.00751432      -0.01183375       0.01339020 </v>
   <v>      -0.00405076      -0.02572343      -0.01863765 </v>
   <v>      -0.00234002      -0.00082214       0.00269745 </v>
   <v>      -0.00006613       0.00547602      -0.00324845 </v>
   <v>       0.01807664      -0.01749810       0.00975831 </v>
   <v>      -0.00663980      -0.00442938       0.01081879 </v>
   <v>      -0.00741345      -0.00285735       0.01080832 </v>
   <v>      -0.01092776       0.00251989      -0.00620842 </v>
   <v>       0.00535497       0.00165495      -0.00633816 </v>
   <v>       0.02090323      -0.00378798      -0.01142688 </v>
   <v>       0.00283784       0.01883615      -0.00337929 </v>
   <v>       0.00433754       0.00298381       0.00234331 </v>
   <v>      -0.00575795      -0.00308029       0.00353432 </v>
   <v>      -0.00923122       0.01020030       0.00345890 </v>
   <v>      -0.01147456       0.00401844      -0.00412913 </v>
   <v>      -0.01089134      -0.00233029       0.00863839 </v>
   <v>       0.00403217      -0.01319788      -0.01289953 </v>
   <v>      -0.00113709      -0.01530274       0.00546600 </v>
   <v>       0.01208601      -0.00563913       0.00120408 </v>
   <v>      -0.00624206       0.00471064      -0.00199450 </v>
   <v>      -0.01097593       0.00291448       0.00914723 </v>
   <v>       0.00603431      -0.00412350      -0.01036883 </v>
   <v>      -0.00837249       0.01237777      -0.00059313 </v>
   <v>      -0.00783331      -0.00268512       0.00342813 </v>
   <v>       0.00684601       0.01258095       0.01327173 </v>
   <v>       0.00490036       0.00527670       0.00329058 </v>
   <v>       0.00688550       0.01411097      -0.00484586 </v>
   <v>      -0.00437948       0.00478424      -0.01487880 </v>
   <v>      -0.00764135      -0.00713200      -0.01318420 </v>
   <v>      -0.00471989       0.01342408      -0.00190494 </v>
   <v>       0.01994412       0.00263543       0.00201679 </v>
   <v>       0.00264725       0.00962808       0.01371289 </v>
  </varray>
  <varray name="stress" >
   <v>      -1.15887584      -0.05218871       0.06550372 </v>
   <v>      -0.05218868      -0.70852799       0.01570444 </v>
   <v>       0.06550373       0.01570438      -0.86235310 </v>
  </varray>
  <energy>
   <i name="e_fr_energy">   -358.95183471 </i>
   <i name="e_wo_entrp">   -358.95860702 </i>
   <i name="e_0_energy">      0.02031693 </i>
  </energy>
  <time name="totalsc">    6.14    6.87</time>
 </calculation>
 <calculation>
  <scstep>
   <time name="dav">    1.14    1.18</time>
   <time name="total">    1.21    1.46</time>
   <energy>
    <i name="alphaZ">   1494.97514963 </i>
    <i name="ewald"> -19157.86936302 </i>
    <i name="hartreedc">  -7267.41622419 </i>
    <i name="XCdc">   -213.69683689 </i>
    <i name="pawpsdc">  34225.61622256 </i>
    <i name="pawaedc"> -32645.30443223 </i>
    <i name="eentropy">      0.02024924 </i>
    <i name="bandstr">  -2673.78986785 </i>
    <i name="atom">  25878.51093839 </i>
    <i name="e_fr_energy">   -358.95416435 </i>
    <i name="e_wo_entrp">   -358.97441360 </i>
    <i name="e_0_energy">   -358.96091410 </i>
   </energy>
  </scstep>
  <scstep>
   <time name="diag">    0.08    0.08</time>
   <time name="diis">    0.78    0.78</time>
   <time name="orth">    0.01    0.01</time>
   <time name="total">    0.93    0.99</time>
   <energy>
    <i name="e_fr_energy">   -358.95325228 </i>
    <i name="e_wo_entrp">   -358.97356117 </i>
    <i name="e_0_energy">   -358.96002191 </i>
   </energy>
  </scstep>
  <scstep>
   <time name="diag">    0.08    0.08</time>
   <time name="diis">    0.79    0.80</time>
   <time name="orth">    0.01    0.01</time>
   <time name="total">    0.95    0.99</time>
   <energy>
    <i name="e_fr_energy">   -358.95249861 </i>
    <i name="e_wo_entrp">   -358.97268627 </i>
    <i name="e_0_energy">   -358.95922783 </i>
[...]
       <r>    6.8923    1.0000 </r>
       <r>    6.9146    1.0000 </r>
       <r>    6.9614    1.0000 </r>
       <r>    6.9943    1.0000 </r>
       <r>    7.0326    1.0000 </r>
       <r>    7.0837    1.0003 </r>
       <r>    7.1287    1.0012 </r>
       <r>    7.1520    1.0023 </r>
       <r>    7.1769    1.0044 </r>
       <r>    7.2230    1.0119 </r>
       <r>    7.2607    1.0223 </r>
       <r>    7.2946    1.0321 </r>
       <r>    7.3158    1.0354 </r>
       <r>    7.3362    1.0332 </r>
       <r>    7.3735    1.0049 </r>
       <r>    7.4157    0.9124 </r>
       <r>    7.4605    0.7308 </r>
       <r>    7.4816    0.6206 </r>
       <r>    7.5041    0.4949 </r>
       <r>    7.5452    0.2732 </r>
       <r>    7.5629    0.1910 </r>
       <r>    7.6015    0.0569 </r>
       <r>    7.6445   -0.0180 </r>
       <r>    7.6951   -0.0350 </r>
       <r>    7.7329   -0.0262 </r>
       <r>    7.7722   -0.0147 </r>
       <r>    7.8142   -0.0063 </r>
       <r>    7.8357   -0.0037 </r>
       <r>    7.8607   -0.0019 </r>
       <r>    7.8905   -0.0008 </r>
       <r>    7.9482   -0.0001 </r>
       <r>    7.9751   -0.0000 </r>
       <r>    8.0090   -0.0000 </r>
       <r>    8.0657   -0.0000 </r>
       <r>    8.1155   -0.0000 </r>
       <r>    8.1713   -0.0000 </r>
       <r>    8.2429   -0.0000 </r>
       <r>    8.3089   -0.0000 </r>
       <r>    8.4020   -0.0000 </r>
       <r>    8.4645   -0.0000 </r>
       <r>    8.5030   -0.0000 </r>
       <r>    8.6628   -0.0000 </r>
       <r>    8.8064   -0.0000 </r>
       <r>    8.8684   -0.0000 </r>
       <r>    9.3656   -0.0000 </r>
       <r>    9.4187   -0.0000 </r>
       <r>    9.4423   -0.0000 </r>
       <r>    9.5239   -0.0000 </r>
       <r>    9.5933   -0.0000 </r>
      </set>
     </set>
    </set>
   </array>
  </eigenvalues>
  <separator name="orbital magnetization" >
   <v name="MAGDIPOLOUT">      0.00000000      0.00000000      0.00000000</v>
  </separator>
  <dos>
   <i name="efermi">      7.50324826 </i>
   <total>
    <array>
     <dimension dim="1">gridpoints</dimension>
     <dimension dim="2">spin</dimension>
     <field>energy</field>
     <field>total</field>
     <field>integrated</field>
     <set>
      <set comment="spin 1">
       <r>   -49.6183     0.0000     0.0000 </r>
       <r>   -49.4114     0.0000     0.0000 </r>
       <r>   -49.2044     0.0000     0.0000 </r>
       <r>   -48.9974     0.0000     0.0000 </r>
       <r>   -48.7905     0.0000     0.0000 </r>
       <r>   -48.5835     0.0000     0.0000 </r>
       <r>   -48.3765     0.0000     0.0000 </r>
       <r>   -48.1696    -0.0000    -0.0000 </r>
       <r>   -47.9626    -0.0000    -0.0000 </r>
       <r>   -47.7556    -0.0000    -0.0000 </r>
       <r>   -47.5487    -0.0000    -0.0000 </r>
       <r>   -47.3417    -0.0000    -0.0000 </r>
       <r>   -47.1347    -0.0418    -0.0087 </r>
       <r>   -46.9278    -1.0308    -0.2220 </r>
       <r>   -46.7208    23.3685     4.6145 </r>
       <r>   -46.5138    48.3477    14.6209 </r>
       <r>   -46.3069     7.2614    16.1238 </r>
       <r>   -46.0999    -0.5936    16.0009 </r>
       <r>   -45.8929    -0.0045    16.0000 </r>
       <r>   -45.6860    -0.0000    16.0000 </r>
       <r>   -45.4790    -0.0000    16.0000 </r>
       <r>   -45.2720     0.0000    16.0000 </r>
       <r>   -45.0651     0.0000    16.0000 </r>
       <r>   -44.8581     0.0000    16.0000 </r>
       <r>   -44.6511     0.0000    16.0000 </r>
       <r>   -44.4441     0.0000    16.0000 </r>
       <r>   -44.2372     0.0000    16.0000 </r>
       <r>   -44.0302     0.0000    16.0000 </r>
       <r>   -43.8232     0.0000    16.0000 </r>
       <r>   -43.6163     0.0000    16.0000 </r>
       <r>   -43.4093     0.0000    16.0000 </r>
       <r>   -43.2023     0.0000    16.0000 </r>
       <r>   -42.9954     0.0000    16.0000 </r>
       <r>   -42.7884     0.0000    16.0000 </r>
       <r>   -42.5814     0.0000    16.0000 </r>
       <r>   -42.3745     0.0000    16.0000 </r>
       <r>   -42.1675    -0.0000    16.0000 </r>
       <r>   -41.9605    -0.0000    16.0000 </r>
       <r>   -41.7536    -0.0000    16.0000 </r>
       <r>   -41.5466    -0.0000    16.0000 </r>
       <r>   -41.3396    -0.0000    16.0000 </r>
       <r>   -41.1327    -0.0354    15.9927 </r>
       <r>   -40.9257    -1.0856    15.7680 </r>
       <r>   -40.7187    21.6456    20.2479 </r>
       <r>   -40.5118    57.7790    32.2063 </r>
       <r>   -40.3048     9.4457    34.1612 </r>
       <r>   -40.0978    -0.7761    34.0006 </r>
       <r>   -39.8909    -0.0030    34.0000 </r>
       <r>   -39.6839    -0.0000    34.0000 </r>
       <r>   -39.4769    -0.0000    34.0000 </r>
       <r>   -39.2700     0.0000    34.0000 </r>
       <r>   -39.0630     0.0000    34.0000 </r>
       <r>   -38.8560     0.0000    34.0000 </r>
       <r>   -38.6491     0.0000    34.0000 </r>
       <r>   -38.4421     0.0000    34.0000 </r>
       <r>   -38.2351     0.0000    34.0000 </r>
       <r>   -38.0282     0.0000    34.0000 </r>
       <r>   -37.8212     0.0000    34.0000 </r>
       <r>   -37.6142     0.0000    34.0000 </r>
       <r>   -37.4072     0.0000    34.0000 </r>
       <r>   -37.2003     0.0000    34.0000 </r>
       <r>   -36.9933     0.0000    34.0000 </r>
       <r>   -36.7863     0.0000    34.0000 </r>
       <r>   -36.5794     0.0000    34.0000 </r>
       <r>   -36.3724     0.0000    34.0000 </r>
       <r>   -36.1654     0.0000    34.0000 </r>
       <r>   -35.9585     0.0000    34.0000 </r>
       <r>   -35.7515     0.0000    34.0000 </r>
       <r>   -35.5445     0.0000    34.0000 </r>
       <r>   -35.3376     0.0000    34.0000 </r>
       <r>   -35.1306     0.0000    34.0000 </r>
       <r>   -34.9236     0.0000    34.0000 </r>
       <r>   -34.7167     0.0000    34.0000 </r>
       <r>   -34.5097     0.0000    34.0000 </r>
       <r>   -34.3027     0.0000    34.0000 </r>
       <r>   -34.0958     0.0000    34.0000 </r>
       <r>   -33.8888     0.0000    34.0000 </r>
       <r>   -33.6818     0.0000    34.0000 </r>
       <r>   -33.4749     0.0000    34.0000 </r>
       <r>   -33.2679     0.0000    34.0000 </r>
       <r>   -33.0609     0.0000    34.0000 </r>
       <r>   -32.8540     0.0000    34.0000 </r>
       <r>   -32.6470     0.0000    34.0000 </r>
       <r>   -32.4400     0.0000    34.0000 </r>
       <r>   -32.2331     0.0000    34.0000 </r>
       <r>   -32.0261     0.0000    34.0000 </r>
       <r>   -31.8191     0.0000    34.0000 </r>
       <r>   -31.6122     0.0000    34.0000 </r>
       <r>   -31.4052     0.0000    34.0000 </r>
       <r>   -31.1982     0.0000    34.0000 </r>
       <r>   -30.9913     0.0000    34.0000 </r>
       <r>   -30.7843     0.0000    34.0000 </r>
       <r>   -30.5773     0.0000    34.0000 </r>
       <r>   -30.3704     0.0000    34.0000 </r>
       <r>   -30.1634     0.0000    34.0000 </r>
       <r>   -29.9564     0.0000    34.0000 </r>
       <r>   -29.7494     0.0000    34.0000 </r>
       <r>   -29.5425     0.0000    34.0000 </r>
       <r>   -29.3355     0.0000    34.0000 </r>
       <r>   -29.1285     0.0000    34.0000 </r>
       <r>   -28.9216     0.0000    34.0000 </r>
       <r>   -28.7146     0.0000    34.0000 </r>
       <r>   -28.5076     0.0000    34.0000 </r>
       <r>   -28.3007     0.0000    34.0000 </r>
       <r>   -28.0937     0.0000    34.0000 </r>
       <r>   -27.8867     0.0000    34.0000 </r>
       <r>   -27.6798     0.0000    34.0000 </r>
       <r>   -27.4728     0.0000    34.0000 </r>
       <r>   -27.2658     0.0000    34.0000 </r>
       <r>   -27.0589     0.0000    34.0000 </r>
       <r>   -26.8519     0.0000    34.0000 </r>
       <r>   -26.6449     0.0000    34.0000 </r>
       <r>   -26.4380     0.0000    34.0000 </r>
       <r>   -26.2310     0.0000    34.0000 </r>
       <r>   -26.0240     0.0000    34.0000 </r>
       <r>   -25.8171     0.0000    34.0000 </r>
       <r>   -25.6101     0.0000    34.0000 </r>
       <r>   -25.4031     0.0000    34.0000 </r>
       <r>   -25.1962     0.0000    34.0000 </r>
       <r>   -24.9892     0.0000    34.0000 </r>
       <r>   -24.7822     0.0000    34.0000 </r>
       <r>   -24.5753    -0.0000    34.0000 </r>
       <r>   -24.3683    -0.0000    34.0000 </r>
       <r>   -24.1613    -0.0000    34.0000 </r>
       <r>   -23.9544    -0.0000    34.0000 </r>
       <r>   -23.7474    -0.0000    34.0000 </r>
       <r>   -23.5404    -0.0252    33.9948 </r>
       <r>   -23.3335    -0.7907    33.8311 </r>
       <r>   -23.1265    15.6074    37.0614 </r>
       <r>   -22.9195    41.0140    45.5499 </r>
       <r>   -22.7126    93.0162    64.8013 </r>
       <r>   -22.5056    68.1921    78.9148 </r>
       <r>   -22.2986    15.0978    82.0396 </r>
       <r>   -22.0916    -0.1235    82.0140 </r>
       <r>   -21.8847    -0.0676    82.0000 </r>
       <r>   -21.6777    -0.0001    82.0000 </r>
       <r>   -21.4707    -0.0000    82.0000 </r>
       <r>   -21.2638     0.0000    82.0000 </r>
       <r>   -21.0568     0.0000    82.0000 </r>
       <r>   -20.8498     0.0000    82.0000 </r>
       <r>   -20.6429     0.0000    82.0000 </r>
       <r>   -20.4359    -0.0000    82.0000 </r>
       <r>   -20.2289    -0.0000    82.0000 </r>
       <r>   -20.0220    -0.0000    82.0000 </r>
       <r>   -19.8150    -0.0000    82.0000 </r>
       <r>   -19.6080    -0.0023    81.9995 </r>
       <r>   -19.4011    -0.3346    81.9303 </r>
       <r>   -19.1941     3.7273    82.7017 </r>
       <r>   -18.9871    25.2450    87.9266 </r>
       <r>   -18.7802    82.5993   105.0220 </r>
       <r>   -18.5732   100.4819   125.8185 </r>
       <r>   -18.3662    49.0509   135.9704 </r>
       <r>   -18.1593     0.3755   136.0482 </r>
       <r>   -17.9523    -0.2324   136.0000 </r>
       <r>   -17.7453    -0.0002   136.0000 </r>
       <r>   -17.5384    -0.0000   136.0000 </r>
       <r>   -17.3314    -0.0000   136.0000 </r>
       <r>   -17.1244     0.0000   136.0000 </r>
       <r>   -16.9175     0.0000   136.0000 </r>
       <r>   -16.7105     0.0000   136.0000 </r>
       <r>   -16.5035     0.0000   136.0000 </r>
       <r>   -16.2966     0.0000   136.0000 </r>
       <r>   -16.0896     0.0000   136.0000 </r>
       <r>   -15.8826     0.0000   136.0000 </r>
       <r>   -15.6757     0.0000   136.0000 </r>
       <r>   -15.4687     0.0000   136.0000 </r>
       <r>   -15.2617     0.0000   136.0000 </r>
       <r>   -15.0547     0.0000   136.0000 </r>
       <r>   -14.8478     0.0000   136.0000 </r>
       <r>   -14.6408     0.0000   136.0000 </r>
       <r>   -14.4338     0.0000   136.0000 </r>
       <r>   -14.2269     0.0000   136.0000 </r>
       <r>   -14.0199     0.0000   136.0000 </r>
       <r>   -13.8129     0.0000   136.0000 </r>
       <r>   -13.6060     0.0000   136.0000 </r>
       <r>   -13.3990     0.0000   136.0000 </r>
       <r>   -13.1920     0.0000   136.0000 </r>
       <r>   -12.9851     0.0000   136.0000 </r>
       <r>   -12.7781     0.0000   136.0000 </r>
       <r>   -12.5711     0.0000   136.0000 </r>
       <r>   -12.3642     0.0000   136.0000 </r>
       <r>   -12.1572     0.0000   136.0000 </r>
       <r>   -11.9502     0.0000   136.0000 </r>
       <r>   -11.7433     0.0000   136.0000 </r>
       <r>   -11.5363     0.0000   136.0000 </r>
       <r>   -11.3293     0.0000   136.0000 </r>
       <r>   -11.1224     0.0000   136.0000 </r>
       <r>   -10.9154     0.0000   136.0000 </r>
       <r>   -10.7084     0.0000   136.0000 </r>
       <r>   -10.5015     0.0000   136.0000 </r>
       <r>   -10.2945     0.0000   136.0000 </r>
       <r>   -10.0875     0.0000   136.0000 </r>
       <r>    -9.8806     0.0000   136.0000 </r>
       <r>    -9.6736     0.0000   136.0000 </r>
       <r>    -9.4666     0.0000   136.0000 </r>
       <r>    -9.2597     0.0000   136.0000 </r>
       <r>    -9.0527     0.0000   136.0000 </r>
       <r>    -8.8457     0.0000   136.0000 </r>
       <r>    -8.6388     0.0000   136.0000 </r>
       <r>    -8.4318     0.0000   136.0000 </r>
       <r>    -8.2248     0.0000   136.0000 </r>
       <r>    -8.0179     0.0000   136.0000 </r>
       <r>    -7.8109     0.0000   136.0000 </r>
       <r>    -7.6039     0.0000   136.0000 </r>
       <r>    -7.3969     0.0000   136.0000 </r>
       <r>    -7.1900     0.0000   136.0000 </r>
       <r>    -6.9830     0.0000   136.0000 </r>
       <r>    -6.7760     0.0000   136.0000 </r>
       <r>    -6.5691     0.0000   136.0000 </r>
       <r>    -6.3621     0.0000   136.0000 </r>
       <r>    -6.1551     0.0000   136.0000 </r>
       <r>    -5.9482     0.0000   136.0000 </r>
       <r>    -5.7412     0.0000   136.0000 </r>
       <r>    -5.5342     0.0000   136.0000 </r>
       <r>    -5.3273     0.0000   136.0000 </r>
       <r>    -5.1203     0.0000   136.0000 </r>
       <r>    -4.9133     0.0000   136.0000 </r>
       <r>    -4.7064     0.0000   136.0000 </r>
       <r>    -4.4994     0.0000   136.0000 </r>
       <r>    -4.2924     0.0000   136.0000 </r>
       <r>    -4.0855     0.0000   136.0000 </r>
       <r>    -3.8785     0.0000   136.0000 </r>
       <r>    -3.6715     0.0000   136.0000 </r>
       <r>    -3.4646     0.0000   136.0000 </r>
       <r>    -3.2576     0.0000   136.0000 </r>
       <r>    -3.0506     0.0000   136.0000 </r>
       <r>    -2.8437     0.0000   136.0000 </r>
       <r>    -2.6367     0.0000   136.0000 </r>
       <r>    -2.4297     0.0000   136.0000 </r>
       <r>    -2.2228     0.0000   136.0000 </r>
       <r>    -2.0158     0.0000   136.0000 </r>
       <r>    -1.8088     0.0000   136.0000 </r>
       <r>    -1.6019     0.0000   136.0000 </r>
       <r>    -1.3949     0.0000   136.0000 </r>
       <r>    -1.1879     0.0000   136.0000 </r>
       <r>    -0.9810     0.0000   136.0000 </r>
       <r>    -0.7740     0.0000   136.0000 </r>
       <r>    -0.5670    -0.0000   136.0000 </r>
       <r>    -0.3601    -0.0000   136.0000 </r>
       <r>    -0.1531    -0.0000   136.0000 </r>
       <r>     0.0539    -0.0000   136.0000 </r>
       <r>     0.2609    -0.0000   136.0000 </r>
       <r>     0.4678    -0.0010   135.9998 </r>
       <r>     0.6748    -0.0057   135.9986 </r>
       <r>     0.8818     0.2752   136.0556 </r>
       <r>     1.0887     1.1500   136.2936 </r>
       <r>     1.2957     1.6856   136.6424 </r>
       <r>     1.5027     1.9975   137.0559 </r>
       <r>     1.7096     3.6640   137.8142 </r>
       <r>     1.9166     3.5766   138.5544 </r>
       <r>     2.1236     2.6512   139.1031 </r>
       <r>     2.3305     4.4285   140.0197 </r>
       <r>     2.5375     4.3314   140.9161 </r>
       <r>     2.7445     3.7782   141.6981 </r>
       <r>     2.9514     7.8269   143.3180 </r>
       <r>     3.1584     8.2509   145.0257 </r>
       <r>     3.3654     7.0499   146.4848 </r>
       <r>     3.5723     8.4118   148.2258 </r>
       <r>     3.7793     9.6346   150.2198 </r>
       <r>     3.9863    16.8693   153.7112 </r>
       <r>     4.1932    22.2517   158.3166 </r>
       <r>     4.4002    24.3254   163.3512 </r>
       <r>     4.6072    29.1797   169.3904 </r>
       <r>     4.8141    33.9028   176.4072 </r>
       <r>     5.0211    40.2706   184.7419 </r>
       <r>     5.2281    42.5967   193.5580 </r>
       <r>     5.4350    34.4848   200.6953 </r>
       <r>     5.6420    32.6870   207.4604 </r>
       <r>     5.8490    33.5487   214.4039 </r>
       <r>     6.0559    16.1454   217.7455 </r>
       <r>     6.2629    40.1090   226.0467 </r>
       <r>     6.4699    63.1689   239.1207 </r>
       <r>     6.6768    57.7819   251.0796 </r>
       <r>     6.8838    56.0676   262.6838 </r>
       <r>     7.0908    54.5982   273.9839 </r>
       <r>     7.2977    56.4676   285.6708 </r>
       <r>     7.5047    50.2271   296.0662 </r>
       <r>     7.7117    45.8309   305.5517 </r>
       <r>     7.9187    52.7865   316.4768 </r>
       <r>     8.1256    43.7122   325.5238 </r>
       <r>     8.3326    35.4465   332.8601 </r>
       <r>     8.5396    28.1562   338.6875 </r>
       <r>     8.7465    23.2620   343.5020 </r>
       <r>     8.9535    16.4811   346.9131 </r>
       <r>     9.1605    13.6479   349.7377 </r>
       <r>     9.3674    24.9314   354.8977 </r>
       <r>     9.5744    19.5894   358.9521 </r>
       <r>     9.7814     5.3899   360.0676 </r>
       <r>     9.9883    -0.3194   360.0015 </r>
       <r>    10.1953    -0.0073   360.0000 </r>
       <r>    10.4023    -0.0000   360.0000 </r>
       <r>    10.6092    -0.0000   360.0000 </r>
       <r>    10.8162     0.0000   360.0000 </r>
       <r>    11.0232     0.0000   360.0000 </r>
       <r>    11.2301     0.0000   360.0000 </r>
       <r>    11.4371     0.0000   360.0000 </r>
       <r>    11.6441     0.0000   360.0000 </r>
       <r>    11.8510     0.0000   360.0000 </r>
       <r>    12.0580     0.0000   360.0000 </r>
       <r>    12.2650     0.0000   360.0000 </r>
       <r>    12.4719     0.0000   360.0000 </r>
      </set>
     </set>
    </array>
   </total>
  </dos>
 </calculation>
 <structure name="finalpos" >
  <crystal>
   <varray name="basis" >
    <v>       6.96726612      -0.00439744      -0.03521016 </v>
    <v>      -0.00613277      10.32388595       0.00587341 </v>
    <v>      -0.05204621       0.00700909      10.21239269 </v>
   </varray>
   <i name="volume">    734.55037873 </i>
   <varray name="rec_basis" >
    <v>       0.14353207       0.00008485       0.00073144 </v>
    <v>       0.00006080       0.09686283      -0.00006617 </v>
    <v>       0.00049483      -0.00005542       0.09792281 </v>
   </varray>
  </crystal>
  <varray name="positions" >
   <v>       0.75175175       0.84199136       0.15670000 </v>
   <v>       0.24070051       0.15748500       0.49749046 </v>
   <v>       0.00578181       0.31561849       0.34759547 </v>
   <v>       0.26373029       0.50637874       0.81754071 </v>
   <v>       0.51604014       0.67841320       0.32041831 </v>
   <v>       0.53049989       0.66112930       0.66105218 </v>
   <v>       0.98023343       0.66300820       0.66681431 </v>
   <v>       0.99581028       0.99451800       0.33747259 </v>
   <v>       0.47475820       0.33292466       0.00049599 </v>
   <v>       0.76630733       0.49316760       0.16614756 </v>
   <v>       0.26759933       0.81899692       0.80748563 </v>
   <v>       0.74853079       0.49593629       0.83882222 </v>
   <v>       0.22474505       0.49629632       0.18715735 </v>
   <v>       0.97587262       0.68667820       0.33448198 </v>
   <v>       0.48132972       0.66656721       0.01848507 </v>
   <v>       0.51794184       0.01873206       0.66808574 </v>
   <v>       0.98650387       0.00755603       0.66554885 </v>
   <v>       0.74061359       0.82621747       0.84074414 </v>
   <v>       0.48040356       0.00632155       0.99888378 </v>
   <v>       0.75812458       0.16940020       0.49103221 </v>
   <v>       0.21784750       0.16958061       0.17226830 </v>
   <v>       0.75371108       0.18500556       0.84465473 </v>
   <v>       0.24798533       0.17734872       0.82875851 </v>
   <v>       0.02397701       0.33242029       0.98842974 </v>
   <v>       0.74185804       0.82939292       0.50310581 </v>
   <v>       0.24658903       0.83569160       0.18495481 </v>
   <v>       0.49604879       0.32180255       0.67551541 </v>
   <v>       0.48657875       0.31640614       0.32691819 </v>
   <v>       0.74125110       0.49540435       0.49489072 </v>
   <v>       0.02049127       0.99942613       0.99530462 </v>
   <v>       0.49789589       0.00026229       0.32764549 </v>
   <v>       0.25873130       0.83273895       0.50238528 </v>
   <v>       0.77070593       0.16489515       0.15984241 </v>
   <v>       0.02552987       0.67323796       0.00094608 </v>
   <v>       0.00487793       0.32791404       0.66687617 </v>
   <v>       0.25864458       0.50115296       0.50505118 </v>
  </varray>
 </structure>
</modeling>
