<?xml version="1.0" encoding="ISO-8859-1"?>
<modeling>
 <generator>
  <i name="program" type="string">vasp </i>
  <i name="version" type="string">5.4.1  </i>
  <i name="subversion" type="string">05Feb16 (build Jan 29 2020 16:04:39) complex                          parallel </i>
  <i name="platform" type="string">IFC91_ompi </i>
  <i name="date" type="string">2020 06 09 </i>
  <i name="time" type="string">03:23:38 </i>
 </generator>
 <incar>
  <i type="string" name="SYSTEM"> automatically generated by mexm</i>
  <i type="int" name="ISTART">     0</i>
  <i type="string" name="PREC">accurate               ! avoid wrap aro</i>
  <i type="string" name="ALGO"> Fast                   ! blocked Davids</i>
  <i type="int" name="ISPIN">     1</i>
  <i type="int" name="ICHARG">     2</i>
  <i type="int" name="NELM">    70</i>
  <i type="int" name="IBRION">     2</i>
  <i name="EDIFF">      0.00001000</i>
  <i name="EDIFFG">     -0.01000000</i>
  <i type="int" name="NSW">   300</i>
  <i type="int" name="ISIF">     3</i>
  <i type="int" name="ISYM">     1</i>
  <i name="ENCUT">    300.00000000</i>
  <i name="POTIM">      0.15000000</i>
  <i type="string" name="LREAL"> Auto                  ! unpublished met</i>
  <i type="int" name="ISMEAR">     1</i>
  <i name="SIGMA">      0.15000000</i>
  <i type="logical" name="LWAVE"> F  </i>
  <i type="logical" name="LCHARG"> F  </i>
  <i type="logical" name="LVTOT"> F  </i>
  <v type="int" name="KPOINT_BSE">    -1     0     0     0</v>
  <i type="int" name="NELM">    70</i>
 </incar>
 <kpoints>
  <generation param="Gamma">
   <v type="int" name="divisions">       3        3        3 </v>
   <v name="usershift">      0.00000000       0.00000000       0.00000000 </v>
   <v name="genvec1">      0.33333333      -0.00000000      -0.00000000 </v>
   <v name="genvec2">     -0.00000000       0.33333333       0.00000000 </v>
   <v name="genvec3">      0.00000000       0.00000000       0.33333333 </v>
   <v name="shift">      0.00000000       0.00000000       0.00000000 </v>
  </generation>
  <varray name="kpointlist" >
   <v>       0.00000000       0.00000000       0.00000000 </v>
   <v>       0.33333333      -0.00000000       0.00000000 </v>
   <v>      -0.00000000       0.33333333       0.00000000 </v>
   <v>       0.33333333       0.33333333       0.00000000 </v>
   <v>      -0.33333333       0.33333333      -0.00000000 </v>
   <v>      -0.00000000       0.00000000       0.33333333 </v>
   <v>       0.33333333      -0.00000000       0.33333333 </v>
   <v>      -0.33333333      -0.00000000       0.33333333 </v>
   <v>       0.00000000       0.33333333       0.33333333 </v>
   <v>       0.33333333       0.33333333       0.33333333 </v>
   <v>      -0.33333333       0.33333333       0.33333333 </v>
   <v>      -0.00000000      -0.33333333       0.33333333 </v>
   <v>       0.33333333      -0.33333333       0.33333333 </v>
   <v>      -0.33333333      -0.33333333       0.33333333 </v>
  </varray>
  <varray name="weights" >
   <v>       0.03703704 </v>
   <v>       0.07407407 </v>
   <v>       0.07407407 </v>
   <v>       0.07407407 </v>
   <v>       0.07407407 </v>
   <v>       0.07407407 </v>
   <v>       0.07407407 </v>
   <v>       0.07407407 </v>
   <v>       0.07407407 </v>
   <v>       0.07407407 </v>
   <v>       0.07407407 </v>
   <v>       0.07407407 </v>
   <v>       0.07407407 </v>
   <v>       0.07407407 </v>
  </varray>
 </kpoints>
 <parameters>
  <separator name="general" >
   <i type="string" name="SYSTEM">automatically generated by mexm</i>
   <i type="logical" name="LCOMPAT"> F  </i>
  </separator>
  <separator name="electronic" >
   <i type="string" name="PREC">accura</i>
   <i name="ENMAX">    300.00000000</i>
   <i name="ENAUG">    461.25700000</i>
   <i name="EDIFF">      0.00001000</i>
   <i type="int" name="IALGO">    68</i>
   <i type="int" name="IWAVPR">    11</i>
   <i type="int" name="NBANDS">   176</i>
   <i name="NELECT">    290.00000000</i>
   <i type="int" name="TURBO">     0</i>
   <i type="int" name="IRESTART">     0</i>
   <i type="int" name="NREBOOT">     0</i>
   <i type="int" name="NMIN">     0</i>
   <i name="EREF">      0.00000000</i>
   <separator name="electronic smearing" >
    <i type="int" name="ISMEAR">     1</i>
    <i name="SIGMA">      0.15000000</i>
    <i name="KSPACING">      0.50000000</i>
    <i type="logical" name="KGAMMA"> T  </i>
   </separator>
   <separator name="electronic projectors" >
    <i type="logical" name="LREAL"> T  </i>
    <v name="ROPT">     -0.00025000     -0.00025000     -0.00025000     -0.00025000</v>
    <i type="int" name="LMAXPAW">  -100</i>
    <i type="int" name="LMAXMIX">     2</i>
    <i type="logical" name="NLSPLINE"> F  </i>
   </separator>
   <separator name="electronic startup" >
    <i type="int" name="ISTART">     0</i>
    <i type="int" name="ICHARG">     2</i>
    <i type="int" name="INIWAV">     1</i>
   </separator>
   <separator name="electronic spin" >
    <i type="int" name="ISPIN">     1</i>
    <i type="logical" name="LNONCOLLINEAR"> F  </i>
    <v name="MAGMOM">      1.00000000      1.00000000      1.00000000      1.00000000      1.00000000      1.00000000      1.00000000      1.00000000      1.00000000      1.00000000      1.00000000      1.00000000      1.00000000      1.00000000      1.00000000      1.00000000      1.00000000      1.00000000      1.00000000      1.00000000
      1.00000000      1.00000000      1.00000000      1.00000000      1.00000000      1.00000000      1.00000000      1.00000000      1.00000000      1.00000000      1.00000000      1.00000000      1.00000000      1.00000000      1.00000000      1.00000000</v>
    <i name="NUPDOWN">     -1.00000000</i>
    <i type="logical" name="LSORBIT"> F  </i>
    <v name="SAXIS">      0.00000000      0.00000000      1.00000000</v>
    <i type="logical" name="LSPIRAL"> F  </i>
    <v name="QSPIRAL">      0.00000000      0.00000000      0.00000000</v>
    <i type="logical" name="LZEROZ"> F  </i>
   </separator>
   <separator name="electronic exchange-correlation" >
    <i type="logical" name="LASPH"> F  </i>
    <i type="logical" name="LMETAGGA"> F  </i>
   </separator>
   <separator name="electronic convergence" >
    <i type="int" name="NELM">    70</i>
    <i type="int" name="NELMDL">    -5</i>
    <i type="int" name="NELMIN">     2</i>
    <i name="ENINI">    300.00000000</i>
    <separator name="electronic convergence detail" >
     <i type="logical" name="LDIAG"> T  </i>
     <i type="logical" name="LSUBROT"> F  </i>
     <i name="WEIMIN">      0.00100000</i>
     <i name="EBREAK">      0.00000001</i>
     <i name="DEPER">      0.30000000</i>
     <i type="int" name="NRMM">     4</i>
     <i name="TIME">      0.40000000</i>
    </separator>
   </separator>
   <separator name="electronic mixer" >
    <i name="AMIX">      0.40000000</i>
    <i name="BMIX">      1.00000000</i>
    <i name="AMIN">      0.10000000</i>
    <i name="AMIX_MAG">      1.60000000</i>
    <i name="BMIX_MAG">      1.00000000</i>
    <separator name="electronic mixer details" >
     <i type="int" name="IMIX">     4</i>
     <i type="logical" name="MIXFIRST"> F  </i>
     <i type="int" name="MAXMIX">   -45</i>
     <i name="WC">    100.00000000</i>
     <i type="int" name="INIMIX">     1</i>
     <i type="int" name="MIXPRE">     1</i>
     <i type="int" name="MREMOVE">     5</i>
    </separator>
   </separator>
   <separator name="electronic dipolcorrection" >
    <i type="logical" name="LDIPOL"> F  </i>
    <i type="logical" name="LMONO"> F  </i>
    <i type="int" name="IDIPOL">     0</i>
    <i name="EPSILON">      1.00000000</i>
    <v name="DIPOL">   -100.00000000   -100.00000000   -100.00000000</v>
    <i name="EFIELD">      0.00000000</i>
   </separator>
  </separator>
  <separator name="grids" >
   <i type="int" name="NGX">    40</i>
   <i type="int" name="NGY">    60</i>
   <i type="int" name="NGZ">    60</i>
   <i type="int" name="NGXF">    80</i>
   <i type="int" name="NGYF">   120</i>
   <i type="int" name="NGZF">   120</i>
   <i type="logical" name="ADDGRID"> F  </i>
  </separator>
  <separator name="ionic" >
   <i type="int" name="NSW">   300</i>
   <i type="int" name="IBRION">     2</i>
   <i type="int" name="ISIF">     3</i>
   <i name="PSTRESS">      0.00000000</i>
   <i name="EDIFFG">     -0.01000000</i>
   <i type="int" name="NFREE">     1</i>
   <i name="POTIM">      0.15000000</i>
   <i name="SMASS">     -3.00000000</i>
   <i name="SCALEE">      1.00000000</i>
  </separator>
  <separator name="ionic md" >
   <i name="TEBEG">      0.00010000</i>
   <i name="TEEND">      0.00010000</i>
   <i type="int" name="NBLOCK">     1</i>
   <i type="int" name="KBLOCK">   300</i>
   <i type="int" name="NPACO">   256</i>
   <i name="APACO">     16.00000000</i>
  </separator>
  <separator name="symmetry" >
   <i type="int" name="ISYM">     1</i>
   <i name="SYMPREC">      0.00001000</i>
  </separator>
  <separator name="dos" >
   <i type="logical" name="LORBIT"> F  </i>
   <v name="RWIGS">     -1.00000000     -1.00000000     -1.00000000     -1.00000000</v>
   <i type="int" name="NEDOS">   301</i>
   <i name="EMIN">     10.00000000</i>
   <i name="EMAX">    -10.00000000</i>
   <i name="EFERMI">      0.00000000</i>
  </separator>
  <separator name="writing" >
   <i type="int" name="NWRITE">     2</i>
   <i type="logical" name="LWAVE"> F  </i>
   <i type="logical" name="LCHARG"> F  </i>
   <i type="logical" name="LPARD"> F  </i>
   <i type="logical" name="LVTOT"> F  </i>
   <i type="logical" name="LVHAR"> F  </i>
   <i type="logical" name="LELF"> F  </i>
   <i type="logical" name="LOPTICS"> F  </i>
   <v name="STM">      0.00000000      0.00000000      0.00000000      0.00000000      0.00000000      0.00000000      0.00000000</v>
  </separator>
  <separator name="performance" >
   <i type="int" name="NPAR">     4</i>
   <i type="int" name="NSIM">     4</i>
   <i type="int" name="NBLK">    -1</i>
   <i type="logical" name="LPLANE"> T  </i>
   <i type="logical" name="LSCALAPACK"> T  </i>
   <i type="logical" name="LSCAAWARE"> F  </i>
   <i type="logical" name="LSCALU"> F  </i>
   <i type="logical" name="LASYNC"> F  </i>
   <i type="logical" name="LORBITALREAL"> F  </i>
  </separator>
  <separator name="miscellaneous" >
   <i type="int" name="IDIOT">     3</i>
   <i type="logical" name="LMUSIC"> F  </i>
   <v name="POMASS">    178.49000000     91.22400000     92.91000000    180.94800000</v>
   <v name="DARWINR">      0.00000000      0.00000000      0.00000000      0.00000000</v>
   <v name="DARWINV">      1.00000000      1.00000000      1.00000000      1.00000000</v>
   <i type="logical" name="LCORR"> T  </i>
  </separator>
  <i type="logical" name="GGA_COMPAT"> T  </i>
  <i type="logical" name="LBERRY"> F  </i>
  <i type="int" name="ICORELEVEL">     0</i>
  <i type="logical" name="LDAU"> F  </i>
  <i type="int" name="I_CONSTRAINED_M">     0</i>
  <separator name="electronic exchange-correlation" >
   <i type="string" name="GGA">--</i>
   <i type="int" name="VOSKOWN">     0</i>
   <i type="logical" name="LHFCALC"> F  </i>
   <i type="string" name="PRECFOCK"></i>
   <i type="logical" name="LSYMGRAD"> F  </i>
   <i type="logical" name="LHFONE"> F  </i>
   <i type="logical" name="LRHFCALC"> F  </i>
   <i type="logical" name="LTHOMAS"> F  </i>
   <i type="logical" name="LMODELHF"> F  </i>
   <i name="ENCUT4O">     -1.00000000</i>
   <i type="int" name="EXXOEP">     0</i>
   <i type="int" name="FOURORBIT">     0</i>
   <i name="AEXX">      0.00000000</i>
   <i name="HFALPHA">      0.00000000</i>
   <i name="MCALPHA">      0.00000000</i>
   <i name="ALDAX">      1.00000000</i>
   <i name="AGGAX">      1.00000000</i>
   <i name="ALDAC">      1.00000000</i>
   <i name="AGGAC">      1.00000000</i>
   <i type="int" name="NKREDX">     1</i>
   <i type="int" name="NKREDY">     1</i>
   <i type="int" name="NKREDZ">     1</i>
   <i type="logical" name="SHIFTRED"> F  </i>
   <i type="logical" name="ODDONLY"> F  </i>
   <i type="logical" name="EVENONLY"> F  </i>
   <i type="int" name="LMAXFOCK">     0</i>
   <i type="int" name="NMAXFOCKAE">     0</i>
   <i type="logical" name="LFOCKAEDFT"> F  </i>
   <i name="HFSCREEN">      0.00000000</i>
   <i name="HFSCREENC">      0.00000000</i>
   <i type="int" name="NBANDSGWLOW">     0</i>
  </separator>
  <separator name="vdW DFT" >
   <i type="logical" name="LUSE_VDW"> F  </i>
   <i name="Zab_VDW">     -0.84910000</i>
   <i name="PARAM1">      0.12340000</i>
   <i name="PARAM2">      1.00000000</i>
   <i name="PARAM3">      0.00000000</i>
  </separator>
  <separator name="model GW" >
   <i type="int" name="MODEL_GW">     0</i>
   <i name="MODEL_EPS0">     12.10130199</i>
   <i name="MODEL_ALPHA">      1.00000000</i>
  </separator>
  <separator name="linear response parameters" >
   <i type="logical" name="LEPSILON"> F  </i>
   <i type="logical" name="LRPA"> F  </i>
   <i type="logical" name="LNABLA"> F  </i>
   <i type="logical" name="LVEL"> F  </i>
   <i type="int" name="KINTER">     0</i>
   <i name="CSHIFT">      0.10000000</i>
   <i name="OMEGAMAX">     -1.00000000</i>
   <i name="DEG_THRESHOLD">      0.00200000</i>
  </separator>
  <separator name="orbital magnetization" >
   <i type="logical" name="NUCIND"> F  </i>
   <v name="MAGPOS">      0.00000000      0.00000000      0.00000000</v>
   <i type="logical" name="LNICSALL"> T  </i>
   <i type="logical" name="ORBITALMAG"> F  </i>
   <i type="logical" name="LMAGBLOCH"> F  </i>
   <i type="logical" name="LCHIMAG"> F  </i>
   <i type="logical" name="LGAUGE"> T  </i>
   <i type="int" name="MAGATOM">     0</i>
   <v name="MAGDIPOL">      0.00000000      0.00000000      0.00000000</v>
   <v name="AVECCONST">      0.00000000      0.00000000      0.00000000</v>
  </separator>
  <separator name="response functions" >
   <i type="logical" name="LADDER"> F  </i>
   <i type="logical" name="LFXC"> F  </i>
   <i type="logical" name="LHARTREE"> T  </i>
   <i type="int" name="IBSE">     0</i>
   <v type="int" name="KPOINT">    -1     0     0     0</v>
   <i type="logical" name="LTCTE"> F  </i>
   <i type="logical" name="LTETE"> F  </i>
   <i type="logical" name="LTRIPLET"> F  </i>
   <i type="logical" name="LFXCEPS"> F  </i>
   <i type="logical" name="LFXHEG"> F  </i>
   <i type="int" name="NATURALO">     0</i>
   <i type="logical" name="L2ORDER"> F  </i>
   <i type="logical" name="LUSEW"> F  </i>
   <i name="ENCUTGW">     -2.00000000</i>
   <i name="ENCUTGWSOFT">     -2.00000000</i>
   <i name="ENCUTLF">     -1.00000000</i>
   <i type="int" name="LMAXMP2">    -1</i>
   <i name="SCISSOR">      0.00000000</i>
   <i type="int" name="NOMEGA">     0</i>
   <i type="int" name="NOMEGAR">     0</i>
   <i type="int" name="NBANDSGW">    -1</i>
   <i type="int" name="NBANDSO">    -1</i>
   <i type="int" name="NBANDSV">    -1</i>
   <i type="int" name="NELM">    70</i>
   <i type="int" name="NELMHF">     1</i>
   <i type="int" name="DIM">     3</i>
   <i type="int" name="ANTIRES">     0</i>
   <i name="OMEGAMAX">    -30.00000000</i>
   <i name="OMEGAMIN">    -30.00000000</i>
   <i name="OMEGATL">   -200.00000000</i>
   <i type="int" name="OMEGAGRID">     0</i>
   <i name="CSHIFT">     -0.10000000</i>
   <i type="logical" name="SELFENERGY"> F  </i>
   <i type="logical" name="LSPECTRAL"> F  </i>
   <i type="logical" name="LSPECTRALGW"> F  </i>
   <i type="logical" name="LSINGLES"> F  </i>
   <i type="logical" name="LFERMIGW"> F  </i>
   <i type="logical" name="ODDONLYGW"> F  </i>
   <i type="logical" name="EVENONLYGW"> F  </i>
   <i type="int" name="NKREDLFX">     1</i>
   <i type="int" name="NKREDLFY">     1</i>
   <i type="int" name="NKREDLFZ">     1</i>
   <i type="int" name="MAXMEM">  1800</i>
   <i type="int" name="TELESCOPE">     0</i>
   <i type="int" name="TAUPAR">     1</i>
   <i type="int" name="OMEGAPAR">    -1</i>
   <i name="LAMBDA">      1.00000000</i>
  </separator>
  <separator name="External order field" >
   <i name="OFIELD_KAPPA">      0.00000000</i>
   <v name="OFIELD_K">      0.00000000      0.00000000      0.00000000</v>
   <i name="OFIELD_Q6_NEAR">      0.00000000</i>
   <i name="OFIELD_Q6_FAR">      0.00000000</i>
   <i name="OFIELD_A">      0.00000000</i>
  </separator>
 </parameters>
 <atominfo>
  <atoms>      36 </atoms>
  <types>       4 </types>
  <array name="atoms" >
   <dimension dim="1">ion</dimension>
   <field type="string">element</field>
   <field type="int">atomtype</field>
   <set>
    <rc><c>Hf</c><c>   1</c></rc>
    <rc><c>Hf</c><c>   1</c></rc>
    <rc><c>Hf</c><c>   1</c></rc>
    <rc><c>Hf</c><c>   1</c></rc>
    <rc><c>Hf</c><c>   1</c></rc>
    <rc><c>Hf</c><c>   1</c></rc>
    <rc><c>Hf</c><c>   1</c></rc>
    <rc><c>Hf</c><c>   1</c></rc>
    <rc><c>Hf</c><c>   1</c></rc>
    <rc><c>Hf</c><c>   1</c></rc>
    <rc><c>Zr</c><c>   2</c></rc>
    <rc><c>Zr</c><c>   2</c></rc>
    <rc><c>Zr</c><c>   2</c></rc>
    <rc><c>Zr</c><c>   2</c></rc>
    <rc><c>Zr</c><c>   2</c></rc>
    <rc><c>Zr</c><c>   2</c></rc>
    <rc><c>Zr</c><c>   2</c></rc>
    <rc><c>Zr</c><c>   2</c></rc>
    <rc><c>Nb</c><c>   3</c></rc>
    <rc><c>Nb</c><c>   3</c></rc>
    <rc><c>Nb</c><c>   3</c></rc>
    <rc><c>Nb</c><c>   3</c></rc>
    <rc><c>Nb</c><c>   3</c></rc>
    <rc><c>Nb</c><c>   3</c></rc>
    <rc><c>Nb</c><c>   3</c></rc>
    <rc><c>Nb</c><c>   3</c></rc>
    <rc><c>Ta</c><c>   4</c></rc>
    <rc><c>Ta</c><c>   4</c></rc>
    <rc><c>Ta</c><c>   4</c></rc>
    <rc><c>Ta</c><c>   4</c></rc>
    <rc><c>Ta</c><c>   4</c></rc>
    <rc><c>Ta</c><c>   4</c></rc>
    <rc><c>Ta</c><c>   4</c></rc>
    <rc><c>Ta</c><c>   4</c></rc>
    <rc><c>Ta</c><c>   4</c></rc>
    <rc><c>Ta</c><c>   4</c></rc>
   </set>
  </array>
  <array name="atomtypes" >
   <dimension dim="1">type</dimension>
   <field type="int">atomspertype</field>
   <field type="string">element</field>
   <field>mass</field>
   <field>valence</field>
   <field type="string">pseudopotential</field>
   <set>
    <rc><c>  10</c><c>Hf</c><c>    178.49000000</c><c>      4.00000000</c><c>  PAW_PBE Hf 20Jan2003                  </c></rc>
    <rc><c>   8</c><c>Zr</c><c>     91.22400000</c><c>     12.00000000</c><c>  PAW_PBE Zr_sv 04Jan2005               </c></rc>
    <rc><c>   8</c><c>Nb</c><c>     92.91000000</c><c>     13.00000000</c><c>  PAW_PBE Nb_sv 25May2007               </c></rc>
    <rc><c>  10</c><c>Ta</c><c>    180.94800000</c><c>      5.00000000</c><c>  PAW_PBE Ta 17Jan2003                  </c></rc>
   </set>
  </array>
 </atominfo>
 <structure name="initialpos" >
  <crystal>
   <varray name="basis" >
    <v>       6.86608946       0.00529759      -0.00029431 </v>
    <v>       0.00815589      10.28024346       0.02971037 </v>
    <v>      -0.00019454       0.02919159      10.28665843 </v>
   </varray>
   <i name="volume">    726.07811910 </i>
   <varray name="rec_basis" >
    <v>       0.14564340      -0.00011556       0.00000308 </v>
    <v>      -0.00007506       0.09727482      -0.00027605 </v>
    <v>       0.00000438      -0.00028096       0.09721410 </v>
   </varray>
  </crystal>
  <varray name="positions" >
   <v>       0.25655800       0.16854900       0.82115800 </v>
   <v>       0.24494300       0.49980000       0.16606000 </v>
   <v>       0.23212500       0.81545900       0.14374200 </v>
   <v>       0.01022000       0.67708100       0.35248400 </v>
   <v>       0.50949200       0.00879300       0.01043100 </v>
   <v>       0.74596100       0.16797800       0.50672800 </v>
   <v>       0.50874700       0.32546800       0.00201500 </v>
   <v>       0.74247000       0.48776800       0.49893200 </v>
   <v>       0.49533100       0.68443600       0.34604900 </v>
   <v>       0.48903700       0.66584700       0.66300100 </v>
   <v>       0.98502300       0.01192800       0.00624700 </v>
   <v>       0.99922800       0.99890300       0.33007000 </v>
   <v>       0.98777600       0.32483200       0.99859600 </v>
   <v>       0.01400400       0.66377000       0.65960800 </v>
   <v>       0.50141800       0.99778800       0.32672900 </v>
   <v>       0.75340200       0.50614400       0.17452200 </v>
   <v>       0.50037500       0.65716600       0.97920300 </v>
   <v>       0.75529300       0.83451600       0.82819500 </v>
   <v>       0.00398400       0.00037500       0.66968600 </v>
   <v>       0.26142400       0.48329900       0.49631300 </v>
   <v>       0.99648800       0.65575100       0.98038200 </v>
   <v>       0.75213500       0.18277300       0.19347900 </v>
   <v>       0.49841000       0.99589000       0.66926500 </v>
   <v>       0.74170400       0.16720500       0.81314100 </v>
   <v>       0.49372300       0.34021000       0.66861700 </v>
   <v>       0.76625900       0.81173900       0.15460800 </v>
   <v>       0.24583700       0.18272500       0.18040500 </v>
   <v>       0.25348800       0.16530800       0.50635000 </v>
   <v>       0.01636100       0.32730200       0.34084800 </v>
   <v>       0.00632100       0.33751200       0.66572800 </v>
   <v>       0.23914300       0.48278900       0.82972600 </v>
   <v>       0.25110600       0.86085600       0.51485600 </v>
   <v>       0.48324100       0.32499100       0.33272800 </v>
   <v>       0.76123300       0.49239800       0.81671500 </v>
   <v>       0.75226900       0.85088300       0.51928000 </v>
   <v>       0.24546800       0.84177100       0.83409900 </v>
  </varray>
 </structure>
 <calculation>
  <scstep>
   <time name="dav">    1.08    1.09</time>
   <time name="total">    1.14    1.69</time>
   <energy>
    <i name="alphaZ">   1492.78567689 </i>
    <i name="ewald"> -19160.35222084 </i>
    <i name="hartreedc">  -6516.43473978 </i>
    <i name="XCdc">   -343.45479239 </i>
    <i name="pawpsdc">  21031.16906910 </i>
    <i name="pawaedc"> -19399.79777262 </i>
    <i name="eentropy">     -0.00271229 </i>
    <i name="bandstr">   -105.47070061 </i>
    <i name="atom">  24779.72038929 </i>
    <i name="e_fr_energy">   1778.16219675 </i>
    <i name="e_wo_entrp">   1778.16490904 </i>
    <i name="e_0_energy">   1778.16310085 </i>
   </energy>
  </scstep>
  <scstep>
   <time name="dav">    0.98    0.99</time>
   <time name="total">    0.98    1.20</time>
   <energy>
    <i name="e_fr_energy">   -102.33163482 </i>
    <i name="e_wo_entrp">   -102.33241088 </i>
    <i name="e_0_energy">   -102.33189351 </i>
   </energy>
  </scstep>
  <scstep>
   <time name="dav">    1.41    1.42</time>
   <time name="total">    1.41    1.47</time>
   <energy>
    <i name="e_fr_energy">   -347.86820175 </i>
    <i name="e_wo_entrp">   -347.86361063 </i>
    <i name="e_0_energy">   -347.86667138 </i>
   </energy>
  </scstep>
  <scstep>
   <time name="dav">    1.36    1.37</time>
   <time name="total">    1.36    1.43</time>
   <energy>
    <i name="e_fr_energy">   -376.77566738 </i>
    <i name="e_wo_entrp">   -376.78579705 </i>
    <i name="e_0_energy">   -376.77904394 </i>
   </energy>
  </scstep>
  <scstep>
   <time name="dav">    1.29    1.30</time>
   <time name="total">    1.32    1.38</time>
   <energy>
    <i name="e_fr_energy">   -379.62842486 </i>
    <i name="e_wo_entrp">   -379.64204807 </i>
    <i name="e_0_energy">   -379.63296593 </i>
   </energy>
  </scstep>
  <scstep>
   <time name="diag">    0.08    0.08</time>
   <time name="diis">    0.79    0.80</time>
   <time name="orth">    0.01    0.01</time>
   <time name="total">    0.98    1.07</time>
   <energy>
    <i name="e_fr_energy">   -369.53405744 </i>
    <i name="e_wo_entrp">   -369.54948378 </i>
    <i name="e_0_energy">   -369.53919955 </i>
   </energy>
  </scstep>
  <scstep>
   <time name="diag">    0.15    0.15</time>
   <time name="diis">    0.84    0.85</time>
   <time name="orth">    0.01    0.01</time>
   <time name="total">    1.08    1.21</time>
   <energy>
    <i name="e_fr_energy">   -372.71727262 </i>
    <i name="e_wo_entrp">   -372.72013552 </i>
    <i name="e_0_energy">   -372.71822692 </i>
   </energy>
  </scstep>
  <scstep>
   <time name="diag">    0.08    0.09</time>
   <time name="diis">    0.86    0.87</time>
   <time name="orth">    0.01    0.01</time>
   <time name="total">    1.02    1.12</time>
   <energy>
    <i name="e_fr_energy">   -365.14855695 </i>
    <i name="e_wo_entrp">   -365.15272357 </i>
    <i name="e_0_energy">   -365.14994582 </i>
   </energy>
  </scstep>
  <scstep>
   <time name="diag">    0.08    0.08</time>
   <time name="diis">    0.84    0.85</time>
   <time name="orth">    0.01    0.01</time>
   <time name="total">    1.00    1.05</time>
   <energy>
    <i name="e_fr_energy">   -364.75296634 </i>
    <i name="e_wo_entrp">   -364.75925155 </i>
    <i name="e_0_energy">   -364.75506141 </i>
   </energy>
  </scstep>
  <scstep>
   <time name="diag">    0.08    0.08</time>
   <time name="diis">    0.77    0.78</time>
   <time name="orth">    0.01    0.01</time>
   <time name="total">    0.92    0.99</time>
   <energy>
    <i name="e_fr_energy">   -364.71949619 </i>
    <i name="e_wo_entrp">   -364.72441612 </i>
    <i name="e_0_energy">   -364.72113616 </i>
   </energy>
  </scstep>
  <scstep>
   <time name="diag">    0.08    0.08</time>
   <time name="diis">    0.76    0.77</time>
   <time name="orth">    0.01    0.01</time>
   <time name="total">    0.92    0.98</time>
   <energy>
    <i name="e_fr_energy">   -364.68965095 </i>
    <i name="e_wo_entrp">   -364.69602061 </i>
    <i name="e_0_energy">   -364.69177417 </i>
   </energy>
  </scstep>
  <scstep>
   <time name="diag">    0.07    0.08</time>
   <time name="diis">    0.79    0.87</time>
   <time name="orth">    0.01    0.03</time>
   <time name="total">    0.94    1.09</time>
   <energy>
    <i name="e_fr_energy">   -364.68250608 </i>
    <i name="e_wo_entrp">   -364.68754937 </i>
    <i name="e_0_energy">   -364.68418718 </i>
   </energy>
  </scstep>
  <scstep>
   <time name="diag">    0.08    0.08</time>
   <time name="diis">    0.78    0.79</time>
   <time name="orth">    0.01    0.01</time>
   <time name="total">    0.94    1.00</time>
   <energy>
    <i name="e_fr_energy">   -364.68027408 </i>
    <i name="e_wo_entrp">   -364.68530188 </i>
    <i name="e_0_energy">   -364.68195002 </i>
   </energy>
  </scstep>
  <scstep>
   <time name="diag">    0.08    0.08</time>
   <time name="diis">    0.81    0.82</time>
   <time name="orth">    0.01    0.01</time>
   <time name="total">    0.99    1.05</time>
   <energy>
    <i name="e_fr_energy">   -364.68046912 </i>
    <i name="e_wo_entrp">   -364.68580227 </i>
    <i name="e_0_energy">   -364.68224684 </i>
   </energy>
  </scstep>
  <scstep>
   <time name="diag">    0.07    0.07</time>
   <time name="diis">    0.77    0.78</time>
   <time name="orth">    0.01    0.01</time>
   <time name="total">    0.92    0.98</time>
   <energy>
    <i name="e_fr_energy">   -364.68054030 </i>
    <i name="e_wo_entrp">   -364.68564997 </i>
    <i name="e_0_energy">   -364.68224352 </i>
   </energy>
  </scstep>
  <scstep>
   <time name="diag">    0.08    0.08</time>
   <time name="diis">    0.77    0.78</time>
   <time name="orth">    0.01    0.01</time>
   <time name="total">    0.92    0.98</time>
   <energy>
    <i name="e_fr_energy">   -364.68058976 </i>
    <i name="e_wo_entrp">   -364.68577039 </i>
    <i name="e_0_energy">   -364.68231663 </i>
   </energy>
  </scstep>
  <scstep>
   <time name="diag">    0.07    0.07</time>
   <time name="diis">    0.64    0.65</time>
   <time name="orth">    0.01    0.01</time>
   <time name="total">    0.80    0.86</time>
   <energy>
    <i name="e_fr_energy">   -364.68060564 </i>
    <i name="e_wo_entrp">   -364.68581347 </i>
    <i name="e_0_energy">   -364.68234159 </i>
   </energy>
  </scstep>
  <scstep>
   <time name="diag">    0.07    0.08</time>
   <time name="diis">    0.70    0.71</time>
   <time name="orth">    0.01    0.01</time>
   <time name="total">    0.85    0.91</time>
   <energy>
    <i name="e_fr_energy">   -364.68061947 </i>
    <i name="e_wo_entrp">   -364.68580161 </i>
    <i name="e_0_energy">   -364.68234685 </i>
   </energy>
  </scstep>
  <scstep>
   <time name="diag">    0.08    0.08</time>
   <time name="diis">    0.52    0.53</time>
   <time name="orth">    0.01    0.01</time>
   <time name="total">    0.85    0.91</time>
   <energy>
    <i name="e_fr_energy">   -364.68062355 </i>
    <i name="e_wo_entrp">   -364.68581848 </i>
    <i name="e_0_energy">   -364.68235520 </i>
   </energy>
  </scstep>
  <scstep>
   <time name="diag">    0.07    0.07</time>
   <time name="diis">    0.43    0.44</time>
   <time name="orth">    0.01    0.01</time>
   <time name="total">    0.55    0.62</time>
   <energy>
    <i name="alphaZ">   1492.78567689 </i>
    <i name="ewald"> -19160.35222084 </i>
    <i name="hartreedc">  -6290.62963612 </i>
    <i name="XCdc">   -342.50100806 </i>
    <i name="pawpsdc">  33487.88279348 </i>
    <i name="pawaedc"> -31838.93028412 </i>
    <i name="eentropy">      0.00519855 </i>
    <i name="bandstr">  -2492.66153292 </i>
    <i name="atom">  24779.72038929 </i>
    <i name="e_fr_energy">   -364.68062384 </i>
    <i name="e_wo_entrp">   -364.68582240 </i>
    <i name="e_0_energy">   -364.68235669 </i>
   </energy>
  </scstep>
  <structure>
   <crystal>
    <varray name="basis" >
     <v>       6.86608946       0.00529759      -0.00029431 </v>
     <v>       0.00815589      10.28024346       0.02971037 </v>
     <v>      -0.00019454       0.02919159      10.28665843 </v>
    </varray>
    <i name="volume">    726.07811910 </i>
    <varray name="rec_basis" >
     <v>       0.14564340      -0.00011556       0.00000308 </v>
     <v>      -0.00007506       0.09727482      -0.00027605 </v>
     <v>       0.00000438      -0.00028096       0.09721410 </v>
    </varray>
   </crystal>
   <varray name="positions" >
    <v>       0.25655800       0.16854900       0.82115800 </v>
    <v>       0.24494300       0.49980000       0.16606000 </v>
    <v>       0.23212500       0.81545900       0.14374200 </v>
    <v>       0.01022000       0.67708100       0.35248400 </v>
    <v>       0.50949200       0.00879300       0.01043100 </v>
    <v>       0.74596100       0.16797800       0.50672800 </v>
    <v>       0.50874700       0.32546800       0.00201500 </v>
    <v>       0.74247000       0.48776800       0.49893200 </v>
    <v>       0.49533100       0.68443600       0.34604900 </v>
    <v>       0.48903700       0.66584700       0.66300100 </v>
    <v>       0.98502300       0.01192800       0.00624700 </v>
    <v>       0.99922800       0.99890300       0.33007000 </v>
    <v>       0.98777600       0.32483200       0.99859600 </v>
    <v>       0.01400400       0.66377000       0.65960800 </v>
    <v>       0.50141800       0.99778800       0.32672900 </v>
    <v>       0.75340200       0.50614400       0.17452200 </v>
    <v>       0.50037500       0.65716600       0.97920300 </v>
    <v>       0.75529300       0.83451600       0.82819500 </v>
    <v>       0.00398400       0.00037500       0.66968600 </v>
    <v>       0.26142400       0.48329900       0.49631300 </v>
    <v>       0.99648800       0.65575100       0.98038200 </v>
    <v>       0.75213500       0.18277300       0.19347900 </v>
    <v>       0.49841000       0.99589000       0.66926500 </v>
    <v>       0.74170400       0.16720500       0.81314100 </v>
    <v>       0.49372300       0.34021000       0.66861700 </v>
    <v>       0.76625900       0.81173900       0.15460800 </v>
    <v>       0.24583700       0.18272500       0.18040500 </v>
    <v>       0.25348800       0.16530800       0.50635000 </v>
    <v>       0.01636100       0.32730200       0.34084800 </v>
    <v>       0.00632100       0.33751200       0.66572800 </v>
    <v>       0.23914300       0.48278900       0.82972600 </v>
    <v>       0.25110600       0.86085600       0.51485600 </v>
    <v>       0.48324100       0.32499100       0.33272800 </v>
    <v>       0.76123300       0.49239800       0.81671500 </v>
    <v>       0.75226900       0.85088300       0.51928000 </v>
    <v>       0.24546800       0.84177100       0.83409900 </v>
   </varray>
  </structure>
  <varray name="forces" >
   <v>      -0.00469711      -0.11110355       0.00880211 </v>
   <v>      -0.00307846      -0.02427548       0.02335109 </v>
   <v>       0.01719951       0.01736059      -0.11967738 </v>
   <v>      -0.00957888       0.00564045      -0.00531538 </v>
   <v>      -0.01916872      -0.02590113      -0.01382918 </v>
   <v>       0.00624684      -0.01394498      -0.00816004 </v>
   <v>       0.00273593       0.00364312      -0.01559369 </v>
   <v>       0.00468226      -0.00174436      -0.00806370 </v>
   <v>       0.00134877      -0.00427676       0.00814539 </v>
   <v>      -0.00665982       0.01009761       0.00611219 </v>
   <v>       0.00987243      -0.01360920       0.00258141 </v>
   <v>      -0.00732540      -0.00581515      -0.00066707 </v>
   <v>      -0.00482015       0.00054668      -0.00657393 </v>
   <v>       0.00446591       0.00040889      -0.00926604 </v>
   <v>       0.00289265      -0.00251449       0.00215442 </v>
   <v>      -0.00250523      -0.00462479       0.00134188 </v>
   <v>       0.02438016      -0.03305650       0.01032600 </v>
   <v>       0.01843039      -0.00905503      -0.00167389 </v>
   <v>      -0.03449017       0.01422804       0.00067221 </v>
   <v>       0.00109769      -0.00095262      -0.00714735 </v>
   <v>       0.01003575       0.02774357      -0.00311477 </v>
   <v>       0.00188821       0.02637297       0.01201107 </v>
   <v>       0.01122971      -0.00031216       0.00705815 </v>
   <v>       0.00490655       0.01989532      -0.00173795 </v>
   <v>      -0.00493597       0.00102124       0.00773503 </v>
   <v>      -0.01171547       0.00060352       0.02044076 </v>
   <v>       0.00207365       0.01424338       0.00360130 </v>
   <v>      -0.00090996       0.00822084      -0.02594277 </v>
   <v>       0.01697909      -0.00032745      -0.00373472 </v>
   <v>       0.00543912       0.00461974       0.01037143 </v>
   <v>      -0.00085234       0.02757233       0.00533172 </v>
   <v>       0.00029622       0.01204094       0.10734229 </v>
   <v>      -0.00926027      -0.00624109       0.00614771 </v>
   <v>       0.00811932      -0.02807610      -0.01026894 </v>
   <v>      -0.00012873       0.01508097      -0.03263532 </v>
   <v>      -0.03419349       0.07649064       0.02987595 </v>
  </varray>
  <varray name="stress" >
   <v>      -0.01338965      -0.31488682      -0.03150030 </v>
   <v>      -0.31488681      -0.16888163      -0.14868002 </v>
   <v>      -0.03150029      -0.14867996      -0.49995552 </v>
  </varray>
  <energy>
   <i name="e_fr_energy">   -364.68062384 </i>
   <i name="e_wo_entrp">   -364.68235669 </i>
   <i name="e_0_energy">      0.00519855 </i>
  </energy>
  <time name="totalsc">   21.46   23.77</time>
 </calculation>
 <calculation>
  <scstep>
   <time name="dav">    1.06    1.06</time>
   <time name="total">    1.13    1.44</time>
   <energy>
    <i name="alphaZ">   1492.97124626 </i>
    <i name="ewald"> -19161.02211377 </i>
    <i name="hartreedc">  -6291.00392819 </i>
    <i name="XCdc">   -342.46553663 </i>
    <i name="pawpsdc">  33487.98203263 </i>
    <i name="pawaedc"> -31839.02803936 </i>
    <i name="eentropy">      0.00515757 </i>
    <i name="bandstr">  -2491.84071228 </i>
    <i name="atom">  24779.72038929 </i>
    <i name="e_fr_energy">   -364.68150448 </i>
    <i name="e_wo_entrp">   -364.68666205 </i>
    <i name="e_0_energy">   -364.68322367 </i>
   </energy>
  </scstep>
  <scstep>
   <time name="diag">    0.08    0.08</time>
   <time name="diis">    0.77    0.77</time>
   <time name="orth">    0.01    0.01</time>
   <time name="total">    0.92    0.97</time>
   <energy>
    <i name="e_fr_energy">   -364.68153043 </i>
    <i name="e_wo_entrp">   -364.68673001 </i>
    <i name="e_0_energy">   -364.68326362 </i>
   </energy>
  </scstep>
  <scstep>
   <time name="diag">    0.08    0.08</time>
   <time name="diis">    0.69    0.70</time>
   <time name="orth">    0.01    0.01</time>
   <time name="total">    0.85    0.92</time>
   <energy>
    <i name="e_fr_energy">   -364.68152240 </i>
    <i name="e_wo_entrp">   -364.68667631 </i>
    <i name="e_0_energy">   -364.68324037 </i>
   </energy>
  </scstep>
  <scstep>
   <time name="diag">    0.07    0.08</time>
   <time name="diis">    0.43    0.44</time>
   <time name="orth">    0.01    0.01</time>
   <time name="total">    0.55    0.61</time>
   <energy>
    <i name="alphaZ">   1492.97124626 </i>
    <i name="ewald"> -19161.02211377 </i>
    <i name="hartreedc">  -6290.53869635 </i>
    <i name="XCdc">   -342.48577995 </i>
    <i name="pawpsdc">  33493.47324414 </i>
    <i name="pawaedc"> -31844.52020088 </i>
    <i name="eentropy">      0.00517956 </i>
    <i name="bandstr">  -2492.28478807 </i>
    <i name="atom">  24779.72038929 </i>
    <i name="e_fr_energy">   -364.68151979 </i>
    <i name="e_wo_entrp">   -364.68669935 </i>
    <i name="e_0_energy">   -364.68324631 </i>
   </energy>
  </scstep>
  <structure>
   <crystal>
    <varray name="basis" >
     <v>       6.86607241       0.00490353      -0.00033383 </v>
     <v>       0.00756593      10.27992589       0.02942915 </v>
     <v>      -0.00025525       0.02891206      10.28572067 </v>
    </varray>
    <i name="volume">    725.98787098 </i>
    <varray name="rec_basis" >
     <v>       0.14564375      -0.00010720       0.00000392 </v>
     <v>      -0.00006949       0.09727780      -0.00027344 </v>
     <v>       0.00000493      -0.00027833       0.09722294 </v>
    </varray>
   </crystal>
   <varray name="positions" >
    <v>       0.25654829       0.16839255       0.82117084 </v>
    <v>       0.24493655       0.49976573       0.16609295 </v>
    <v>       0.23216122       0.81548390       0.14357355 </v>
    <v>       0.01019980       0.67708897       0.35247650 </v>
    <v>       0.50945164       0.00875661       0.01041165 </v>
    <v>       0.74597419       0.16795839       0.50671658 </v>
    <v>       0.50875276       0.32547319       0.00199305 </v>
    <v>       0.74247987       0.48776557       0.49892066 </v>
    <v>       0.49533385       0.68442995       0.34606048 </v>
    <v>       0.48902295       0.66586120       0.66300956 </v>
    <v>       0.98504383       0.01190882       0.00625069 </v>
    <v>       0.99921257       0.99889482       0.33006908 </v>
    <v>       0.98776584       0.32483280       0.99858675 </v>
    <v>       0.01401341       0.66377061       0.65959496 </v>
    <v>       0.50142410       0.99778445       0.32673204 </v>
    <v>       0.75339673       0.50613749       0.17452391 </v>
    <v>       0.50042645       0.65711939       0.97921766 </v>
    <v>       0.75533186       0.83450324       0.82819268 </v>
    <v>       0.00391128       0.00039507       0.66968689 </v>
    <v>       0.26142632       0.48329769       0.49630295 </v>
    <v>       0.99650911       0.65579006       0.98037751 </v>
    <v>       0.75213894       0.18281008       0.19349579 </v>
    <v>       0.49843367       0.99588952       0.66927493 </v>
    <v>       0.74171431       0.16723301       0.81313847 </v>
    <v>       0.49371259       0.34021141       0.66862788 </v>
    <v>       0.76623431       0.81173978       0.15463676 </v>
    <v>       0.24584135       0.18274504       0.18041001 </v>
    <v>       0.25348607       0.16531968       0.50631347 </v>
    <v>       0.01639679       0.32730154       0.34084275 </v>
    <v>       0.00633246       0.33751846       0.66574257 </v>
    <v>       0.23914116       0.48282780       0.82973339 </v>
    <v>       0.25110661       0.86087252       0.51500698 </v>
    <v>       0.48322149       0.32498220       0.33273667 </v>
    <v>       0.76125016       0.49235851       0.81670067 </v>
    <v>       0.75226870       0.85090436       0.51923402 </v>
    <v>       0.24539580       0.84187860       0.83414072 </v>
   </varray>
  </structure>
  <varray name="forces" >
   <v>      -0.00578686      -0.10095969       0.00836927 </v>
   <v>      -0.00246902      -0.02263713       0.02073281 </v>
   <v>       0.01789848       0.01553804      -0.10700747 </v>
   <v>      -0.00551118       0.00764897      -0.00743733 </v>
   <v>      -0.01471190      -0.02167633      -0.01152132 </v>
   <v>       0.00547987      -0.01107151      -0.00858324 </v>
   <v>       0.00137128       0.00319543      -0.01441082 </v>
   <v>       0.00410172      -0.00062729      -0.00727048 </v>
   <v>      -0.00200934      -0.00270824       0.00675659 </v>
   <v>      -0.00460241       0.00887039       0.00602190 </v>
   <v>       0.00662263      -0.01085476       0.00314554 </v>
   <v>      -0.00477148      -0.00608016      -0.00159351 </v>
   <v>      -0.00375934      -0.00017380      -0.00578381 </v>
   <v>       0.00265660       0.00054463      -0.00812935 </v>
   <v>       0.00092048      -0.00262981       0.00138361 </v>
   <v>      -0.00188740      -0.00455734       0.00138556 </v>
   <v>       0.02358246      -0.03049031       0.01000418 </v>
   <v>       0.01779927      -0.00945544      -0.00041665 </v>
   <v>      -0.03241748       0.01500375       0.00249627 </v>
   <v>       0.00013642       0.00204155      -0.00604758 </v>
   <v>       0.00656722       0.02443421      -0.00300276 </v>
   <v>       0.00169669       0.02230764       0.00818956 </v>
   <v>       0.01271066       0.00165691       0.00934007 </v>
   <v>       0.00358844       0.01824243      -0.00189314 </v>
   <v>      -0.00503668      -0.00165427       0.00676257 </v>
   <v>      -0.01188593      -0.00090267       0.01932292 </v>
   <v>       0.00141752       0.01058506       0.00211009 </v>
   <v>      -0.00066302       0.00758392      -0.02319436 </v>
   <v>       0.01327871       0.00051871      -0.00304513 </v>
   <v>       0.00730646       0.00265793       0.01009475 </v>
   <v>      -0.00071126       0.02462436       0.00580726 </v>
   <v>      -0.00098280       0.00970418       0.09505378 </v>
   <v>      -0.00625309      -0.00499913       0.00685955 </v>
   <v>       0.00704610      -0.02447299      -0.00979826 </v>
   <v>      -0.00106596       0.01277549      -0.03080935 </v>
   <v>      -0.02965584       0.06801727       0.02610825 </v>
  </varray>
  <varray name="stress" >
   <v>       0.09570025      -0.31163858      -0.01616077 </v>
   <v>      -0.31163858      -0.05883350      -0.13365150 </v>
   <v>      -0.01616081      -0.13365155      -0.41341330 </v>
  </varray>
  <energy>
   <i name="e_fr_energy">   -364.68151979 </i>
   <i name="e_wo_entrp">   -364.68324631 </i>
   <i name="e_0_energy">      0.00517956 </i>
  </energy>
  <time name="totalsc">    5.07    5.84</time>
 </calculation>
 <calculation>
  <scstep>
   <time name="dav">    1.04    1.04</time>
   <time name="total">    1.14    1.34</time>
   <energy>
    <i name="alphaZ">   1493.52824843 </i>
    <i name="ewald"> -19163.02380011 </i>
    <i name="hartreedc">  -6291.62064181 </i>
    <i name="XCdc">   -342.37957877 </i>
    <i name="pawpsdc">  33493.71841078 </i>
    <i name="pawaedc"> -31844.76659523 </i>
    <i name="eentropy">      0.00503193 </i>
    <i name="bandstr">  -2489.86496765 </i>
    <i name="atom">  24779.72038929 </i>
    <i name="e_fr_energy">   -364.68350314 </i>
    <i name="e_wo_entrp">   -364.68853507 </i>
    <i name="e_0_energy">   -364.68518045 </i>
   </energy>
  </scstep>
  <scstep>
   <time name="diag">    0.11    0.11</time>
   <time name="diis">    0.76    0.77</time>
   <time name="orth">    0.01    0.01</time>
   <time name="total">    0.95    1.01</time>
   <energy>
    <i name="e_fr_energy">   -364.68371088 </i>
    <i name="e_wo_entrp">   -364.68887289 </i>
    <i name="e_0_energy">   -364.68543155 </i>
   </energy>
  </scstep>
  <scstep>
   <time name="diag">    0.08    0.08</time>
   <time name="diis">    0.76    0.77</time>
   <time name="orth">    0.01    0.01</time>
   <time name="total">    0.91    0.98</time>
   <energy>
    <i name="e_fr_energy">   -364.68364523 </i>
    <i name="e_wo_entrp">   -364.68866575 </i>
    <i name="e_0_energy">   -364.68531874 </i>
   </energy>
  </scstep>
  <scstep>
   <time name="diag">    0.08    0.08</time>
   <time name="diis">    0.82    0.83</time>
   <time name="orth">    0.01    0.01</time>
   <time name="total">    0.98    1.04</time>
   <energy>
    <i name="e_fr_energy">   -364.68361628 </i>
    <i name="e_wo_entrp">   -364.68871123 </i>
    <i name="e_0_energy">   -364.68531460 </i>
   </energy>
  </scstep>
  <scstep>
   <time name="diag">    0.08    0.08</time>
   <time name="diis">    0.68    0.69</time>
   <time name="orth">    0.01    0.01</time>
   <time name="total">    0.84    0.89</time>
   <energy>
    <i name="e_fr_energy">   -364.68360803 </i>
    <i name="e_wo_entrp">   -364.68867936 </i>
    <i name="e_0_energy">   -364.68529847 </i>
   </energy>
  </scstep>
  <scstep>
   <time name="diag">    0.07    0.07</time>
   <time name="diis">    0.46    0.47</time>
   <time name="orth">    0.01    0.01</time>
   <time name="total">    0.59    0.63</time>
   <energy>
    <i name="alphaZ">   1493.52824843 </i>
    <i name="ewald"> -19163.02380011 </i>
    <i name="hartreedc">  -6290.14721884 </i>
    <i name="XCdc">   -342.44209560 </i>
    <i name="pawpsdc">  33510.83394137 </i>
    <i name="pawaedc"> -31861.89916889 </i>
    <i name="eentropy">      0.00506819 </i>
    <i name="bandstr">  -2491.25897196 </i>
    <i name="atom">  24779.72038929 </i>
    <i name="e_fr_energy">   -364.68360812 </i>
    <i name="e_wo_entrp">   -364.68867631 </i>
    <i name="e_0_energy">   -364.68529752 </i>
   </energy>
  </scstep>
  <structure>
   <crystal>
    <varray name="basis" >
     <v>       6.86602126       0.00372136      -0.00045240 </v>
     <v>       0.00579606      10.27897315       0.02858548 </v>
     <v>      -0.00043738       0.02807347      10.28290737 </v>
    </varray>
    <i name="volume">    725.71711827 </i>
    <varray name="rec_basis" >
     <v>       0.14564480      -0.00008214       0.00000642 </v>
     <v>      -0.00005275       0.09728675      -0.00026561 </v>
     <v>       0.00000655      -0.00027045       0.09724950 </v>
    </varray>
   </crystal>
   <varray name="positions" >
    <v>       0.25651910       0.16792320       0.82120933 </v>
    <v>       0.24491720       0.49966294       0.16619182 </v>
    <v>       0.23226988       0.81555859       0.14306815 </v>
    <v>       0.01013920       0.67711289       0.35245399 </v>
    <v>       0.50933054       0.00864744       0.01035358 </v>
    <v>       0.74601376       0.16789957       0.50668230 </v>
    <v>       0.50877004       0.32548875       0.00192718 </v>
    <v>       0.74250949       0.48775829       0.49888665 </v>
    <v>       0.49534240       0.68441178       0.34609491 </v>
    <v>       0.48898079       0.66590379       0.66303524 </v>
    <v>       0.98510633       0.01185128       0.00626175 </v>
    <v>       0.99916627       0.99887029       0.33006634 </v>
    <v>       0.98773535       0.32483520       0.99855899 </v>
    <v>       0.01404165       0.66377243       0.65955584 </v>
    <v>       0.50144241       0.99777379       0.32674117 </v>
    <v>       0.75338091       0.50611794       0.17452963 </v>
    <v>       0.50058077       0.65697958       0.97926166 </v>
    <v>       0.75544845       0.83446496       0.82818573 </v>
    <v>       0.00369311       0.00045526       0.66968954 </v>
    <v>       0.26143326       0.48329374       0.49627279 </v>
    <v>       0.99657244       0.65590725       0.98036402 </v>
    <v>       0.75215076       0.18292132       0.19354618 </v>
    <v>       0.49850469       0.99588808       0.66930473 </v>
    <v>       0.74174524       0.16731705       0.81313090 </v>
    <v>       0.49368138       0.34021565       0.66866052 </v>
    <v>       0.76616022       0.81174212       0.15472303 </v>
    <v>       0.24585439       0.18280515       0.18042504 </v>
    <v>       0.25348027       0.16535471       0.50620386 </v>
    <v>       0.01650416       0.32730015       0.34082699 </v>
    <v>       0.00636683       0.33753783       0.66578630 </v>
    <v>       0.23913564       0.48294419       0.82975556 </v>
    <v>       0.25110844       0.86092210       0.51545995 </v>
    <v>       0.48316296       0.32495579       0.33276270 </v>
    <v>       0.76130163       0.49224002       0.81665766 </v>
    <v>       0.75226781       0.85096845       0.51909608 </v>
    <v>       0.24517922       0.84220142       0.83426590 </v>
   </varray>
  </structure>
  <varray name="forces" >
   <v>      -0.00724278      -0.07629653       0.00684888 </v>
   <v>      -0.00039274      -0.01689006       0.01356050 </v>
   <v>       0.02001982       0.00877419      -0.07269479 </v>
   <v>       0.00701589       0.01331630      -0.01450528 </v>
   <v>      -0.00153833      -0.01214918      -0.00903209 </v>
   <v>       0.00366769      -0.00399513      -0.00813075 </v>
   <v>      -0.00282339       0.00082975      -0.01322784 </v>
   <v>       0.00253498       0.00216434      -0.00461741 </v>
   <v>      -0.01163190       0.00067507       0.00258231 </v>
   <v>       0.00141343       0.00612584       0.00599189 </v>
   <v>      -0.00628788      -0.00309378       0.00541597 </v>
   <v>       0.00549107      -0.00950010      -0.00458910 </v>
   <v>       0.00127281      -0.00192907      -0.00631449 </v>
   <v>      -0.00235844       0.00044773      -0.00473165 </v>
   <v>      -0.00725637      -0.00525448      -0.00158227 </v>
   <v>       0.00074180      -0.00523721       0.00158472 </v>
   <v>       0.02161645      -0.02299192       0.00762096 </v>
   <v>       0.01387722      -0.01085648       0.00131639 </v>
   <v>      -0.03258953       0.01954024       0.00467413 </v>
   <v>      -0.00059338       0.00915044      -0.00407343 </v>
   <v>      -0.00161332       0.01817430      -0.00277443 </v>
   <v>       0.00092318       0.01651969       0.00112603 </v>
   <v>       0.01983209       0.00682581       0.01474939 </v>
   <v>       0.00000450       0.01755491      -0.00162880 </v>
   <v>      -0.00835549      -0.00754881       0.00820481 </v>
   <v>      -0.01312056      -0.00439215       0.01938444 </v>
   <v>      -0.00047291       0.00089735      -0.00205134 </v>
   <v>       0.00061090       0.00496935      -0.01484006 </v>
   <v>       0.00379631       0.00342970       0.00049102 </v>
   <v>       0.01252610      -0.00360850       0.00951861 </v>
   <v>      -0.00107109       0.01652403       0.00657682 </v>
   <v>      -0.00460879       0.00236990       0.06426124 </v>
   <v>       0.00148221      -0.00142876       0.01076302 </v>
   <v>       0.00499022      -0.01507422      -0.00983292 </v>
   <v>      -0.00368784       0.00686919      -0.02456390 </v>
   <v>      -0.01617194       0.04508825       0.01451942 </v>
  </varray>
  <varray name="stress" >
   <v>       0.61284228      -0.04394943       0.04351714 </v>
   <v>      -0.04394943       0.58419721       0.04403625 </v>
   <v>       0.04351714       0.04403624       0.38048519 </v>
  </varray>
  <energy>
   <i name="e_fr_energy">   -364.68360812 </i>
   <i name="e_wo_entrp">   -364.68529752 </i>
   <i name="e_0_energy">      0.00506819 </i>
  </energy>
  <time name="totalsc">    6.96    7.72</time>
 </calculation>
 <calculation>
  <scstep>
   <time name="dav">    0.98    1.02</time>
   <time name="total">    1.05    1.35</time>
   <energy>
    <i name="alphaZ">   1494.64357762 </i>
    <i name="ewald"> -19166.99124000 </i>
    <i name="hartreedc">  -6292.46634520 </i>
    <i name="XCdc">   -342.22476679 </i>
    <i name="pawpsdc">  33510.36513701 </i>
    <i name="pawaedc"> -31861.41831691 </i>
    <i name="eentropy">      0.00479429 </i>
    <i name="bandstr">  -2486.31799557 </i>
    <i name="atom">  24779.72038929 </i>
    <i name="e_fr_energy">   -364.68476624 </i>
    <i name="e_wo_entrp">   -364.68956054 </i>
    <i name="e_0_energy">   -364.68636434 </i>
   </energy>
  </scstep>
  <scstep>
   <time name="diag">    0.08    0.08</time>
   <time name="diis">    0.80    0.81</time>
   <time name="orth">    0.01    0.01</time>
   <time name="total">    0.97    1.06</time>
   <energy>
    <i name="e_fr_energy">   -364.68556211 </i>
    <i name="e_wo_entrp">   -364.69059685 </i>
    <i name="e_0_energy">   -364.68724036 </i>
   </energy>
  </scstep>
  <scstep>
   <time name="diag">    0.08    0.08</time>
   <time name="diis">    0.85    0.86</time>
   <time name="orth">    0.01    0.01</time>
   <time name="total">    1.01    1.07</time>
   <energy>
    <i name="e_fr_energy">   -364.68524713 </i>
    <i name="e_wo_entrp">   -364.69002806 </i>
    <i name="e_0_energy">   -364.68684077 </i>
   </energy>
  </scstep>
  <scstep>
   <time name="diag">    0.13    0.13</time>
   <time name="diis">    0.78    0.79</time>
   <time name="orth">    0.01    0.01</time>
   <time name="total">    0.98    1.03</time>
   <energy>
    <i name="e_fr_energy">   -364.68514273 </i>
    <i name="e_wo_entrp">   -364.69006270 </i>
    <i name="e_0_energy">   -364.68678272 </i>
   </energy>
  </scstep>
  <scstep>
   <time name="diag">    0.08    0.08</time>
   <time name="diis">    0.78    0.79</time>
   <time name="orth">    0.01    0.01</time>
   <time name="total">    0.94    1.00</time>
   <energy>
    <i name="e_fr_energy">   -364.68511828 </i>
    <i name="e_wo_entrp">   -364.68997607 </i>
    <i name="e_0_energy">   -364.68673754 </i>
   </energy>
  </scstep>
  <scstep>
   <time name="diag">    0.08    0.08</time>
   <time name="diis">    0.68    0.68</time>
   <time name="orth">    0.01    0.01</time>
   <time name="total">    0.83    0.90</time>
   <energy>
    <i name="e_fr_energy">   -364.68511386 </i>
    <i name="e_wo_entrp">   -364.68997766 </i>
    <i name="e_0_energy">   -364.68673513 </i>
   </energy>
  </scstep>
  <scstep>
   <time name="diag">    0.10    0.10</time>
   <time name="diis">    0.51    0.51</time>
   <time name="orth">    0.01    0.01</time>
   <time name="total">    0.68    0.73</time>
   <energy>
    <i name="alphaZ">   1494.64357762 </i>
    <i name="ewald"> -19166.99124000 </i>
    <i name="hartreedc">  -6289.57702756 </i>
    <i name="XCdc">   -342.34675001 </i>
    <i name="pawpsdc">  33544.91248203 </i>
    <i name="pawaedc"> -31895.95649592 </i>
    <i name="eentropy">      0.00487420 </i>
    <i name="bandstr">  -2489.09493079 </i>
    <i name="atom">  24779.72038929 </i>
    <i name="e_fr_energy">   -364.68512112 </i>
    <i name="e_wo_entrp">   -364.68999533 </i>
    <i name="e_0_energy">   -364.68674586 </i>
   </energy>
  </scstep>
  <structure>
   <crystal>
    <varray name="basis" >
     <v>       6.86591895       0.00135703      -0.00068952 </v>
     <v>       0.00225631      10.27706767       0.02689814 </v>
     <v>      -0.00080164       0.02639628      10.27728078 </v>
    </varray>
    <i name="volume">    725.17557545 </i>
    <varray name="rec_basis" >
     <v>       0.14564694      -0.00003201       0.00001144 </v>
     <v>      -0.00001926       0.09730468      -0.00024992 </v>
     <v>       0.00000982      -0.00025467       0.09730266 </v>
    </varray>
   </crystal>
   <varray name="positions" >
    <v>       0.25646049       0.16698441       0.82128627 </v>
    <v>       0.24487845       0.49945733       0.16638958 </v>
    <v>       0.23248722       0.81570794       0.14205710 </v>
    <v>       0.01001801       0.67716071       0.35240896 </v>
    <v>       0.50908828       0.00842903       0.01023739 </v>
    <v>       0.74609286       0.16778192       0.50661372 </v>
    <v>       0.50880461       0.32551988       0.00179541 </v>
    <v>       0.74256871       0.48774371       0.49881859 </v>
    <v>       0.49535949       0.68437546       0.34616380 </v>
    <v>       0.48889649       0.66598899       0.66308661 </v>
    <v>       0.98523128       0.01173620       0.00628388 </v>
    <v>       0.99907367       0.99882121       0.33006084 </v>
    <v>       0.98767438       0.32483999       0.99850346 </v>
    <v>       0.01409812       0.66377608       0.65947759 </v>
    <v>       0.50147901       0.99775249       0.32675942 </v>
    <v>       0.75334926       0.50607885       0.17454107 </v>
    <v>       0.50088936       0.65669997       0.97934965 </v>
    <v>       0.75568161       0.83438841       0.82817182 </v>
    <v>       0.00325680       0.00057560       0.66969487 </v>
    <v>       0.26144715       0.48328586       0.49621245 </v>
    <v>       0.99669917       0.65614165       0.98033707 </v>
    <v>       0.75217446       0.18314384       0.19364699 </v>
    <v>       0.49864672       0.99588523       0.66936435 </v>
    <v>       0.74180716       0.16748514       0.81311576 </v>
    <v>       0.49361895       0.34022412       0.66872581 </v>
    <v>       0.76601206       0.81174680       0.15489563 </v>
    <v>       0.24588052       0.18292538       0.18045512 </v>
    <v>       0.25346869       0.16542476       0.50598458 </v>
    <v>       0.01671890       0.32729739       0.34079547 </v>
    <v>       0.00643560       0.33757659       0.66587378 </v>
    <v>       0.23912467       0.48317701       0.82979994 </v>
    <v>       0.25111216       0.86102135       0.51636616 </v>
    <v>       0.48304589       0.32490297       0.33281476 </v>
    <v>       0.76140452       0.49200303       0.81657160 </v>
    <v>       0.75226606       0.85109660       0.51882012 </v>
    <v>       0.24474624       0.84284709       0.83451639 </v>
   </varray>
  </structure>
  <varray name="forces" >
   <v>      -0.01124866      -0.02496554       0.00604850 </v>
   <v>       0.00395508      -0.00630179      -0.00232375 </v>
   <v>       0.02483904      -0.00312324      -0.00409685 </v>
   <v>       0.03109345       0.02650773      -0.02791388 </v>
   <v>       0.02439763       0.00819609      -0.00085205 </v>
   <v>       0.00030046       0.01044392      -0.00900664 </v>
   <v>      -0.01234128      -0.00275343      -0.01005191 </v>
   <v>      -0.00067137       0.00873865       0.00190483 </v>
   <v>      -0.03071110       0.00983036      -0.00553082 </v>
   <v>       0.01416702       0.00033024       0.00755004 </v>
   <v>      -0.03075831       0.01283454       0.01070287 </v>
   <v>       0.02519291      -0.01461932      -0.01057345 </v>
   <v>       0.01199441      -0.00458456      -0.00609836 </v>
   <v>      -0.01395344       0.00054031       0.00223798 </v>
   <v>      -0.02353787      -0.00913321      -0.00754885 </v>
   <v>       0.00563657      -0.00661063       0.00222579 </v>
   <v>       0.01744589      -0.00979685       0.00284834 </v>
   <v>       0.00648737      -0.01367819       0.00452267 </v>
   <v>      -0.02964467       0.02799279       0.01068216 </v>
   <v>      -0.00277533       0.02235492      -0.00048659 </v>
   <v>      -0.01895512       0.00339502      -0.00172166 </v>
   <v>      -0.00070642       0.00208489      -0.01593202 </v>
   <v>       0.03264329       0.01721670       0.02609367 </v>
   <v>      -0.00654454       0.01334785      -0.00237901 </v>
   <v>      -0.01415610      -0.01950452       0.00963190 </v>
   <v>      -0.01505412      -0.01177839       0.01833057 </v>
   <v>      -0.00358745      -0.01876952      -0.01104719 </v>
   <v>       0.00288075       0.00084589       0.00076928 </v>
   <v>      -0.01459050       0.00744769       0.00632843 </v>
   <v>       0.02312172      -0.01414801       0.01028517 </v>
   <v>      -0.00051285       0.00287160       0.00826359 </v>
   <v>      -0.01125982      -0.01380799       0.00133499 </v>
   <v>       0.01626077       0.00367326       0.01632186 </v>
   <v>      -0.00034019       0.00453622      -0.00882849 </v>
   <v>      -0.00962219      -0.00657733      -0.01300003 </v>
   <v>       0.01055497      -0.00303619      -0.00869108 </v>
  </varray>
  <varray name="stress" >
   <v>       1.49668351       0.37262665       0.16519071 </v>
   <v>       0.37262663       1.68363636       0.30593310 </v>
   <v>       0.16519067       0.30593313       1.70732166 </v>
  </varray>
  <energy>
   <i name="e_fr_energy">   -364.68512112 </i>
   <i name="e_wo_entrp">   -364.68674586 </i>
   <i name="e_0_energy">      0.00487420 </i>
  </energy>
  <time name="totalsc">    8.03    8.87</time>
 </calculation>
 <calculation>
  <scstep>
   <time name="dav">    0.97    0.98</time>
   <time name="total">    1.06    1.28</time>
   <energy>
    <i name="alphaZ">   1493.18601629 </i>
    <i name="ewald"> -19160.38571196 </i>
    <i name="hartreedc">  -6287.91690391 </i>
    <i name="XCdc">   -342.61934459 </i>
    <i name="pawpsdc">  33544.42158219 </i>
    <i name="pawaedc"> -31895.43518798 </i>
    <i name="eentropy">      0.00470838 </i>
    <i name="bandstr">  -2495.66331151 </i>
    <i name="atom">  24779.72038929 </i>
    <i name="e_fr_energy">   -364.68776379 </i>
    <i name="e_wo_entrp">   -364.69247218 </i>
    <i name="e_0_energy">   -364.68933325 </i>
   </energy>
  </scstep>
  <scstep>
   <time name="diag">    0.08    0.08</time>
   <time name="diis">    0.87    0.88</time>
   <time name="orth">    0.01    0.01</time>
   <time name="total">    1.03    1.09</time>
   <energy>
    <i name="e_fr_energy">   -364.68695760 </i>
    <i name="e_wo_entrp">   -364.69196601 </i>
    <i name="e_0_energy">   -364.68862707 </i>
   </energy>
  </scstep>
  <scstep>
   <time name="diag">    0.08    0.08</time>
   <time name="diis">    0.79    0.80</time>
   <time name="orth">    0.01    0.01</time>
   <time name="total">    0.95    1.03</time>
   <energy>
    <i name="e_fr_energy">   -364.68642686 </i>
    <i name="e_wo_entrp">   -364.69127386 </i>
    <i name="e_0_energy">   -364.68804253 </i>
   </energy>
  </scstep>
  <scstep>
   <time name="diag">    0.07    0.07</time>
   <time name="diis">    0.87    0.87</time>
   <time name="orth">    0.01    0.01</time>
   <time name="total">    1.02    1.06</time>
   <energy>
    <i name="e_fr_energy">   -364.68611181 </i>
    <i name="e_wo_entrp">   -364.69104131 </i>
    <i name="e_0_energy">   -364.68775498 </i>
   </energy>
  </scstep>
  <scstep>
   <time name="diag">    0.08    0.08</time>
   <time name="diis">    0.75    0.80</time>
   <time name="orth">    0.01    0.01</time>
   <time name="total">    0.91    1.01</time>
   <energy>
    <i name="e_fr_energy">   -364.68604764 </i>
    <i name="e_wo_entrp">   -364.69098515 </i>
    <i name="e_0_energy">   -364.68769347 </i>
   </energy>
  </scstep>
  <scstep>
   <time name="diag">    0.08    0.08</time>
   <time name="diis">    0.68    0.72</time>
   <time name="orth">    0.01    0.01</time>
   <time name="total">    0.84    0.93</time>
   <energy>
    <i name="e_fr_energy">   -364.68604225 </i>
    <i name="e_wo_entrp">   -364.69097461 </i>
    <i name="e_0_energy">   -364.68768637 </i>
   </energy>
  </scstep>
  <scstep>
   <time name="diag">    0.08    0.08</time>
   <time name="diis">    0.43    0.43</time>
   <time name="orth">    0.01    0.01</time>
   <time name="total">    0.55    0.61</time>
   <energy>
    <i name="alphaZ">   1493.18601629 </i>
    <i name="ewald"> -19160.38571196 </i>
    <i name="hartreedc">  -6292.00308012 </i>
    <i name="XCdc">   -342.44596870 </i>
    <i name="pawpsdc">  33501.31135259 </i>
    <i name="pawaedc"> -31852.14997490 </i>
    <i name="eentropy">      0.00492503 </i>
    <i name="bandstr">  -2491.92398191 </i>
    <i name="atom">  24779.72038929 </i>
    <i name="e_fr_energy">   -364.68603439 </i>
    <i name="e_wo_entrp">   -364.69095942 </i>
    <i name="e_0_energy">   -364.68767607 </i>
   </energy>
  </scstep>
  <structure>
   <crystal>
    <varray name="basis" >
     <v>       6.86832191       0.00139593      -0.00047839 </v>
     <v>       0.00231547      10.28070098       0.02724823 </v>
     <v>      -0.00048553       0.02674830      10.28008112 </v>
    </varray>
    <i name="volume">    725.88344967 </i>
    <varray name="rec_basis" >
     <v>       0.14559598      -0.00003281       0.00000696 </v>
     <v>      -0.00001979       0.09727031      -0.00025309 </v>
     <v>       0.00000683      -0.00025782       0.09727617 </v>
    </varray>
   </crystal>
   <varray name="positions" >
    <v>       0.25641559       0.16671395       0.82131584 </v>
    <v>       0.24487998       0.49939659       0.16643273 </v>
    <v>       0.23260722       0.81573797       0.14180745 </v>
    <v>       0.01007405       0.67722072       0.35234704 </v>
    <v>       0.50909700       0.00839169       0.01020796 </v>
    <v>       0.74611259       0.16777289       0.50658078 </v>
    <v>       0.50877912       0.32552235       0.00174548 </v>
    <v>       0.74258105       0.48775619       0.49880573 </v>
    <v>       0.49527955       0.68438477       0.34617014 </v>
    <v>       0.48891508       0.66600995       0.66311272 </v>
    <v>       0.98517703       0.01173208       0.00630867 </v>
    <v>       0.99912042       0.99878278       0.33004026 </v>
    <v>       0.98769261       0.32483278       0.99847903 </v>
    <v>       0.01407347       0.66377793       0.65946293 </v>
    <v>       0.50142337       0.99773074       0.32675003 </v>
    <v>       0.75335710       0.50605740       0.17454791 </v>
    <v>       0.50101094       0.65661510       0.97937597 </v>
    <v>       0.75575518       0.83434507       0.82817682 </v>
    <v>       0.00307123       0.00065552       0.66971553 </v>
    <v>       0.26144286       0.48332483       0.49619700 </v>
    <v>       0.99667767       0.65620401       0.98032746 </v>
    <v>       0.75217822       0.18320101       0.19364202 </v>
    <v>       0.49877003       0.99591590       0.66942625 </v>
    <v>       0.74180408       0.16754981       0.81310772 </v>
    <v>       0.49356529       0.34019046       0.66875915 </v>
    <v>       0.76593541       0.81172631       0.15497053 </v>
    <v>       0.24587699       0.18291992       0.18044223 </v>
    <v>       0.25347380       0.16544307       0.50593346 </v>
    <v>       0.01673039       0.32731033       0.34079945 </v>
    <v>       0.00651534       0.33755996       0.66591361 </v>
    <v>       0.23912067       0.48323797       0.82982567 </v>
    <v>       0.25108228       0.86101991       0.51658574 </v>
    <v>       0.48306235       0.32489695       0.33285704 </v>
    <v>       0.76142818       0.49195462       0.81653482 </v>
    <v>       0.75223933       0.85111532       0.51873029 </v>
    <v>       0.24467153       0.84299617       0.83456054 </v>
   </varray>
  </structure>
  <varray name="forces" >
   <v>      -0.00864639      -0.01266816       0.00357113 </v>
   <v>       0.00283690      -0.00498661      -0.00487238 </v>
   <v>       0.02143245      -0.00652010       0.00439394 </v>
   <v>       0.03328951       0.02745885      -0.02634564 </v>
   <v>       0.02946870       0.01180405       0.00064450 </v>
   <v>      -0.00057378       0.01263356      -0.00856725 </v>
   <v>      -0.01248051      -0.00344878      -0.00936808 </v>
   <v>      -0.00148821       0.00690703       0.00443522 </v>
   <v>      -0.03329067       0.01104609      -0.00387410 </v>
   <v>       0.01390243      -0.00051196       0.00675016 </v>
   <v>      -0.03609993       0.01361883       0.01227184 </v>
   <v>       0.02653016      -0.01354904      -0.00995403 </v>
   <v>       0.01250702      -0.00307850      -0.00684213 </v>
   <v>      -0.01356139      -0.00039044       0.00356947 </v>
   <v>      -0.02361998      -0.00830672      -0.00647428 </v>
   <v>       0.00714533      -0.00766011       0.00345454 </v>
   <v>       0.01472220      -0.00822676      -0.00139034 </v>
   <v>       0.00406450      -0.01215343       0.00387696 </v>
   <v>      -0.02305308       0.02261654       0.00660730 </v>
   <v>      -0.00212973       0.01784762       0.00121866 </v>
   <v>      -0.01859085      -0.00099234      -0.00133735 </v>
   <v>      -0.00139243       0.00298271      -0.01317700 </v>
   <v>       0.02723703       0.01379893       0.02003206 </v>
   <v>      -0.00716170       0.01097073      -0.00432782 </v>
   <v>      -0.01572563      -0.01737571       0.00905715 </v>
   <v>      -0.01251424      -0.01360051       0.01480475 </v>
   <v>      -0.00207301      -0.01292516      -0.00556308 </v>
   <v>       0.00267749       0.00138921       0.00528082 </v>
   <v>      -0.01172297       0.00422491       0.00597279 </v>
   <v>       0.02290972      -0.01176618       0.00900106 </v>
   <v>      -0.00272379      -0.00214921       0.00615119 </v>
   <v>      -0.01012292      -0.00815806      -0.00228906 </v>
   <v>       0.01257986       0.00029391       0.01393061 </v>
   <v>       0.00160806       0.00512701      -0.01102998 </v>
   <v>      -0.00992957      -0.00398320      -0.00620070 </v>
   <v>       0.01398942      -0.01026900      -0.01341096 </v>
  </varray>
  <varray name="stress" >
   <v>       0.38626285       0.38501074       0.14638202 </v>
   <v>       0.38501073       0.52318638       0.27145143 </v>
   <v>       0.14638201       0.27145148       0.59380320 </v>
  </varray>
  <energy>
   <i name="e_fr_energy">   -364.68603439 </i>
   <i name="e_wo_entrp">   -364.68767607 </i>
   <i name="e_0_energy">      0.00492503 </i>
  </energy>
  <time name="totalsc">    7.91    8.74</time>
 </calculation>
 <calculation>
  <scstep>
   <time name="dav">    1.05    1.06</time>
   <time name="total">    1.12    1.43</time>
   <energy>
    <i name="alphaZ">   1491.87715333 </i>
    <i name="ewald"> -19154.44773912 </i>
    <i name="hartreedc">  -6290.44493523 </i>
    <i name="XCdc">   -342.69413453 </i>
    <i name="pawpsdc">  33502.39259097 </i>
    <i name="pawaedc"> -31853.26073164 </i>
    <i name="eentropy">      0.00478714 </i>
    <i name="bandstr">  -2497.83495168 </i>
    <i name="atom">  24779.72038929 </i>
    <i name="e_fr_energy">   -364.68757147 </i>
    <i name="e_wo_entrp">   -364.69235861 </i>
    <i name="e_0_energy">   -364.68916718 </i>
   </energy>
  </scstep>
  <scstep>
   <time name="diag">    0.08    0.08</time>
   <time name="diis">    0.76    0.77</time>
   <time name="orth">    0.01    0.01</time>
   <time name="total">    0.92    0.97</time>
   <energy>
    <i name="e_fr_energy">   -364.68690983 </i>
    <i name="e_wo_entrp">   -364.69195800 </i>
    <i name="e_0_energy">   -364.68859255 </i>
   </energy>
  </scstep>
  <scstep>
   <time name="diag">    0.08    0.08</time>
   <time name="diis">    0.88    0.89</time>
   <time name="orth">    0.01    0.01</time>
   <time name="total">    1.04    1.09</time>
   <energy>
    <i name="e_fr_energy">   -364.68647406 </i>
    <i name="e_wo_entrp">   -364.69138488 </i>
    <i name="e_0_energy">   -364.68811100 </i>
   </energy>
  </scstep>
  <scstep>
   <time name="diag">    0.11    0.12</time>
   <time name="diis">    0.78    0.79</time>
   <time name="orth">    0.01    0.01</time>
   <time name="total">    0.99    1.12</time>
   <energy>
    <i name="e_fr_energy">   -364.68623602 </i>
    <i name="e_wo_entrp">   -364.69121889 </i>
    <i name="e_0_energy">   -364.68789698 </i>
   </energy>
  </scstep>
  <scstep>
   <time name="diag">    0.07    0.07</time>
   <time name="diis">    0.79    0.80</time>
   <time name="orth">    0.01    0.01</time>
   <time name="total">    0.94    1.01</time>
   <energy>
    <i name="e_fr_energy">   -364.68619338 </i>
    <i name="e_wo_entrp">   -364.69118229 </i>
    <i name="e_0_energy">   -364.68785635 </i>
   </energy>
  </scstep>
  <scstep>
   <time name="diag">    0.07    0.08</time>
   <time name="diis">    0.62    0.63</time>
   <time name="orth">    0.01    0.01</time>
   <time name="total">    0.74    0.80</time>
   <energy>
    <i name="alphaZ">   1491.87715333 </i>
    <i name="ewald"> -19154.44773912 </i>
    <i name="hartreedc">  -6294.06014659 </i>
    <i name="XCdc">   -342.54040070 </i>
    <i name="pawpsdc">  33460.39793797 </i>
    <i name="pawaedc"> -31811.23005099 </i>
    <i name="eentropy">      0.00498483 </i>
    <i name="bandstr">  -2494.40831956 </i>
    <i name="atom">  24779.72038929 </i>
    <i name="e_fr_energy">   -364.68619152 </i>
    <i name="e_wo_entrp">   -364.69117635 </i>
    <i name="e_0_energy">   -364.68785313 </i>
   </energy>
  </scstep>
  <structure>
   <crystal>
    <varray name="basis" >
     <v>       6.87048240       0.00143090      -0.00028857 </v>
     <v>       0.00236866      10.28396768       0.02756299 </v>
     <v>      -0.00020131       0.02706481      10.28259891 </v>
    </varray>
    <i name="volume">    726.52028626 </i>
    <varray name="rec_basis" >
     <v>       0.14555019      -0.00003353       0.00000294 </v>
     <v>      -0.00002026       0.09723942      -0.00025594 </v>
     <v>       0.00000414      -0.00026066       0.09725236 </v>
    </varray>
   </crystal>
   <varray name="positions" >
    <v>       0.25637523       0.16647087       0.82134242 </v>
    <v>       0.24488135       0.49934200       0.16647151 </v>
    <v>       0.23271508       0.81576498       0.14158304 </v>
    <v>       0.01012442       0.67727466       0.35229137 </v>
    <v>       0.50910484       0.00835813       0.01018150 </v>
    <v>       0.74613033       0.16776477       0.50655116 </v>
    <v>       0.50875621       0.32552457       0.00170061 </v>
    <v>       0.74259214       0.48776740       0.49879417 </v>
    <v>       0.49520770       0.68439314       0.34617584 </v>
    <v>       0.48893179       0.66602879       0.66313619 </v>
    <v>       0.98512826       0.01172837       0.00633095 </v>
    <v>       0.99916245       0.99874823       0.33002177 </v>
    <v>       0.98770898       0.32482630       0.99845708 </v>
    <v>       0.01405131       0.66377960       0.65944975 </v>
    <v>       0.50137337       0.99771119       0.32674160 </v>
    <v>       0.75336415       0.50603811       0.17455405 </v>
    <v>       0.50112022       0.65653883       0.97939964 </v>
    <v>       0.75582131       0.83430612       0.82818131 </v>
    <v>       0.00290444       0.00072735       0.66973410 </v>
    <v>       0.26143901       0.48335986       0.49618312 </v>
    <v>       0.99665835       0.65626005       0.98031882 </v>
    <v>       0.75218160       0.18325240       0.19363754 </v>
    <v>       0.49888086       0.99594345       0.66948189 </v>
    <v>       0.74180132       0.16760793       0.81310050 </v>
    <v>       0.49351705       0.34016020       0.66878912 </v>
    <v>       0.76586652       0.81170789       0.15503786 </v>
    <v>       0.24587381       0.18291501       0.18043064 </v>
    <v>       0.25347840       0.16545953       0.50588751 </v>
    <v>       0.01674071       0.32732196       0.34080302 </v>
    <v>       0.00658701       0.33754502       0.66594941 </v>
    <v>       0.23911707       0.48329275       0.82984880 </v>
    <v>       0.25105541       0.86101861       0.51678311 </v>
    <v>       0.48307714       0.32489153       0.33289505 </v>
    <v>       0.76144945       0.49191111       0.81650176 </v>
    <v>       0.75221530       0.85113215       0.51864955 </v>
    <v>       0.24460439       0.84313016       0.83460022 </v>
   </varray>
  </structure>
  <varray name="forces" >
   <v>      -0.00754351      -0.00103495       0.00026285 </v>
   <v>       0.00194299      -0.00407607      -0.00588654 </v>
   <v>       0.01878118      -0.00830376       0.01296604 </v>
   <v>       0.03462744       0.02816800      -0.02480232 </v>
   <v>       0.03338798       0.01474318       0.00178664 </v>
   <v>      -0.00079943       0.01560378      -0.00772413 </v>
   <v>      -0.01317623      -0.00522723      -0.00868006 </v>
   <v>      -0.00098793       0.00453595       0.00749267 </v>
   <v>      -0.03524798       0.01211902      -0.00255466 </v>
   <v>       0.01386700      -0.00141370       0.00576989 </v>
   <v>      -0.03952228       0.01420384       0.01279368 </v>
   <v>       0.02798173      -0.01219578      -0.00878088 </v>
   <v>       0.01290128      -0.00182475      -0.00659188 </v>
   <v>      -0.01318373      -0.00033334       0.00440326 </v>
   <v>      -0.02406780      -0.00704533      -0.00456131 </v>
   <v>       0.00855164      -0.00832226       0.00448335 </v>
   <v>       0.01267257      -0.00675936      -0.00458099 </v>
   <v>       0.00247498      -0.01025482       0.00239895 </v>
   <v>      -0.01825410       0.01811786       0.00342898 </v>
   <v>      -0.00177491       0.01380150       0.00268313 </v>
   <v>      -0.01907964      -0.00490075      -0.00119655 </v>
   <v>      -0.00137560       0.00360221      -0.01019455 </v>
   <v>       0.02301916       0.01129505       0.01493210 </v>
   <v>      -0.00729391       0.00906846      -0.00709557 </v>
   <v>      -0.01656019      -0.01600626       0.00792725 </v>
   <v>      -0.01030847      -0.01503888       0.01191668 </v>
   <v>      -0.00125446      -0.00856248      -0.00001338 </v>
   <v>       0.00183474       0.00228170       0.00978049 </v>
   <v>      -0.00974508       0.00052344       0.00637245 </v>
   <v>       0.02227136      -0.01073037       0.00700671 </v>
   <v>      -0.00555726      -0.00827290       0.00282439 </v>
   <v>      -0.00942771      -0.00198959      -0.00611745 </v>
   <v>       0.00934616      -0.00329351       0.01286573 </v>
   <v>       0.00430287       0.00507441      -0.01515578 </v>
   <v>      -0.01007362      -0.00130188       0.00029378 </v>
   <v>       0.01727075      -0.01625042      -0.01845299 </v>
  </varray>
  <varray name="stress" >
   <v>      -0.78722185       0.37224780       0.13383064 </v>
   <v>       0.37224778      -0.67034235       0.21982414 </v>
   <v>       0.13383064       0.21982419      -0.58372843 </v>
  </varray>
  <energy>
   <i name="e_fr_energy">   -364.68619152 </i>
   <i name="e_wo_entrp">   -364.68785313 </i>
   <i name="e_0_energy">      0.00498483 </i>
  </energy>
  <time name="totalsc">    7.30    8.18</time>
 </calculation>
 <calculation>
  <scstep>
   <time name="dav">    0.97    0.98</time>
   <time name="total">    1.04    1.32</time>
   <energy>
    <i name="alphaZ">   1492.04435548 </i>
    <i name="ewald"> -19154.83057211 </i>
    <i name="hartreedc">  -6294.52391528 </i>
    <i name="XCdc">   -342.51291600 </i>
    <i name="pawpsdc">  33462.45958397 </i>
    <i name="pawaedc"> -31813.34640237 </i>
    <i name="eentropy">      0.00483150 </i>
    <i name="bandstr">  -2493.70192973 </i>
    <i name="atom">  24779.72038929 </i>
    <i name="e_fr_energy">   -364.68657526 </i>
    <i name="e_wo_entrp">   -364.69140675 </i>
    <i name="e_0_energy">   -364.68818576 </i>
   </energy>
  </scstep>
  <scstep>
   <time name="diag">    0.08    0.08</time>
   <time name="diis">    0.76    0.77</time>
   <time name="orth">    0.01    0.01</time>
   <time name="total">    0.91    0.96</time>
   <energy>
    <i name="e_fr_energy">   -364.68673761 </i>
    <i name="e_wo_entrp">   -364.69164786 </i>
    <i name="e_0_energy">   -364.68837436 </i>
   </energy>
  </scstep>
  <scstep>
   <time name="diag">    0.07    0.08</time>
   <time name="diis">    0.70    0.71</time>
   <time name="orth">    0.01    0.01</time>
   <time name="total">    0.85    0.91</time>
   <energy>
    <i name="e_fr_energy">   -364.68673116 </i>
    <i name="e_wo_entrp">   -364.69158171 </i>
    <i name="e_0_energy">   -364.68834801 </i>
   </energy>
  </scstep>
  <scstep>
   <time name="diag">    0.08    0.08</time>
   <time name="diis">    0.62    0.63</time>
   <time name="orth">    0.01    0.01</time>
   <time name="total">    0.77    0.84</time>
   <energy>
    <i name="e_fr_energy">   -364.68672293 </i>
    <i name="e_wo_entrp">   -364.69160978 </i>
    <i name="e_0_energy">   -364.68835188 </i>
   </energy>
  </scstep>
  <scstep>
   <time name="diag">    0.08    0.08</time>
   <time name="diis">    0.38    0.51</time>
   <time name="orth">    0.01    0.01</time>
   <time name="total">    0.51    0.69</time>
   <energy>
    <i name="alphaZ">   1492.04435548 </i>
    <i name="ewald"> -19154.83057211 </i>
    <i name="hartreedc">  -6293.94603785 </i>
[...]
       <r>    6.7833    1.0000 </r>
       <r>    6.8226    1.0000 </r>
       <r>    6.8708    1.0000 </r>
       <r>    6.8896    1.0000 </r>
       <r>    6.9183    1.0000 </r>
       <r>    6.9426    1.0000 </r>
       <r>    6.9963    1.0001 </r>
       <r>    7.0100    1.0002 </r>
       <r>    7.0381    1.0005 </r>
       <r>    7.1074    1.0038 </r>
       <r>    7.1408    1.0084 </r>
       <r>    7.1778    1.0169 </r>
       <r>    7.2444    1.0348 </r>
       <r>    7.2746    1.0323 </r>
       <r>    7.2923    1.0225 </r>
       <r>    7.3274    0.9739 </r>
       <r>    7.3529    0.9070 </r>
       <r>    7.3927    0.7468 </r>
       <r>    7.4011    0.7050 </r>
       <r>    7.4512    0.4301 </r>
       <r>    7.4946    0.2079 </r>
       <r>    7.5156    0.1233 </r>
       <r>    7.5810   -0.0189 </r>
       <r>    7.6027   -0.0323 </r>
       <r>    7.6529   -0.0307 </r>
       <r>    7.6657   -0.0271 </r>
       <r>    7.6937   -0.0186 </r>
       <r>    7.7341   -0.0088 </r>
       <r>    7.7887   -0.0024 </r>
       <r>    7.8362   -0.0006 </r>
       <r>    7.8504   -0.0004 </r>
       <r>    7.9034   -0.0001 </r>
       <r>    7.9397   -0.0000 </r>
       <r>    7.9994   -0.0000 </r>
       <r>    8.0361   -0.0000 </r>
       <r>    8.0968   -0.0000 </r>
       <r>    8.1690   -0.0000 </r>
       <r>    8.2047   -0.0000 </r>
       <r>    8.2648   -0.0000 </r>
       <r>    8.3233   -0.0000 </r>
       <r>    8.3858   -0.0000 </r>
       <r>    8.5403   -0.0000 </r>
       <r>    8.7772   -0.0000 </r>
       <r>    8.8497   -0.0000 </r>
       <r>    9.2207   -0.0000 </r>
       <r>    9.3460   -0.0000 </r>
       <r>    9.4689   -0.0000 </r>
       <r>    9.4962   -0.0000 </r>
       <r>    9.5335   -0.0000 </r>
      </set>
     </set>
    </set>
   </array>
  </eigenvalues>
  <separator name="orbital magnetization" >
   <v name="MAGDIPOLOUT">      0.00000000      0.00000000      0.00000000</v>
  </separator>
  <dos>
   <i name="efermi">      7.43874248 </i>
   <total>
    <array>
     <dimension dim="1">gridpoints</dimension>
     <dimension dim="2">spin</dimension>
     <field>energy</field>
     <field>total</field>
     <field>integrated</field>
     <set>
      <set comment="spin 1">
       <r>   -49.7275     0.0000     0.0000 </r>
       <r>   -49.5204     0.0000     0.0000 </r>
       <r>   -49.3133     0.0000     0.0000 </r>
       <r>   -49.1063     0.0000     0.0000 </r>
       <r>   -48.8992     0.0000     0.0000 </r>
       <r>   -48.6921     0.0000     0.0000 </r>
       <r>   -48.4850     0.0000     0.0000 </r>
       <r>   -48.2779    -0.0000    -0.0000 </r>
       <r>   -48.0708    -0.0000    -0.0000 </r>
       <r>   -47.8637    -0.0000    -0.0000 </r>
       <r>   -47.6566    -0.0000    -0.0000 </r>
       <r>   -47.4495    -0.0000    -0.0000 </r>
       <r>   -47.2424    -0.0333    -0.0069 </r>
       <r>   -47.0353    -0.4394    -0.0979 </r>
       <r>   -46.8282    12.8931     2.5722 </r>
       <r>   -46.6211    37.0790    10.2510 </r>
       <r>   -46.4140    28.2548    16.1024 </r>
       <r>   -46.2069    -0.4025    16.0191 </r>
       <r>   -45.9998    -0.0921    16.0000 </r>
       <r>   -45.7928    -0.0001    16.0000 </r>
       <r>   -45.5857    -0.0000    16.0000 </r>
       <r>   -45.3786     0.0000    16.0000 </r>
       <r>   -45.1715     0.0000    16.0000 </r>
       <r>   -44.9644     0.0000    16.0000 </r>
       <r>   -44.7573     0.0000    16.0000 </r>
       <r>   -44.5502     0.0000    16.0000 </r>
       <r>   -44.3431     0.0000    16.0000 </r>
       <r>   -44.1360     0.0000    16.0000 </r>
       <r>   -43.9289     0.0000    16.0000 </r>
       <r>   -43.7218     0.0000    16.0000 </r>
       <r>   -43.5147     0.0000    16.0000 </r>
       <r>   -43.3076     0.0000    16.0000 </r>
       <r>   -43.1005     0.0000    16.0000 </r>
       <r>   -42.8934     0.0000    16.0000 </r>
       <r>   -42.6863     0.0000    16.0000 </r>
       <r>   -42.4792     0.0000    16.0000 </r>
       <r>   -42.2722     0.0000    16.0000 </r>
       <r>   -42.0651    -0.0000    16.0000 </r>
       <r>   -41.8580    -0.0000    16.0000 </r>
       <r>   -41.6509    -0.0000    16.0000 </r>
       <r>   -41.4438    -0.0000    16.0000 </r>
       <r>   -41.2367    -0.0039    15.9992 </r>
       <r>   -41.0296    -0.6292    15.8689 </r>
       <r>   -40.8225     7.3085    17.3824 </r>
       <r>   -40.6154    52.8412    28.3255 </r>
       <r>   -40.4083    19.0199    32.2644 </r>
       <r>   -40.2012    -1.2652    32.0024 </r>
       <r>   -39.9941    -0.0117    32.0000 </r>
       <r>   -39.7870    -0.0000    32.0000 </r>
       <r>   -39.5799    -0.0000    32.0000 </r>
       <r>   -39.3728     0.0000    32.0000 </r>
       <r>   -39.1657     0.0000    32.0000 </r>
       <r>   -38.9586     0.0000    32.0000 </r>
       <r>   -38.7516     0.0000    32.0000 </r>
       <r>   -38.5445     0.0000    32.0000 </r>
       <r>   -38.3374     0.0000    32.0000 </r>
       <r>   -38.1303     0.0000    32.0000 </r>
       <r>   -37.9232     0.0000    32.0000 </r>
       <r>   -37.7161     0.0000    32.0000 </r>
       <r>   -37.5090     0.0000    32.0000 </r>
       <r>   -37.3019     0.0000    32.0000 </r>
       <r>   -37.0948     0.0000    32.0000 </r>
       <r>   -36.8877     0.0000    32.0000 </r>
       <r>   -36.6806     0.0000    32.0000 </r>
       <r>   -36.4735     0.0000    32.0000 </r>
       <r>   -36.2664     0.0000    32.0000 </r>
       <r>   -36.0593     0.0000    32.0000 </r>
       <r>   -35.8522     0.0000    32.0000 </r>
       <r>   -35.6451     0.0000    32.0000 </r>
       <r>   -35.4380     0.0000    32.0000 </r>
       <r>   -35.2310     0.0000    32.0000 </r>
       <r>   -35.0239     0.0000    32.0000 </r>
       <r>   -34.8168     0.0000    32.0000 </r>
       <r>   -34.6097     0.0000    32.0000 </r>
       <r>   -34.4026     0.0000    32.0000 </r>
       <r>   -34.1955     0.0000    32.0000 </r>
       <r>   -33.9884     0.0000    32.0000 </r>
       <r>   -33.7813     0.0000    32.0000 </r>
       <r>   -33.5742     0.0000    32.0000 </r>
       <r>   -33.3671     0.0000    32.0000 </r>
       <r>   -33.1600     0.0000    32.0000 </r>
       <r>   -32.9529     0.0000    32.0000 </r>
       <r>   -32.7458     0.0000    32.0000 </r>
       <r>   -32.5387     0.0000    32.0000 </r>
       <r>   -32.3316     0.0000    32.0000 </r>
       <r>   -32.1245     0.0000    32.0000 </r>
       <r>   -31.9174     0.0000    32.0000 </r>
       <r>   -31.7104     0.0000    32.0000 </r>
       <r>   -31.5033     0.0000    32.0000 </r>
       <r>   -31.2962     0.0000    32.0000 </r>
       <r>   -31.0891     0.0000    32.0000 </r>
       <r>   -30.8820     0.0000    32.0000 </r>
       <r>   -30.6749     0.0000    32.0000 </r>
       <r>   -30.4678     0.0000    32.0000 </r>
       <r>   -30.2607     0.0000    32.0000 </r>
       <r>   -30.0536     0.0000    32.0000 </r>
       <r>   -29.8465     0.0000    32.0000 </r>
       <r>   -29.6394     0.0000    32.0000 </r>
       <r>   -29.4323     0.0000    32.0000 </r>
       <r>   -29.2252     0.0000    32.0000 </r>
       <r>   -29.0181     0.0000    32.0000 </r>
       <r>   -28.8110     0.0000    32.0000 </r>
       <r>   -28.6039     0.0000    32.0000 </r>
       <r>   -28.3968     0.0000    32.0000 </r>
       <r>   -28.1898     0.0000    32.0000 </r>
       <r>   -27.9827     0.0000    32.0000 </r>
       <r>   -27.7756     0.0000    32.0000 </r>
       <r>   -27.5685     0.0000    32.0000 </r>
       <r>   -27.3614     0.0000    32.0000 </r>
       <r>   -27.1543     0.0000    32.0000 </r>
       <r>   -26.9472     0.0000    32.0000 </r>
       <r>   -26.7401     0.0000    32.0000 </r>
       <r>   -26.5330     0.0000    32.0000 </r>
       <r>   -26.3259     0.0000    32.0000 </r>
       <r>   -26.1188     0.0000    32.0000 </r>
       <r>   -25.9117     0.0000    32.0000 </r>
       <r>   -25.7046     0.0000    32.0000 </r>
       <r>   -25.4975     0.0000    32.0000 </r>
       <r>   -25.2904     0.0000    32.0000 </r>
       <r>   -25.0833     0.0000    32.0000 </r>
       <r>   -24.8763     0.0000    32.0000 </r>
       <r>   -24.6692     0.0000    32.0000 </r>
       <r>   -24.4621    -0.0000    32.0000 </r>
       <r>   -24.2550    -0.0000    32.0000 </r>
       <r>   -24.0479    -0.0000    32.0000 </r>
       <r>   -23.8408    -0.0000    32.0000 </r>
       <r>   -23.6337    -0.0018    31.9996 </r>
       <r>   -23.4266    -0.4092    31.9149 </r>
       <r>   -23.2195     4.2449    32.7940 </r>
       <r>   -23.0124    37.0681    40.4706 </r>
       <r>   -22.8053    74.1768    55.8321 </r>
       <r>   -22.5982    89.7610    74.4211 </r>
       <r>   -22.3911    26.4495    79.8986 </r>
       <r>   -22.1840     0.6510    80.0335 </r>
       <r>   -21.9769    -0.1613    80.0001 </r>
       <r>   -21.7698    -0.0003    80.0000 </r>
       <r>   -21.5627    -0.0000    80.0000 </r>
       <r>   -21.3557    -0.0000    80.0000 </r>
       <r>   -21.1486     0.0000    80.0000 </r>
       <r>   -20.9415     0.0000    80.0000 </r>
       <r>   -20.7344     0.0000    80.0000 </r>
       <r>   -20.5273     0.0000    80.0000 </r>
       <r>   -20.3202    -0.0000    80.0000 </r>
       <r>   -20.1131    -0.0000    80.0000 </r>
       <r>   -19.9060    -0.0000    80.0000 </r>
       <r>   -19.6989    -0.0000    80.0000 </r>
       <r>   -19.4918    -0.0101    79.9979 </r>
       <r>   -19.2847    -0.9923    79.7924 </r>
       <r>   -19.0776    13.1627    82.5183 </r>
       <r>   -18.8705    65.9637    96.1790 </r>
       <r>   -18.6634   104.2007   117.7583 </r>
       <r>   -18.4563    47.4044   127.5755 </r>
       <r>   -18.2492     2.3990   128.0723 </r>
       <r>   -18.0421    -0.3481   128.0002 </r>
       <r>   -17.8351    -0.0011   128.0000 </r>
       <r>   -17.6280    -0.0000   128.0000 </r>
       <r>   -17.4209    -0.0000   128.0000 </r>
       <r>   -17.2138     0.0000   128.0000 </r>
       <r>   -17.0067     0.0000   128.0000 </r>
       <r>   -16.7996     0.0000   128.0000 </r>
       <r>   -16.5925     0.0000   128.0000 </r>
       <r>   -16.3854     0.0000   128.0000 </r>
       <r>   -16.1783     0.0000   128.0000 </r>
       <r>   -15.9712     0.0000   128.0000 </r>
       <r>   -15.7641     0.0000   128.0000 </r>
       <r>   -15.5570     0.0000   128.0000 </r>
       <r>   -15.3499     0.0000   128.0000 </r>
       <r>   -15.1428     0.0000   128.0000 </r>
       <r>   -14.9357     0.0000   128.0000 </r>
       <r>   -14.7286     0.0000   128.0000 </r>
       <r>   -14.5215     0.0000   128.0000 </r>
       <r>   -14.3145     0.0000   128.0000 </r>
       <r>   -14.1074     0.0000   128.0000 </r>
       <r>   -13.9003     0.0000   128.0000 </r>
       <r>   -13.6932     0.0000   128.0000 </r>
       <r>   -13.4861     0.0000   128.0000 </r>
       <r>   -13.2790     0.0000   128.0000 </r>
       <r>   -13.0719     0.0000   128.0000 </r>
       <r>   -12.8648     0.0000   128.0000 </r>
       <r>   -12.6577     0.0000   128.0000 </r>
       <r>   -12.4506     0.0000   128.0000 </r>
       <r>   -12.2435     0.0000   128.0000 </r>
       <r>   -12.0364     0.0000   128.0000 </r>
       <r>   -11.8293     0.0000   128.0000 </r>
       <r>   -11.6222     0.0000   128.0000 </r>
       <r>   -11.4151     0.0000   128.0000 </r>
       <r>   -11.2080     0.0000   128.0000 </r>
       <r>   -11.0009     0.0000   128.0000 </r>
       <r>   -10.7939     0.0000   128.0000 </r>
       <r>   -10.5868     0.0000   128.0000 </r>
       <r>   -10.3797     0.0000   128.0000 </r>
       <r>   -10.1726     0.0000   128.0000 </r>
       <r>    -9.9655     0.0000   128.0000 </r>
       <r>    -9.7584     0.0000   128.0000 </r>
       <r>    -9.5513     0.0000   128.0000 </r>
       <r>    -9.3442     0.0000   128.0000 </r>
       <r>    -9.1371     0.0000   128.0000 </r>
       <r>    -8.9300     0.0000   128.0000 </r>
       <r>    -8.7229     0.0000   128.0000 </r>
       <r>    -8.5158     0.0000   128.0000 </r>
       <r>    -8.3087     0.0000   128.0000 </r>
       <r>    -8.1016     0.0000   128.0000 </r>
       <r>    -7.8945     0.0000   128.0000 </r>
       <r>    -7.6874     0.0000   128.0000 </r>
       <r>    -7.4804     0.0000   128.0000 </r>
       <r>    -7.2733     0.0000   128.0000 </r>
       <r>    -7.0662     0.0000   128.0000 </r>
       <r>    -6.8591     0.0000   128.0000 </r>
       <r>    -6.6520     0.0000   128.0000 </r>
       <r>    -6.4449     0.0000   128.0000 </r>
       <r>    -6.2378     0.0000   128.0000 </r>
       <r>    -6.0307     0.0000   128.0000 </r>
       <r>    -5.8236     0.0000   128.0000 </r>
       <r>    -5.6165     0.0000   128.0000 </r>
       <r>    -5.4094     0.0000   128.0000 </r>
       <r>    -5.2023     0.0000   128.0000 </r>
       <r>    -4.9952     0.0000   128.0000 </r>
       <r>    -4.7881     0.0000   128.0000 </r>
       <r>    -4.5810     0.0000   128.0000 </r>
       <r>    -4.3739     0.0000   128.0000 </r>
       <r>    -4.1668     0.0000   128.0000 </r>
       <r>    -3.9598     0.0000   128.0000 </r>
       <r>    -3.7527     0.0000   128.0000 </r>
       <r>    -3.5456     0.0000   128.0000 </r>
       <r>    -3.3385     0.0000   128.0000 </r>
       <r>    -3.1314     0.0000   128.0000 </r>
       <r>    -2.9243     0.0000   128.0000 </r>
       <r>    -2.7172     0.0000   128.0000 </r>
       <r>    -2.5101     0.0000   128.0000 </r>
       <r>    -2.3030     0.0000   128.0000 </r>
       <r>    -2.0959     0.0000   128.0000 </r>
       <r>    -1.8888     0.0000   128.0000 </r>
       <r>    -1.6817     0.0000   128.0000 </r>
       <r>    -1.4746     0.0000   128.0000 </r>
       <r>    -1.2675     0.0000   128.0000 </r>
       <r>    -1.0604     0.0000   128.0000 </r>
       <r>    -0.8533     0.0000   128.0000 </r>
       <r>    -0.6462    -0.0000   128.0000 </r>
       <r>    -0.4392    -0.0000   128.0000 </r>
       <r>    -0.2321    -0.0000   128.0000 </r>
       <r>    -0.0250    -0.0000   128.0000 </r>
       <r>     0.1821    -0.0000   128.0000 </r>
       <r>     0.3892    -0.0045   127.9991 </r>
       <r>     0.5963     0.0441   128.0082 </r>
       <r>     0.8034     0.4420   128.0997 </r>
       <r>     1.0105     1.3756   128.3846 </r>
       <r>     1.2176     1.7414   128.7452 </r>
       <r>     1.4247     2.3170   129.2251 </r>
       <r>     1.6318     3.9116   130.0351 </r>
       <r>     1.8389     3.2467   130.7075 </r>
       <r>     2.0460     2.5344   131.2324 </r>
       <r>     2.2531     5.3272   132.3356 </r>
       <r>     2.4602     3.2620   133.0111 </r>
       <r>     2.6673     4.5881   133.9613 </r>
       <r>     2.8744     8.4258   135.7063 </r>
       <r>     3.0814     7.5555   137.2710 </r>
       <r>     3.2885     7.2162   138.7654 </r>
       <r>     3.4956     9.4861   140.7299 </r>
       <r>     3.7027    12.7407   143.3684 </r>
       <r>     3.9098    18.2429   147.1464 </r>
       <r>     4.1169    21.7677   151.6544 </r>
       <r>     4.3240    25.0201   156.8359 </r>
       <r>     4.5311    30.2279   163.0959 </r>
       <r>     4.7382    32.8144   169.8916 </r>
       <r>     4.9453    40.4439   178.2673 </r>
       <r>     5.1524    36.3873   185.8029 </r>
       <r>     5.3595    38.5364   193.7835 </r>
       <r>     5.5666    32.8473   200.5860 </r>
       <r>     5.7737    30.4047   206.8826 </r>
       <r>     5.9808    14.6071   209.9077 </r>
       <r>     6.1879    42.4212   218.6929 </r>
       <r>     6.3950    68.6391   232.9076 </r>
       <r>     6.6020    57.3271   244.7797 </r>
       <r>     6.8091    50.4803   255.2339 </r>
       <r>     7.0162    57.2173   267.0832 </r>
       <r>     7.2233    57.8813   279.0701 </r>
       <r>     7.4304    50.8598   289.6029 </r>
       <r>     7.6375    46.0310   299.1356 </r>
       <r>     7.8446    46.9663   308.8620 </r>
       <r>     8.0517    41.0305   317.3592 </r>
       <r>     8.2588    33.0475   324.2032 </r>
       <r>     8.4659    29.2790   330.2667 </r>
       <r>     8.6730    25.0388   335.4520 </r>
       <r>     8.8801    17.6407   339.1053 </r>
       <r>     9.0872    14.8404   342.1787 </r>
       <r>     9.2943    22.6662   346.8727 </r>
       <r>     9.5014    18.9275   350.7925 </r>
       <r>     9.7085     6.2103   352.0786 </r>
       <r>     9.9155    -0.3725   352.0015 </r>
       <r>    10.1226    -0.0071   352.0000 </r>
       <r>    10.3297    -0.0000   352.0000 </r>
       <r>    10.5368    -0.0000   352.0000 </r>
       <r>    10.7439     0.0000   352.0000 </r>
       <r>    10.9510     0.0000   352.0000 </r>
       <r>    11.1581     0.0000   352.0000 </r>
       <r>    11.3652     0.0000   352.0000 </r>
       <r>    11.5723     0.0000   352.0000 </r>
       <r>    11.7794     0.0000   352.0000 </r>
       <r>    11.9865     0.0000   352.0000 </r>
       <r>    12.1936     0.0000   352.0000 </r>
       <r>    12.4007     0.0000   352.0000 </r>
      </set>
     </set>
    </array>
   </total>
  </dos>
 </calculation>
 <structure name="finalpos" >
  <crystal>
   <varray name="basis" >
    <v>       6.86787976       0.00404432       0.00119443 </v>
    <v>       0.00628724      10.27942146       0.03083219 </v>
    <v>       0.00202830       0.03032396      10.28162714 </v>
   </varray>
   <i name="volume">    725.85386454 </i>
   <varray name="rec_basis" >
    <v>       0.14560540      -0.00008897      -0.00002846 </v>
    <v>      -0.00005724       0.09728263      -0.00028691 </v>
    <v>      -0.00001674      -0.00029172       0.09726173 </v>
   </varray>
  </crystal>
  <varray name="positions" >
   <v>       0.25579197       0.16584621       0.82184981 </v>
   <v>       0.24478733       0.49933104       0.16620521 </v>
   <v>       0.23420143       0.81611887       0.14043558 </v>
   <v>       0.01169538       0.67802244       0.35161797 </v>
   <v>       0.51069789       0.00882422       0.01029350 </v>
   <v>       0.74611812       0.16785156       0.50619290 </v>
   <v>       0.50827045       0.32563382       0.00141421 </v>
   <v>       0.74290633       0.48835834       0.49890016 </v>
   <v>       0.49313977       0.68448950       0.34646917 </v>
   <v>       0.48945541       0.66606199       0.66329439 </v>
   <v>       0.98330313       0.01176629       0.00679574 </v>
   <v>      -0.00004473       0.99850684       0.32984228 </v>
   <v>       0.98817393       0.32496159       0.99842720 </v>
   <v>       0.01365067       0.66393449       0.65934798 </v>
   <v>       0.50080525       0.99757327       0.32677656 </v>
   <v>       0.75348334       0.50566425       0.17502903 </v>
   <v>       0.50209793       0.65560896       0.97898672 </v>
   <v>       0.75591388       0.83415804       0.82841509 </v>
   <v>       0.00219693       0.00093779       0.66987709 </v>
   <v>       0.26117645       0.48360551       0.49635455 </v>
   <v>       0.99608766       0.65602045       0.98061878 </v>
   <v>       0.75198469       0.18359882       0.19367335 </v>
   <v>       0.49947422       0.99614304       0.66976728 </v>
   <v>       0.74187457       0.16786034       0.81291024 </v>
   <v>       0.49301129       0.33973222       0.66869498 </v>
   <v>       0.76472798       0.81111675       0.15572926 </v>
   <v>       0.24603412       0.18256800       0.18037981 </v>
   <v>       0.25347311       0.16562280       0.50603831 </v>
   <v>       0.01665719       0.32739229       0.34084793 </v>
   <v>       0.00718405       0.33733721       0.66574980 </v>
   <v>       0.23885239       0.48335028       0.82999205 </v>
   <v>       0.25072207       0.86132049       0.51765544 </v>
   <v>       0.48320121       0.32497574       0.33323834 </v>
   <v>       0.76181836       0.49165815       0.81583836 </v>
   <v>       0.75204212       0.85121397       0.51800597 </v>
   <v>       0.24503109       0.84283742       0.83433096 </v>
  </varray>
 </structure>
</modeling>
