   16   16  300    1
  0.2154059E+02  0.6956235E-09  0.7069804E-09  0.7019836E-09  0.1500000E-15
  1.000000000000000E-004
  CAR 
 automatically generated by mexm         
    140     14     84
