 vasp.5.4.1 05Feb16 (build Jan 29 2020 16:04:39) complex                        
  
 executed on           IFC91_ompi date 2020.05.18  17:03:44
 running on  160 total cores
 distrk:  each k-point on   20 cores,    8 groups
 distr:  one band on NCORES_PER_BAND=   5 cores,    4 groups


--------------------------------------------------------------------------------------------------------


 INCAR:
 POTCAR:    PAW_PBE Ta 17Jan2003                  
 POTCAR:    PAW_PBE Hf 20Jan2003                  
 POTCAR:    PAW_PBE Zr_sv 04Jan2005               
 POTCAR:    PAW_PBE Nb_sv 25May2007               

 ----------------------------------------------------------------------------- 
|                                                                             |
|           W    W    AA    RRRRR   N    N  II  N    N   GGGG   !!!           |
|           W    W   A  A   R    R  NN   N  II  NN   N  G    G  !!!           |
|           W    W  A    A  R    R  N N  N  II  N N  N  G       !!!           |
|           W WW W  AAAAAA  RRRRR   N  N N  II  N  N N  G  GGG   !            |
|           WW  WW  A    A  R   R   N   NN  II  N   NN  G    G                |
|           W    W  A    A  R    R  N    N  II  N    N   GGGG   !!!           |
|                                                                             |
|      For optimal performance we recommend to set                            |
|        NCORE= 4 - approx SQRT( number of cores)                             |
|      NCORE specifies how many cores store one orbital (NPAR=cpu/NCORE).     |
|      This setting can  greatly improve the performance of VASP for DFT.     |
|      The default, NPAR=number of cores might be grossly inefficient         |
|      on modern multi-core architectures or massively parallel machines.     |
|      Do your own testing !!!!                                               |
|      Unfortunately you need to use the default for GW and RPA calculations. |
|      (for HF NCORE is supported but not extensively tested yet)             |
|                                                                             |
 ----------------------------------------------------------------------------- 


 ----------------------------------------------------------------------------- 
|                                                                             |
|           W    W    AA    RRRRR   N    N  II  N    N   GGGG   !!!           |
|           W    W   A  A   R    R  NN   N  II  NN   N  G    G  !!!           |
|           W    W  A    A  R    R  N N  N  II  N N  N  G       !!!           |
|           W WW W  AAAAAA  RRRRR   N  N N  II  N  N N  G  GGG   !            |
|           WW  WW  A    A  R   R   N   NN  II  N   NN  G    G                |
|           W    W  A    A  R    R  N    N  II  N    N   GGGG   !!!           |
|                                                                             |
|      You have enabled k-point parallelism (KPAR>1).                         |
|      This developmental code was originally  written by Paul Kent at ORNL,  |
|      and carefully double checked in Vienna.                                |
|      GW as well as linear response parallelism added by Martijn Marsman     |
|      and Georg Kresse.                                                      |
|      Carefully verify results versus KPAR=1.                                |
|      Report problems to Paul Kent and Vienna.                               |
|                                                                             |
 ----------------------------------------------------------------------------- 

 POTCAR:    PAW_PBE Ta 17Jan2003                  
   VRHFIN =Ta:  6s5d                                                            
   LEXCH  = PE                                                                  
   EATOM  =   130.6506 eV,    9.6025 Ry                                         
                                                                                
   TITEL  = PAW_PBE Ta 17Jan2003                                                
   LULTRA =        F    use ultrasoft PP ?                                      
   IUNSCR =        1    unscreen: 0-lin 1-nonlin 2-no                           
   RPACOR =    2.330    partial core radius                                     
   POMASS =  180.948; ZVAL   =    5.000    mass and valenz                      
   RCORE  =    2.900    outmost cutoff radius                                   
   RWIGS  =    2.840; RWIGS  =    1.503    wigner-seitz radius (au A)           
   ENMAX  =  223.667; ENMIN  =  167.750 eV                                      
   RCLOC  =    2.205    cutoff for local pot                                    
   LCOR   =        T    correct aug charges                                     
   LPAW   =        T    paw PP                                                  
   EAUG   =  332.075                                                            
   DEXC   =    0.000                                                            
   RMAX   =    2.970    core radius for proj-oper                               
   RAUG   =    1.300    factor for augmentation sphere                          
   RDEP   =    3.060    radius for radial grids                                 
   RDEPT  =    2.354    core radius for aug-charge                              
                                                                                
   Atomic configuration                                                         
   16 entries                                                                   
     n  l   j            E        occ.                                          
     1  0  0.50    -67341.2807   2.0000                                         
     2  0  0.50    -11566.9376   2.0000                                         
     2  1  1.50    -10134.1182   6.0000                                         
     3  0  0.50     -2648.5620   2.0000                                         
     3  1  1.50     -2222.6012   6.0000                                         
     3  2  2.50     -1726.3120  10.0000                                         
     4  0  0.50      -538.6961   2.0000                                         
     4  1  1.50      -399.0129   6.0000                                         
     4  2  2.50      -220.3959  10.0000                                         
     4  3  3.50       -23.0374  14.0000                                         
     5  0  0.50       -71.2901   2.0000                                         
     5  1  1.50       -37.8225   6.0000                                         
     5  2  2.50        -2.6455   4.0000                                         
     6  0  0.50        -4.9623   1.0000                                         
     6  1  1.50        -1.3606   0.0000                                         
     5  3  2.50        -1.3606   0.0000                                         
   Description                                                                  
     l       E           TYP  RCUT    TYP  RCUT                                 
     2     -2.6455043     23  2.500                                             
     2     -0.6258895     23  2.500                                             
     0     -4.9622780     23  2.500                                             
     0      4.7531321     23  2.500                                             
     1     -1.3605826     23  2.900                                             
     1     27.2116520     23  2.900                                             
  local pseudopotential read in
  partial core-charges read in
  partial kinetic energy density read in
  atomic valenz-charges read in
  non local Contribution for L=           2  read in
    real space projection operators read in
  non local Contribution for L=           2  read in
    real space projection operators read in
  non local Contribution for L=           0  read in
    real space projection operators read in
  non local Contribution for L=           0  read in
    real space projection operators read in
  non local Contribution for L=           1  read in
    real space projection operators read in
  non local Contribution for L=           1  read in
    real space projection operators read in
    PAW grid and wavefunctions read in
 
   number of l-projection  operators is LMAX  =           6
   number of lm-projection operators is LMMAX =          18
 
 POTCAR:    PAW_PBE Hf 20Jan2003                  
   VRHFIN =Hf: 6s5d                                                             
   LEXCH  = PE                                                                  
   EATOM  =    75.9011 eV,    5.5786 Ry                                         
                                                                                
   TITEL  = PAW_PBE Hf 20Jan2003                                                
   LULTRA =        F    use ultrasoft PP ?                                      
   IUNSCR =        1    unscreen: 0-lin 1-nonlin 2-no                           
   RPACOR =    2.500    partial core radius                                     
   POMASS =  178.490; ZVAL   =    4.000    mass and valenz                      
   RCORE  =    3.000    outmost cutoff radius                                   
   RWIGS  =    3.050; RWIGS  =    1.614    wigner-seitz radius (au A)           
   ENMAX  =  220.334; ENMIN  =  165.250 eV                                      
   RCLOC  =    2.212    cutoff for local pot                                    
   LCOR   =        T    correct aug charges                                     
   LPAW   =        T    paw PP                                                  
   EAUG   =  335.116                                                            
   DEXC   =    0.000                                                            
   RMAX   =    3.077    core radius for proj-oper                               
   RAUG   =    1.300    factor for augmentation sphere                          
   RDEP   =    3.047    radius for radial grids                                 
   RDEPT  =    2.344    core radius for aug-charge                              
                                                                                
   Atomic configuration                                                         
   16 entries                                                                   
     n  l   j            E        occ.                                          
     1  0  0.50    -65259.4397   2.0000                                         
     2  0  0.50    -11157.9882   2.0000                                         
     2  1  1.50     -9795.2113   6.0000                                         
     3  0  0.50     -2541.4058   2.0000                                         
     3  1  1.50     -2134.4770   6.0000                                         
     3  2  2.50     -1653.5418  10.0000                                         
     4  0  0.50      -510.9575   2.0000                                         
     4  1  1.50      -377.5023   6.0000                                         
     4  2  2.50      -205.2085  10.0000                                         
     4  3  3.50       -15.4905  14.0000                                         
     5  0  0.50       -65.6020   2.0000                                         
     5  1  1.50       -34.2798   6.0000                                         
     5  2  2.50        -1.9877   3.0000                                         
     6  0  0.50        -4.7357   1.0000                                         
     6  1  1.50        -1.3606   0.0000                                         
     5  3  2.50        -1.3606   0.0000                                         
   Description                                                                  
     l       E           TYP  RCUT    TYP  RCUT                                 
     2     -1.9876627     23  2.500                                             
     2      0.0744703     23  2.500                                             
     0     -4.7356889     23  2.600                                             
     0      3.2364747     23  2.600                                             
     1     -1.3605826     23  3.000                                             
     1     27.2116520     23  3.000                                             
  local pseudopotential read in
  partial core-charges read in
  partial kinetic energy density read in
  atomic valenz-charges read in
  non local Contribution for L=           2  read in
    real space projection operators read in
  non local Contribution for L=           2  read in
    real space projection operators read in
  non local Contribution for L=           0  read in
    real space projection operators read in
  non local Contribution for L=           0  read in
    real space projection operators read in
  non local Contribution for L=           1  read in
    real space projection operators read in
  non local Contribution for L=           1  read in
    real space projection operators read in
    PAW grid and wavefunctions read in
 
   number of l-projection  operators is LMAX  =           6
   number of lm-projection operators is LMMAX =          18
 
 POTCAR:    PAW_PBE Zr_sv 04Jan2005               
   VRHFIN =Zr: 4s4p5s4d                                                         
   LEXCH  = PE                                                                  
   EATOM  =  1284.2219 eV,   94.3876 Ry                                         
                                                                                
   TITEL  = PAW_PBE Zr_sv 04Jan2005                                             
   LULTRA =        F    use ultrasoft PP ?                                      
   IUNSCR =        1    unscreen: 0-lin 1-nonlin 2-no                           
   RPACOR =    2.200    partial core radius                                     
   POMASS =   91.224; ZVAL   =   12.000    mass and valenz                      
   RCORE  =    2.500    outmost cutoff radius                                   
   RWIGS  =    3.070; RWIGS  =    1.625    wigner-seitz radius (au A)           
   ENMAX  =  229.898; ENMIN  =  172.424 eV                                      
   ICORE  =        3    local potential                                         
   LCOR   =        T    correct aug charges                                     
   LPAW   =        T    paw PP                                                  
   EAUG   =  461.257                                                            
   DEXC   =    0.000                                                            
   RMAX   =    2.561    core radius for proj-oper                               
   RAUG   =    1.300    factor for augmentation sphere                          
   RDEP   =    2.597    radius for radial grids                                 
   RDEPT  =    2.007    core radius for aug-charge                              
                                                                                
   Atomic configuration                                                         
   11 entries                                                                   
     n  l   j            E        occ.                                          
     1  0  0.50    -17820.0161   2.0000                                         
     2  0  0.50     -2467.0882   2.0000                                         
     2  1  1.50     -2199.6095   6.0000                                         
     3  0  0.50      -402.4863   2.0000                                         
     3  1  1.50      -315.3675   6.0000                                         
     3  2  2.50      -172.4472  10.0000                                         
     4  0  0.50       -52.4146   2.0000                                         
     5  0  0.50        -3.8421   1.0000                                         
     4  1  1.50       -30.5054   6.0000                                         
     4  2  2.50        -2.3341   3.0000                                         
     4  3  2.50        -1.3606   0.0000                                         
   Description                                                                  
     l       E           TYP  RCUT    TYP  RCUT                                 
     0    -52.4145962     23  2.200                                             
     0     -3.8421270     23  2.500                                             
     1    -30.5053914     23  2.200                                             
     1     20.4087390     23  2.200                                             
     2     -2.3340816     23  2.500                                             
     2     -0.6120942     23  2.500                                             
     3     -4.0817478     23  2.500                                             
  local pseudopotential read in
  partial core-charges read in
  partial kinetic energy density read in
  atomic valenz-charges read in
  non local Contribution for L=           0  read in
    real space projection operators read in
  non local Contribution for L=           0  read in
    real space projection operators read in
  non local Contribution for L=           1  read in
    real space projection operators read in
  non local Contribution for L=           1  read in
    real space projection operators read in
  non local Contribution for L=           2  read in
    real space projection operators read in
  non local Contribution for L=           2  read in
    real space projection operators read in
    PAW grid and wavefunctions read in
 
   number of l-projection  operators is LMAX  =           6
   number of lm-projection operators is LMMAX =          18
 
 POTCAR:    PAW_PBE Nb_sv 25May2007               
   VRHFIN =Nb: 4p5s4d                                                           
   LEXCH  = PE                                                                  
   EATOM  =  1555.1913 eV,  114.3033 Ry                                         
                                                                                
   TITEL  = PAW_PBE Nb_sv 25May2007                                             
   LULTRA =        F    use ultrasoft PP ?                                      
   IUNSCR =        1    unscreen: 0-lin 1-nonlin 2-no                           
   RPACOR =    1.800    partial core radius                                     
   POMASS =   92.910; ZVAL   =   13.000    mass and valenz                      
   RCORE  =    2.400    outmost cutoff radius                                   
   RWIGS  =    2.400; RWIGS  =    1.270    wigner-seitz radius (au A)           
   ENMAX  =  293.235; ENMIN  =  219.927 eV                                      
   ICORE  =        3    local potential                                         
   LCOR   =        T    correct aug charges                                     
   LPAW   =        T    paw PP                                                  
   EAUG   =  455.659                                                            
   DEXC   =    0.000                                                            
   RMAX   =    2.456    core radius for proj-oper                               
   RAUG   =    1.300    factor for augmentation sphere                          
   RDEP   =    2.451    radius for radial grids                                 
   RDEPT  =    1.956    core radius for aug-charge                              
                                                                                
   Atomic configuration                                                         
   11 entries                                                                   
     n  l   j            E        occ.                                          
     1  0  0.50    -18805.2457   2.0000                                         
     2  0  0.50     -2630.2869   2.0000                                         
     2  1  1.50     -2348.4046   6.0000                                         
     3  0  0.50      -438.8757   2.0000                                         
     3  1  1.50      -346.7588   6.0000                                         
     3  2  2.50      -196.2560  10.0000                                         
     4  0  0.50       -58.3859   2.0000                                         
     5  0  0.50        -3.9816   1.0000                                         
     4  1  1.50       -34.5141   6.0000                                         
     4  2  2.50        -3.0408   4.0000                                         
     4  3  2.50        -1.3606   0.0000                                         
   Description                                                                  
     l       E           TYP  RCUT    TYP  RCUT                                 
     0    -58.3859094     23  2.200                                             
     0     -3.9816262     23  2.200                                             
     1    -34.5140738     23  2.200                                             
     1     13.6058260     23  2.200                                             
     2     -3.0408010     23  2.200                                             
     2     -0.1283038     23  2.200                                             
     3     -1.3605826     23  2.400                                             
  local pseudopotential read in
  partial core-charges read in
  partial kinetic energy density read in
  atomic valenz-charges read in
  non local Contribution for L=           0  read in
    real space projection operators read in
  non local Contribution for L=           0  read in
    real space projection operators read in
  non local Contribution for L=           1  read in
    real space projection operators read in
  non local Contribution for L=           1  read in
    real space projection operators read in
  non local Contribution for L=           2  read in
    real space projection operators read in
  non local Contribution for L=           2  read in
    real space projection operators read in
    PAW grid and wavefunctions read in
 
   number of l-projection  operators is LMAX  =           6
   number of lm-projection operators is LMMAX =          18
 
 Optimization of the real space projectors (new method)

 maximal supplied QI-value         = 12.85
 optimisation between [QCUT,QGAM] = [  8.87, 17.73] = [ 22.01, 88.06] Ry 
 Optimized for a Real-space Cutoff    1.90 Angstroem

   l    n(q)    QCUT    max X(q) W(low)/X(q) W(high)/X(q)  e(spline) 
   2      9     8.867    62.315    0.23E-03    0.62E-04    0.11E-05
   2      9     8.867    52.185    0.23E-03    0.62E-04    0.11E-05
   0     10     8.867   103.837    0.15E-04    0.23E-04    0.98E-07
   0     10     8.867    59.728    0.12E-04    0.21E-04    0.89E-07
   1     10     8.867    13.958    0.50E-04    0.22E-04    0.14E-06
   1     10     8.867     8.441    0.36E-04    0.19E-04    0.98E-07
 Optimization of the real space projectors (new method)

 maximal supplied QI-value         = 12.47
 optimisation between [QCUT,QGAM] = [  8.86, 17.71] = [ 21.96, 87.83] Ry 
 Optimized for a Real-space Cutoff    1.90 Angstroem

   l    n(q)    QCUT    max X(q) W(low)/X(q) W(high)/X(q)  e(spline) 
   2      9     8.855    48.111    0.22E-03    0.80E-04    0.10E-05
   2      9     8.855    40.545    0.21E-03    0.76E-04    0.95E-06
   0     10     8.855   121.658    0.27E-04    0.12E-04    0.11E-06
   0     10     8.855    71.177    0.22E-04    0.11E-04    0.99E-07
   1     10     8.855    14.183    0.65E-04    0.10E-03    0.98E-07
   1     10     8.855     8.257    0.43E-04    0.73E-04    0.72E-07
 Optimization of the real space projectors (new method)

 maximal supplied QI-value         = 15.12
 optimisation between [QCUT,QGAM] = [  8.77, 17.69] = [ 21.53, 87.61] Ry 
 Optimized for a Real-space Cutoff    1.74 Angstroem

   l    n(q)    QCUT    max X(q) W(low)/X(q) W(high)/X(q)  e(spline) 
   0      9     8.768    12.107    0.28E-04    0.53E-06    0.29E-07
   0      9     8.768     9.948    0.36E-04    0.50E-05    0.64E-07
   1      9     8.768     3.563    0.14E-04    0.16E-04    0.88E-07
   1      9     8.768     4.524    0.21E-03    0.33E-03    0.19E-06
   2      8     8.768    87.261    0.19E-03    0.25E-03    0.24E-06
   2      8     8.768    70.950    0.19E-03    0.24E-03    0.24E-06
 Optimization of the real space projectors (new method)

 maximal supplied QI-value         = 15.68
 optimisation between [QCUT,QGAM] = [  8.78, 17.72] = [ 21.60, 87.97] Ry 
 Optimized for a Real-space Cutoff    1.96 Angstroem

   l    n(q)    QCUT    max X(q) W(low)/X(q) W(high)/X(q)  e(spline) 
   0     10     8.783    10.201    0.29E-04    0.25E-05    0.69E-07
   0     10     8.783     8.174    0.45E-04    0.57E-05    0.14E-06
   1     10     8.783     3.488    0.76E-05    0.24E-04    0.95E-07
   1     10     8.783     4.917    0.78E-04    0.14E-03    0.46E-06
   2      9     8.783   153.744    0.22E-03    0.34E-04    0.15E-05
   2      9     8.783   126.342    0.22E-03    0.35E-04    0.15E-05
  PAW_PBE Ta 17Jan2003                  :
 energy of atom  1       EATOM= -130.6506
 kinetic energy error for atom=    0.0121 (will be added to EATOM!!)
  PAW_PBE Hf 20Jan2003                  :
 energy of atom  2       EATOM=  -75.9011
 kinetic energy error for atom=    0.0071 (will be added to EATOM!!)
  PAW_PBE Zr_sv 04Jan2005               :
 energy of atom  3       EATOM=-1284.2219
 kinetic energy error for atom=    0.0483 (will be added to EATOM!!)
  PAW_PBE Nb_sv 25May2007               :
 energy of atom  4       EATOM=-1555.1913
 kinetic energy error for atom=    0.0655 (will be added to EATOM!!)
 
 
 POSCAR: generated by pypospack                  
  positions in direct lattice
  velocities in cartesian coordinates
 exchange correlation table for  LEXCH =        8
   RHO(1)=    0.500       N(1)  =     2000
   RHO(2)=  100.500       N(2)  =     4000
 


--------------------------------------------------------------------------------------------------------


 ion  position               nearest neighbor table
   1  0.994  0.033  0.488-   3 2.85   5 2.94   6 3.04  13 3.04  15 3.04  11 3.09   9 3.09   4 3.10
                            10 3.15   8 3.24   7 3.40   7 3.56
   2  0.993  0.513  0.968-   3 2.91   5 2.96  13 3.02   6 3.02  11 3.02   9 3.07  10 3.11  15 3.11
                             4 3.12   8 3.23  12 3.37  12 3.59
   3  0.757  0.224  0.771-   1 2.85   2 2.91   6 2.93  12 2.97   7 3.00  16 3.07  14 3.09   8 3.12
                            15 3.12  11 3.15   5 3.39   5 3.57
   4  0.247  0.272  0.226-  16 2.96   8 3.02   6 3.05  14 3.06   7 3.08   1 3.10   2 3.12   5 3.15
                            12 3.16   9 3.26  11 3.43  11 3.53   9 3.83
   5  0.245  0.222  0.778-   1 2.94   2 2.96   6 3.02  16 3.03  12 3.03   7 3.06   8 3.08  14 3.14
                             4 3.15  10 3.18   3 3.39   3 3.57
   6  0.995  0.464  0.537-   3 2.93   2 3.02   5 3.02   1 3.04   4 3.05  11 3.05  10 3.08  15 3.08
                            13 3.22   9 3.26  14 3.42  14 3.54
   7  0.505  0.032  0.472-   3 3.00  13 3.04  11 3.05   5 3.06   4 3.08   9 3.09  15 3.10  14 3.12
                            16 3.16  10 3.19   1 3.40   1 3.56
   8  0.000  0.970  0.027-   9 2.96  13 2.97  15 2.98  11 2.99  10 2.99   4 3.02   5 3.08   3 3.12
                             2 3.23   1 3.24
   9  0.242  0.733  0.266-   8 2.96   2 3.07   1 3.09   7 3.09  16 3.12  12 3.13  14 3.24   6 3.26
                             4 3.26  10 3.27  13 3.38  13 3.58  10 3.77   4 3.83
  10  0.252  0.772  0.732-   8 2.99  16 3.03  14 3.04   6 3.08  12 3.09   2 3.11   1 3.15   5 3.18
                             7 3.19   9 3.27  15 3.46  15 3.50   9 3.77
  11  0.754  0.271  0.220-  16 2.95   8 2.99   2 3.02   6 3.05   7 3.05  14 3.06  12 3.08   1 3.09
                             3 3.15  13 3.26   4 3.43   4 3.53  13 3.84
  12  0.509  0.517  0.967-   3 2.97   5 3.03  13 3.07  15 3.07  11 3.08  14 3.09  10 3.09   9 3.13
                             4 3.16  16 3.34   2 3.37   2 3.59
  13  0.757  0.733  0.267-   8 2.97   2 3.02   7 3.04   1 3.04  12 3.07  16 3.14  14 3.18   6 3.22
                            15 3.25  11 3.26   9 3.38   9 3.58  15 3.81  11 3.84
  14  0.504  0.473  0.527-  10 3.04   4 3.06  11 3.06  15 3.06   3 3.09  12 3.09   7 3.12   5 3.14
                            13 3.18   9 3.24   6 3.42   6 3.54
  15  0.748  0.783  0.730-   8 2.98  16 3.00   1 3.04  14 3.06  12 3.07   6 3.08   7 3.10   2 3.11
                             3 3.12  13 3.25  10 3.46  10 3.50  13 3.81
  16  0.500  0.989  0.023-  11 2.95   4 2.96  15 3.00  10 3.03   5 3.03   3 3.07   9 3.12  13 3.14
                             7 3.16  12 3.34
 
  LATTYP: Found a triclinic cell.
 ALAT       =     7.0198358528
 B/A-ratio  =     1.0071181633
 C/A-ratio  =     0.9909398672
 COS(alpha) =     0.0011016973
 COS(beta)  =     0.0033553344
 COS(gamma) =     0.0578661993
  
  Lattice vectors:
  
 A1 = (   0.0114779353,  -0.2035341922,   7.0168751941)
 A2 = (   0.0032736428,  -7.0668513322,   0.2042861385)
 A3 = (   6.9562239008,  -0.0041018396,   0.0118526400)


Analysis of symmetry for initial positions (statically):
=====================================================================
 Subroutine PRICEL returns:
 Original cell was already a primitive cell.
 

 Routine SETGRP: Setting up the symmetry group for a 
 triclinic supercell.


 Subroutine GETGRP returns: Found  1 space group operations
 (whereof  1 operations were pure point group operations)
 out of a pool of  2 trial point group operations.


The static configuration has the point symmetry C_1 .


Analysis of symmetry for dynamics (positions and initial velocities):
=====================================================================
 Subroutine PRICEL returns:
 Original cell was already a primitive cell.
 

 Routine SETGRP: Setting up the symmetry group for a 
 triclinic supercell.


 Subroutine GETGRP returns: Found  1 space group operations
 (whereof  1 operations were pure point group operations)
 out of a pool of  2 trial point group operations.


The dynamic configuration has the point symmetry C_1 .


 Subroutine INISYM returns: Found  1 space group operations
 (whereof  1 operations are pure point group operations),
 and found     1 'primitive' translations

 
 
 KPOINTS: k-points                                

Automatic generation of k-mesh.
Space group operators:
 irot       det(A)        alpha          n_x          n_y          n_z        tau_x        tau_y        tau_z
    1     1.000000     0.000001     1.000000     0.000000     0.000000     0.000000     0.000000     0.000000
 
 Subroutine IBZKPT returns following result:
 ===========================================
 
 Found     14 irreducible k-points:
 
 Following reciprocal coordinates:
            Coordinates               Weight
  0.000000  0.000000  0.000000      1.000000
  0.333333 -0.000000  0.000000      2.000000
 -0.000000  0.333333  0.000000      2.000000
  0.333333  0.333333  0.000000      2.000000
 -0.333333  0.333333 -0.000000      2.000000
 -0.000000 -0.000000  0.333333      2.000000
  0.333333  0.000000  0.333333      2.000000
 -0.333333 -0.000000  0.333333      2.000000
  0.000000  0.333333  0.333333      2.000000
  0.333333  0.333333  0.333333      2.000000
 -0.333333  0.333333  0.333333      2.000000
 -0.000000 -0.333333  0.333333      2.000000
  0.333333 -0.333333  0.333333      2.000000
 -0.333333 -0.333333  0.333333      2.000000
 
 Following cartesian coordinates:
            Coordinates               Weight
  0.000000  0.000000  0.000000      1.000000
  0.239034  0.000100 -0.000388      2.000000
  0.000127  0.235489  0.006830      2.000000
  0.239161  0.235589  0.006442      2.000000
 -0.238907  0.235389  0.007219      2.000000
 -0.000400  0.006856  0.237167      2.000000
  0.238634  0.006955  0.236779      2.000000
 -0.239434  0.006756  0.237555      2.000000
 -0.000273  0.242345  0.243997      2.000000
  0.238761  0.242444  0.243609      2.000000
 -0.239307  0.242245  0.244385      2.000000
 -0.000527 -0.228633  0.230336      2.000000
  0.238507 -0.228534  0.229948      2.000000
 -0.239561 -0.228733  0.230724      2.000000
 


--------------------------------------------------------------------------------------------------------




 Dimension of arrays:
   k-points           NKPTS =     14   k-points in BZ     NKDIM =     14   number of bands    NBANDS=     84
   number of dos      NEDOS =    301   number of ions     NIONS =     16
   non local maximal  LDIM  =      6   non local SUM 2l+1 LMDIM =     18
   total plane-waves  NPLWV =  64000
   max r-space proj   IRMAX =   5911   max aug-charges    IRDMAX=  12839
   dimension x,y,z NGX =    40 NGY =   40 NGZ =   40
   dimension x,y,z NGXF=    80 NGYF=   80 NGZF=   80
   support grid    NGXF=    80 NGYF=   80 NGZF=   80
   ions per type =               3   4   8   1
 NGX,Y,Z   is equivalent  to a cutoff of   9.56,  9.41,  9.47 a.u.
 NGXF,Y,Z  is equivalent  to a cutoff of  19.12, 18.81, 18.95 a.u.


 I would recommend the setting:
   dimension x,y,z NGX =    39 NGY =   40 NGZ =   40
 SYSTEM =  automatically generated by mexm         
 POSCAR =  generated by pypospack                  

 Startparameter for this run:
   NWRITE =      2    write-flag & timer
   PREC   = accura    normal or accurate (medium, high low for compatibility)
   ISTART =      0    job   : 0-new  1-cont  2-samecut
   ICHARG =      2    charge: 1-file 2-atom 10-const
   ISPIN  =      1    spin polarized calculation?
   LNONCOLLINEAR =      F non collinear calculations
   LSORBIT =      F    spin-orbit coupling
   INIWAV =      1    electr: 0-lowe 1-rand  2-diag
   LASPH  =      F    aspherical Exc in radial PAW
   METAGGA=      F    non-selfconsistent MetaGGA calc.

 Electronic Relaxation 1
   ENCUT  =  300.0 eV  22.05 Ry    4.70 a.u.   9.82  9.98  9.91*2*pi/ulx,y,z
   ENINI  =  300.0     initial cutoff
   ENAUG  =  461.3 eV  augmentation charge cutoff
   NELM   =     70;   NELMIN=  2; NELMDL= -5     # of ELM steps 
   EDIFF  = 0.1E-04   stopping-criterion for ELM
   LREAL  =      T    real-space projection
   NLSPLINE    = F    spline interpolate recip. space projectors
   LCOMPAT=      F    compatible to vasp.4.4
   GGA_COMPAT  = T    GGA compatible to vasp.4.4-vasp.4.6
   LMAXPAW     = -100 max onsite density
   LMAXMIX     =    2 max onsite mixed and CHGCAR
   VOSKOWN=      0    Vosko Wilk Nusair interpolation
   ROPT   =   -0.00025  -0.00025  -0.00025  -0.00025
 Ionic relaxation
   EDIFFG = -.1E-01   stopping-criterion for IOM
   NSW    =    300    number of steps for IOM
   NBLOCK =      1;   KBLOCK =    300    inner block; outer block 
   IBRION =      2    ionic relax: 0-MD 1-quasi-New 2-CG
   NFREE  =      1    steps in history (QN), initial steepest desc. (CG)
   ISIF   =      3    stress and relaxation
   IWAVPR =     11    prediction:  0-non 1-charg 2-wave 3-comb
   ISYM   =      1    0-nonsym 1-usesym 2-fastsym
   LCORR  =      T    Harris-Foulkes like correction to forces

   POTIM  = 0.1500    time-step for ionic-motion
   TEIN   =    0.0    initial temperature
   TEBEG  =    0.0;   TEEND  =   0.0 temperature during run
   SMASS  =  -3.00    Nose mass-parameter (am)
   estimated Nose-frequenzy (Omega)   =  0.10E-29 period in steps =****** mass=  -0.111E-26a.u.
   SCALEE = 1.0000    scale energy and forces
   NPACO  =    256;   APACO  = 16.0  distance and # of slots for P.C.
   PSTRESS=    0.0 pullay stress

  Mass of Ions in am
   POMASS = 180.95178.49 91.22 92.91
  Ionic Valenz
   ZVAL   =   5.00  4.00 12.00 13.00
  Atomic Wigner-Seitz radii
   RWIGS  =  -1.00 -1.00 -1.00 -1.00
  virtual crystal weights 
   VCA    =   1.00  1.00  1.00  1.00
   NELECT =     140.0000    total number of electrons
   NUPDOWN=      -1.0000    fix difference up-down

 DOS related values:
   EMIN   =  10.00;   EMAX   =-10.00  energy-range for DOS
   EFERMI =   0.00
   ISMEAR =     1;   SIGMA  =   0.15  broadening in eV -4-tet -1-fermi 0-gaus

 Electronic relaxation 2 (details)
   IALGO  =     68    algorithm
   LDIAG  =      T    sub-space diagonalisation (order eigenvalues)
   LSUBROT=      F    optimize rotation matrix (better conditioning)
   TURBO    =      0    0=normal 1=particle mesh
   IRESTART =      0    0=no restart 2=restart with 2 vectors
   NREBOOT  =      0    no. of reboots
   NMIN     =      0    reboot dimension
   EREF     =   0.00    reference energy to select bands
   IMIX   =      4    mixing-type and parameters
     AMIX     =   0.40;   BMIX     =  1.00
     AMIX_MAG =   1.60;   BMIX_MAG =  1.00
     AMIN     =   0.10
     WC   =   100.;   INIMIX=   1;  MIXPRE=   1;  MAXMIX= -45

 Intra band minimization:
   WEIMIN = 0.0010     energy-eigenvalue tresh-hold
   EBREAK =  0.30E-07  absolut break condition
   DEPER  =   0.30     relativ break condition  

   TIME   =   0.40     timestep for ELM

  volume/ion in A,a.u.               =      21.54       145.36
  Fermi-wavevector in a.u.,A,eV,Ry     =   1.212435  2.291169 20.000530  1.469997
  Thomas-Fermi vector in A             =   2.347919
 
 Write flags
   LWAVE  =      F    write WAVECAR
   LCHARG =      F    write CHGCAR
   LVTOT  =      F    write LOCPOT, total local potential
   LVHAR  =      F    write LOCPOT, Hartree potential only
   LELF   =      F    write electronic localiz. function (ELF)
   LORBIT =      0    0 simple, 1 ext, 2 COOP (PROOUT)


 Dipole corrections
   LMONO  =      F    monopole corrections only (constant potential shift)
   LDIPOL =      F    correct potential (dipole corrections)
   IDIPOL =      0    1-x, 2-y, 3-z, 4-all directions 
   EPSILON=  1.0000000 bulk dielectric constant

 Exchange correlation treatment:
   GGA     =    --    GGA type
   LEXCH   =     8    internal setting for exchange type
   VOSKOWN=      0    Vosko Wilk Nusair interpolation
   LHFCALC =     F    Hartree Fock is set to
   LHFONE  =     F    Hartree Fock one center treatment
   AEXX    =    0.0000 exact exchange contribution

 Linear response parameters
   LEPSILON=     F    determine dielectric tensor
   LRPA    =     F    only Hartree local field effects (RPA)
   LNABLA  =     F    use nabla operator in PAW spheres
   LVEL    =     F    velocity operator in full k-point grid
   LINTERFAST=   F  fast interpolation
   KINTER  =     0    interpolate to denser k-point grid
   CSHIFT  =0.1000    complex shift for real part using Kramers Kronig
   OMEGAMAX=  -1.0    maximum frequency
   DEG_THRESHOLD= 0.2000000E-02 threshold for treating states as degnerate
   RTIME   =    0.100 relaxation time in fs

 Orbital magnetization related:
   ORBITALMAG=     F  switch on orbital magnetization
   LCHIMAG   =     F  perturbation theory with respect to B field
   DQ        =  0.001000  dq finite difference perturbation B field



--------------------------------------------------------------------------------------------------------


 conjugate gradient relaxation of ions
 charge density and potential will be updated during run
 non-spin polarized calculation
 RMM-DIIS sequential band-by-band and
  variant of blocked Davidson during initial phase
 perform sub-space diagonalisation
    before iterative eigenvector-optimisation
 modified Broyden-mixing scheme, WC =      100.0
 initial mixing is a Kerker type mixing with AMIX =  0.4000 and BMIX =      1.0000
 Hartree-type preconditioning will be used
 using additional bands           14
 real space projection scheme for non local part
 use partial core corrections
 calculate Harris-corrections to forces 
   (improved forces if not selfconsistent)
 use gradient corrections 
 use of overlap-Matrix (Vanderbilt PP)
 Methfessel and Paxton  Order N= 1 SIGMA  =   0.15


--------------------------------------------------------------------------------------------------------


  energy-cutoff  :      300.00
  volume of cell :      344.65
      direct lattice vectors                 reciprocal lattice vectors
     6.956223901 -0.004101840  0.011852640     0.143756588  0.000059846 -0.000233416
    -0.003273643  7.066851332 -0.204286138     0.000076512  0.141624521  0.004107890
     0.011477935 -0.203534192  7.016875194    -0.000240601  0.004123091  0.142633569

  length of vectors
     6.956235208  7.069804191  7.019835853     0.143756790  0.141684105  0.142693352


 
 k-points in units of 2pi/SCALE and weight: k-points                                
   0.00000000  0.00000000  0.00000000       0.037
   0.23903414  0.00009951 -0.00038812       0.074
   0.00012722  0.23548900  0.00683048       0.074
   0.23916136  0.23558852  0.00644236       0.074
  -0.23890692  0.23538949  0.00721859       0.074
  -0.00040006  0.00685575  0.23716682       0.074
   0.23863408  0.00695526  0.23677870       0.074
  -0.23943421  0.00675624  0.23755494       0.074
  -0.00027284  0.24234476  0.24399730       0.074
   0.23876130  0.24244427  0.24360918       0.074
  -0.23930698  0.24224525  0.24438541       0.074
  -0.00052728 -0.22863325  0.23033634       0.074
   0.23850686 -0.22853374  0.22994823       0.074
  -0.23956143 -0.22873276  0.23072446       0.074
 
 k-points in reciprocal lattice and weights: k-points                                
   0.00000000  0.00000000  0.00000000       0.037
   0.33333333 -0.00000000  0.00000000       0.074
  -0.00000000  0.33333333  0.00000000       0.074
   0.33333333  0.33333333  0.00000000       0.074
  -0.33333333  0.33333333 -0.00000000       0.074
  -0.00000000 -0.00000000  0.33333333       0.074
   0.33333333  0.00000000  0.33333333       0.074
  -0.33333333 -0.00000000  0.33333333       0.074
   0.00000000  0.33333333  0.33333333       0.074
   0.33333333  0.33333333  0.33333333       0.074
  -0.33333333  0.33333333  0.33333333       0.074
  -0.00000000 -0.33333333  0.33333333       0.074
   0.33333333 -0.33333333  0.33333333       0.074
  -0.33333333 -0.33333333  0.33333333       0.074
 
 position of ions in fractional coordinates (direct lattice) 
   0.99356435  0.03340931  0.48804368
   0.99269839  0.51319430  0.96800116
   0.75741716  0.22421125  0.77109546
   0.24660586  0.27153067  0.22633041
   0.24458188  0.22208508  0.77783901
   0.99514699  0.46392469  0.53722492
   0.50533496  0.03153892  0.47248479
   0.00013163  0.96977631  0.02727199
   0.24207767  0.73333656  0.26564928
   0.25150618  0.77231898  0.73190499
   0.75404160  0.27064143  0.21981361
   0.50882043  0.51661238  0.96719062
   0.75673775  0.73256711  0.26746867
   0.50361311  0.47289958  0.52683631
   0.74820181  0.78260568  0.73021726
   0.49952023  0.98934775  0.02262782
 
 position of ions in cartesian coordinates  (Angst):
   6.91694845  0.13268957  3.42949289
   6.91486290  3.42557460  6.69927094
   5.27687997  1.42441650  5.37385472
   1.71715448  1.87178937  1.53558524
   1.70956731  1.41012216  5.41552932
   6.92711278  3.16506126  3.68666197
   3.52054300  0.12464125  3.31491338
  -0.00194603  6.84771369 -0.00674613
   1.68459490  5.12731879  1.71708664
   1.75540575  5.30786412  4.98089292
   5.24691921  1.86475020  1.49605376
   3.54887900  3.45187942  6.68715002
   5.26470904  5.11939980  1.73611030
   3.50774441  3.23261605  3.60610694
   5.21047875  5.37886483  4.97283609
   3.47179554  6.98491895 -0.03741279
 


--------------------------------------------------------------------------------------------------------


 k-point  1 :   0.0000 0.0000 0.0000  plane waves:    4031
 k-point  2 :   0.3333-0.0000 0.0000  plane waves:    4070
 k-point  3 :  -0.0000 0.3333 0.0000  plane waves:    4053
 k-point  4 :   0.3333 0.3333 0.0000  plane waves:    4063
 k-point  5 :  -0.3333 0.3333-0.0000  plane waves:    4063
 k-point  6 :  -0.0000-0.0000 0.3333  plane waves:    4051
 k-point  7 :   0.3333 0.0000 0.3333  plane waves:    4059
 k-point  8 :  -0.3333-0.0000 0.3333  plane waves:    4056
 k-point  9 :   0.0000 0.3333 0.3333  plane waves:    4096
 k-point 10 :   0.3333 0.3333 0.3333  plane waves:    4072
 k-point 11 :  -0.3333 0.3333 0.3333  plane waves:    4066
 k-point 12 :  -0.0000-0.3333 0.3333  plane waves:    4080
 k-point 13 :   0.3333-0.3333 0.3333  plane waves:    4076
 k-point 14 :  -0.3333-0.3333 0.3333  plane waves:    4068

 maximum and minimum number of plane-waves per node :       839      786

 maximum number of plane-waves:      4096
 maximum index in each direction: 
   IXMAX=   10   IYMAX=   10   IZMAX=    9
   IXMIN=  -10   IYMIN=  -10   IZMIN=  -10

 WARNING: aliasing errors must be expected set NGX to  42 to avoid them
 WARNING: aliasing errors must be expected set NGY to  42 to avoid them
 NGZ is ok and might be reduce to  40
 aliasing errors are usually negligible using standard VASP settings
 and one can safely disregard these warnings

 real space projection operators:
  total allocation   :      10399.64 KBytes
  max/ min on nodes  :       2117.95       2029.78


 parallel 3D FFT for wavefunctions:
    minimum data exchange during FFTs selected (reduces bandwidth)
 parallel 3D FFT for charge:
    minimum data exchange during FFTs selected (reduces bandwidth)


 total amount of memory used by VASP on root node    42081. kBytes
========================================================================

   base      :      30000. kBytes
   nonlr-proj:       4092. kBytes
   fftplans  :       1260. kBytes
   grid      :       2396. kBytes
   one-center:         62. kBytes
   wavefun   :       4271. kBytes
 
     INWAV:  cpu time    0.0000: real time    0.0000
 Broyden mixing: mesh for mixing (old mesh)
   NGX = 19   NGY = 19   NGZ = 19
  (NGX  = 80   NGY  = 80   NGZ  = 80)
  gives a total of   6859 points

 initial charge density was supplied:
 charge density of overlapping atoms calculated
 number of electron     140.0000000 magnetization 
 keeping initial charge density in first step


--------------------------------------------------------------------------------------------------------


 Maximum index for non-local projection operator         1140
 Maximum index for augmentation-charges          637 (set IRDMAX)


--------------------------------------------------------------------------------------------------------


 First call to EWALD:  gamma=   0.253
 Maximum number of real-space cells 3x 3x 3
 Maximum number of reciprocal cells 3x 3x 3

 FEWALD executed in parallel
    FEWALD:  cpu time    0.0968: real time    0.0972


----------------------------------------- Iteration    1(   1)  ---------------------------------------


    POTLOK:  cpu time    0.0145: real time    0.0348
    SETDIJ:  cpu time    0.0114: real time    0.0116
     EDDAV:  cpu time    0.1895: real time    0.2304
       DOS:  cpu time    0.0020: real time    0.0020
    --------------------------------------------
      LOOP:  cpu time    0.2204: real time    0.2958

 eigenvalue-minimisations  :  2504
 total energy-change (2. order) : 0.8889535E+03  (-0.5274168E+04)
 number of electron     140.0000000 magnetization 
 augmentation part      140.0000000 magnetization 

 Free energy of the ion-electron system (eV)
  ---------------------------------------------------
  alpha Z        PSCENC =       675.65370788
  Ewald energy   TEWEN  =     -9683.77269880
  -Hartree energ DENC   =     -3078.87704315
  -exchange      EXHF   =         0.00000000
  -V(xc)+E(xc)   XCENC  =        43.75175766
  PAW double counting   =     10328.32033343    -9700.96547995
  entropy T*S    EENTRO =        -0.00451797
  eigenvalues    EBANDS =      -219.15862427
  atomic energy  EATOM  =     12524.00607526
  Solvation  Ediel_sol  =         0.00000000
  ---------------------------------------------------
  free energy    TOTEN  =       888.95351010 eV

  energy without entropy =      888.95802807  energy(sigma->0) =      888.95501609


--------------------------------------------------------------------------------------------------------




----------------------------------------- Iteration    1(   2)  ---------------------------------------


     EDDAV:  cpu time    0.1715: real time    0.1722
       DOS:  cpu time    0.0011: real time    0.0011
    --------------------------------------------
      LOOP:  cpu time    0.1734: real time    0.1900

 eigenvalue-minimisations  :  2596
 total energy-change (2. order) :-0.9210165E+03  (-0.8923659E+03)
 number of electron     140.0000000 magnetization 
 augmentation part      140.0000000 magnetization 

 Free energy of the ion-electron system (eV)
  ---------------------------------------------------
  alpha Z        PSCENC =       675.65370788
  Ewald energy   TEWEN  =     -9683.77269880
  -Hartree energ DENC   =     -3078.87704315
  -exchange      EXHF   =         0.00000000
  -V(xc)+E(xc)   XCENC  =        43.75175766
  PAW double counting   =     10328.32033343    -9700.96547995
  entropy T*S    EENTRO =        -0.00693044
  eigenvalues    EBANDS =     -1140.17275945
  atomic energy  EATOM  =     12524.00607526
  Solvation  Ediel_sol  =         0.00000000
  ---------------------------------------------------
  free energy    TOTEN  =       -32.06303755 eV

  energy without entropy =      -32.05610712  energy(sigma->0) =      -32.06072741


--------------------------------------------------------------------------------------------------------




----------------------------------------- Iteration    1(   3)  ---------------------------------------


     EDDAV:  cpu time    0.2491: real time    0.2508
       DOS:  cpu time    0.0006: real time    0.0006
    --------------------------------------------
      LOOP:  cpu time    0.2501: real time    0.2559

 eigenvalue-minimisations  :  4184
 total energy-change (2. order) :-0.1114063E+03  (-0.1065068E+03)
 number of electron     140.0000000 magnetization 
 augmentation part      140.0000000 magnetization 

 Free energy of the ion-electron system (eV)
  ---------------------------------------------------
  alpha Z        PSCENC =       675.65370788
  Ewald energy   TEWEN  =     -9683.77269880
  -Hartree energ DENC   =     -3078.87704315
  -exchange      EXHF   =         0.00000000
  -V(xc)+E(xc)   XCENC  =        43.75175766
  PAW double counting   =     10328.32033343    -9700.96547995
  entropy T*S    EENTRO =        -0.00680406
  eigenvalues    EBANDS =     -1251.57921708
  atomic energy  EATOM  =     12524.00607526
  Solvation  Ediel_sol  =         0.00000000
  ---------------------------------------------------
  free energy    TOTEN  =      -143.46936881 eV

  energy without entropy =     -143.46256474  energy(sigma->0) =     -143.46710079


--------------------------------------------------------------------------------------------------------




----------------------------------------- Iteration    1(   4)  ---------------------------------------


     EDDAV:  cpu time    0.2497: real time    0.2529
       DOS:  cpu time    0.0007: real time    0.0007
    --------------------------------------------
      LOOP:  cpu time    0.2508: real time    0.2583

 eigenvalue-minimisations  :  3672
 total energy-change (2. order) :-0.1367450E+02  (-0.1328632E+02)
 number of electron     140.0000000 magnetization 
 augmentation part      140.0000000 magnetization 

 Free energy of the ion-electron system (eV)
  ---------------------------------------------------
  alpha Z        PSCENC =       675.65370788
  Ewald energy   TEWEN  =     -9683.77269880
  -Hartree energ DENC   =     -3078.87704315
  -exchange      EXHF   =         0.00000000
  -V(xc)+E(xc)   XCENC  =        43.75175766
  PAW double counting   =     10328.32033343    -9700.96547995
  entropy T*S    EENTRO =        -0.01366241
  eigenvalues    EBANDS =     -1265.24685731
  atomic energy  EATOM  =     12524.00607526
  Solvation  Ediel_sol  =         0.00000000
  ---------------------------------------------------
  free energy    TOTEN  =      -157.14386738 eV

  energy without entropy =     -157.13020498  energy(sigma->0) =     -157.13931325


--------------------------------------------------------------------------------------------------------




----------------------------------------- Iteration    1(   5)  ---------------------------------------


     EDDAV:  cpu time    0.2394: real time    0.2406
       DOS:  cpu time    0.0007: real time    0.0007
    CHARGE:  cpu time    0.0098: real time    0.0098
    MIXING:  cpu time    0.0008: real time    0.0008
    --------------------------------------------
      LOOP:  cpu time    0.2512: real time    0.2569

 eigenvalue-minimisations  :  3832
 total energy-change (2. order) :-0.1199747E+01  (-0.1182978E+01)
 number of electron     140.0000004 magnetization 
 augmentation part        4.2948495 magnetization 

 Broyden mixing:
  rms(total) = 0.42758E+01    rms(broyden)= 0.42756E+01
  rms(prec ) = 0.46108E+01
  weight for this iteration     100.00

 Free energy of the ion-electron system (eV)
  ---------------------------------------------------
  alpha Z        PSCENC =       675.65370788
  Ewald energy   TEWEN  =     -9683.77269880
  -Hartree energ DENC   =     -3078.87704315
  -exchange      EXHF   =         0.00000000
  -V(xc)+E(xc)   XCENC  =        43.75175766
  PAW double counting   =     10328.32033343    -9700.96547995
  entropy T*S    EENTRO =        -0.01503173
  eigenvalues    EBANDS =     -1266.44523542
  atomic energy  EATOM  =     12524.00607526
  Solvation  Ediel_sol  =         0.00000000
  ---------------------------------------------------
  free energy    TOTEN  =      -158.34361482 eV

  energy without entropy =     -158.32858309  energy(sigma->0) =     -158.33860425


--------------------------------------------------------------------------------------------------------




----------------------------------------- Iteration    1(   6)  ---------------------------------------


    POTLOK:  cpu time    0.0113: real time    0.0114
    SETDIJ:  cpu time    0.0017: real time    0.0017
    EDDIAG:  cpu time    0.0218: real time    0.0220
  RMM-DIIS:  cpu time    0.1050: real time    0.1055
    ORTHCH:  cpu time    0.0025: real time    0.0025
       DOS:  cpu time    0.0009: real time    0.0009
    CHARGE:  cpu time    0.0092: real time    0.0092
    MIXING:  cpu time    0.0008: real time    0.0017
    --------------------------------------------
      LOOP:  cpu time    0.1538: real time    0.1608

 eigenvalue-minimisations  :  2769
 total energy-change (2. order) : 0.4697950E+01  (-0.7667860E+00)
 number of electron     140.0000004 magnetization 
 augmentation part        4.5877253 magnetization 

 Broyden mixing:
  rms(total) = 0.19713E+01    rms(broyden)= 0.19713E+01
  rms(prec ) = 0.21807E+01
  weight for this iteration     100.00

 eigenvalues of (default mixing * dielectric matrix)
  average eigenvalue GAMMA=   1.8148
  1.8148

 Free energy of the ion-electron system (eV)
  ---------------------------------------------------
  alpha Z        PSCENC =       675.65370788
  Ewald energy   TEWEN  =     -9683.77269880
  -Hartree energ DENC   =     -2985.82517864
  -exchange      EXHF   =         0.00000000
  -V(xc)+E(xc)   XCENC  =        40.96410471
  PAW double counting   =     13061.89048105   -12438.82792279
  entropy T*S    EENTRO =        -0.01607205
  eigenvalues    EBANDS =     -1347.71816121
  atomic energy  EATOM  =     12524.00607526
  Solvation  Ediel_sol  =         0.00000000
  ---------------------------------------------------
  free energy    TOTEN  =      -153.64566458 eV

  energy without entropy =     -153.62959253  energy(sigma->0) =     -153.64030723


--------------------------------------------------------------------------------------------------------




----------------------------------------- Iteration    1(   7)  ---------------------------------------


    POTLOK:  cpu time    0.0108: real time    0.0108
    SETDIJ:  cpu time    0.0018: real time    0.0018
    EDDIAG:  cpu time    0.0216: real time    0.0217
  RMM-DIIS:  cpu time    0.1038: real time    0.1044
    ORTHCH:  cpu time    0.0025: real time    0.0025
       DOS:  cpu time    0.0008: real time    0.0008
    CHARGE:  cpu time    0.0088: real time    0.0089
    MIXING:  cpu time    0.0005: real time    0.0005
    --------------------------------------------
      LOOP:  cpu time    0.1511: real time    0.1566

 eigenvalue-minimisations  :  2771
 total energy-change (2. order) : 0.1304340E+01  (-0.6645577E+00)
 number of electron     140.0000004 magnetization 
 augmentation part        4.7427484 magnetization 

 Broyden mixing:
  rms(total) = 0.33559E+00    rms(broyden)= 0.33553E+00
  rms(prec ) = 0.65986E+00
  weight for this iteration     100.00

 eigenvalues of (default mixing * dielectric matrix)
  average eigenvalue GAMMA=   1.3245
  0.8464  1.8025

 Free energy of the ion-electron system (eV)
  ---------------------------------------------------
  alpha Z        PSCENC =       675.65370788
  Ewald energy   TEWEN  =     -9683.77269880
  -Hartree energ DENC   =     -2945.22491743
  -exchange      EXHF   =         0.00000000
  -V(xc)+E(xc)   XCENC  =        40.55057769
  PAW double counting   =     15947.36133356   -15321.15812692
  entropy T*S    EENTRO =        -0.01285127
  eigenvalues    EBANDS =     -1389.74442471
  atomic energy  EATOM  =     12524.00607526
  Solvation  Ediel_sol  =         0.00000000
  ---------------------------------------------------
  free energy    TOTEN  =      -152.34132474 eV

  energy without entropy =     -152.32847346  energy(sigma->0) =     -152.33704098


--------------------------------------------------------------------------------------------------------




----------------------------------------- Iteration    1(   8)  ---------------------------------------


    POTLOK:  cpu time    0.0107: real time    0.0108
    SETDIJ:  cpu time    0.0017: real time    0.0018
    EDDIAG:  cpu time    0.0211: real time    0.0212
  RMM-DIIS:  cpu time    0.1253: real time    0.1258
    ORTHCH:  cpu time    0.0025: real time    0.0025
       DOS:  cpu time    0.0008: real time    0.0008
    CHARGE:  cpu time    0.0089: real time    0.0089
    MIXING:  cpu time    0.0005: real time    0.0005
    --------------------------------------------
      LOOP:  cpu time    0.1721: real time    0.1773

 eigenvalue-minimisations  :  3365
 total energy-change (2. order) : 0.2698593E+00  (-0.9397093E-01)
 number of electron     140.0000004 magnetization 
 augmentation part        4.6198213 magnetization 

 Broyden mixing:
  rms(total) = 0.26398E+00    rms(broyden)= 0.26394E+00
  rms(prec ) = 0.31736E+00
  weight for this iteration     100.00

 eigenvalues of (default mixing * dielectric matrix)
  average eigenvalue GAMMA=   1.2141
  1.4914  1.4914  0.6595

 Free energy of the ion-electron system (eV)
  ---------------------------------------------------
  alpha Z        PSCENC =       675.65370788
  Ewald energy   TEWEN  =     -9683.77269880
  -Hartree energ DENC   =     -2936.35725200
  -exchange      EXHF   =         0.00000000
  -V(xc)+E(xc)   XCENC  =        40.55724439
  PAW double counting   =     16153.15275620   -15525.22470316
  entropy T*S    EENTRO =        -0.01291783
  eigenvalues    EBANDS =     -1400.07367731
  atomic energy  EATOM  =     12524.00607526
  Solvation  Ediel_sol  =         0.00000000
  ---------------------------------------------------
  free energy    TOTEN  =      -152.07146539 eV

  energy without entropy =     -152.05854756  energy(sigma->0) =     -152.06715945


--------------------------------------------------------------------------------------------------------




----------------------------------------- Iteration    1(   9)  ---------------------------------------


    POTLOK:  cpu time    0.0107: real time    0.0107
    SETDIJ:  cpu time    0.0018: real time    0.0018
    EDDIAG:  cpu time    0.0210: real time    0.0213
  RMM-DIIS:  cpu time    0.1261: real time    0.1267
    ORTHCH:  cpu time    0.0025: real time    0.0025
       DOS:  cpu time    0.0008: real time    0.0008
    CHARGE:  cpu time    0.0089: real time    0.0089
    MIXING:  cpu time    0.0005: real time    0.0006
    --------------------------------------------
      LOOP:  cpu time    0.1727: real time    0.1779

 eigenvalue-minimisations  :  3434
 total energy-change (2. order) : 0.9928993E-02  (-0.1794675E-01)
 number of electron     140.0000004 magnetization 
 augmentation part        4.5600649 magnetization 

 Broyden mixing:
  rms(total) = 0.11976E+00    rms(broyden)= 0.11972E+00
  rms(prec ) = 0.17030E+00
  weight for this iteration     100.00

 eigenvalues of (default mixing * dielectric matrix)
  average eigenvalue GAMMA=   1.3769
  1.9719  1.9719  0.9289  0.6350

 Free energy of the ion-electron system (eV)
  ---------------------------------------------------
  alpha Z        PSCENC =       675.65370788
  Ewald energy   TEWEN  =     -9683.77269880
  -Hartree energ DENC   =     -2945.38708834
  -exchange      EXHF   =         0.00000000
  -V(xc)+E(xc)   XCENC  =        41.11505825
  PAW double counting   =     16130.87641485   -15499.07746316
  entropy T*S    EENTRO =        -0.01350549
  eigenvalues    EBANDS =     -1395.46203685
  atomic energy  EATOM  =     12524.00607526
  Solvation  Ediel_sol  =         0.00000000
  ---------------------------------------------------
  free energy    TOTEN  =      -152.06153640 eV

  energy without entropy =     -152.04803091  energy(sigma->0) =     -152.05703457


--------------------------------------------------------------------------------------------------------




----------------------------------------- Iteration    1(  10)  ---------------------------------------


    POTLOK:  cpu time    0.0106: real time    0.0107
    SETDIJ:  cpu time    0.0018: real time    0.0018
    EDDIAG:  cpu time    0.0213: real time    0.0214
  RMM-DIIS:  cpu time    0.1369: real time    0.1409
    ORTHCH:  cpu time    0.0025: real time    0.0025
       DOS:  cpu time    0.0101: real time    0.0101
    CHARGE:  cpu time    0.0104: real time    0.0133
    MIXING:  cpu time    0.0006: real time    0.0006
    --------------------------------------------
      LOOP:  cpu time    0.1946: real time    0.2059

 eigenvalue-minimisations  :  3420
 total energy-change (2. order) : 0.6307620E-03  (-0.8378799E-02)
 number of electron     140.0000004 magnetization 
 augmentation part        4.5347375 magnetization 

 Broyden mixing:
  rms(total) = 0.54057E-01    rms(broyden)= 0.54015E-01
  rms(prec ) = 0.11376E+00
  weight for this iteration     100.00

 eigenvalues of (default mixing * dielectric matrix)
  average eigenvalue GAMMA=   1.2421
  2.1365  1.6954  1.2110  0.6698  0.4977

 Free energy of the ion-electron system (eV)
  ---------------------------------------------------
  alpha Z        PSCENC =       675.65370788
  Ewald energy   TEWEN  =     -9683.77269880
  -Hartree energ DENC   =     -2950.04056645
  -exchange      EXHF   =         0.00000000
  -V(xc)+E(xc)   XCENC  =        41.49276273
  PAW double counting   =     16221.63377028   -15586.46346132
  entropy T*S    EENTRO =        -0.01205388
  eigenvalues    EBANDS =     -1394.55844134
  atomic energy  EATOM  =     12524.00607526
  Solvation  Ediel_sol  =         0.00000000
  ---------------------------------------------------
  free energy    TOTEN  =      -152.06090564 eV

  energy without entropy =     -152.04885176  energy(sigma->0) =     -152.05688768


--------------------------------------------------------------------------------------------------------




----------------------------------------- Iteration    1(  11)  ---------------------------------------


    POTLOK:  cpu time    0.0108: real time    0.0131
    SETDIJ:  cpu time    0.0019: real time    0.0019
    EDDIAG:  cpu time    0.0976: real time    0.1871
  RMM-DIIS:  cpu time    0.1781: real time    0.1817
    ORTHCH:  cpu time    0.0024: real time    0.0024
       DOS:  cpu time    0.0008: real time    0.0008
    CHARGE:  cpu time    0.0089: real time    0.0090
    MIXING:  cpu time    0.0007: real time    0.0007
    --------------------------------------------
      LOOP:  cpu time    0.3016: real time    0.4051

 eigenvalue-minimisations  :  3459
 total energy-change (2. order) : 0.4566692E-02  (-0.2517031E-02)
 number of electron     140.0000004 magnetization 
 augmentation part        4.5321711 magnetization 

 Broyden mixing:
  rms(total) = 0.22814E-01    rms(broyden)= 0.22784E-01
  rms(prec ) = 0.33043E-01
  weight for this iteration     100.00

 eigenvalues of (default mixing * dielectric matrix)
  average eigenvalue GAMMA=   1.2681
  2.1525  1.7387  1.7387  0.9190  0.6031  0.4566

 Free energy of the ion-electron system (eV)
  ---------------------------------------------------
  alpha Z        PSCENC =       675.65370788
  Ewald energy   TEWEN  =     -9683.77269880
  -Hartree energ DENC   =     -2950.75395887
  -exchange      EXHF   =         0.00000000
  -V(xc)+E(xc)   XCENC  =        41.54401290
  PAW double counting   =     16295.76234945   -15659.97767135
  entropy T*S    EENTRO =        -0.01272118
  eigenvalues    EBANDS =     -1394.50543423
  atomic energy  EATOM  =     12524.00607526
  Solvation  Ediel_sol  =         0.00000000
  ---------------------------------------------------
  free energy    TOTEN  =      -152.05633894 eV

  energy without entropy =     -152.04361776  energy(sigma->0) =     -152.05209855


--------------------------------------------------------------------------------------------------------




----------------------------------------- Iteration    1(  12)  ---------------------------------------


    POTLOK:  cpu time    0.0107: real time    0.0107
    SETDIJ:  cpu time    0.0018: real time    0.0018
    EDDIAG:  cpu time    0.0277: real time    0.0279
  RMM-DIIS:  cpu time    0.2246: real time    0.2260
    ORTHCH:  cpu time    0.0211: real time    0.0213
       DOS:  cpu time    0.0456: real time    0.0458
    CHARGE:  cpu time    0.0130: real time    0.0131
    MIXING:  cpu time    0.0008: real time    0.0008
    --------------------------------------------
      LOOP:  cpu time    0.3459: real time    0.3527

 eigenvalue-minimisations  :  3464
 total energy-change (2. order) :-0.3619655E-03  (-0.9643856E-03)
 number of electron     140.0000004 magnetization 
 augmentation part        4.5322254 magnetization 

 Broyden mixing:
  rms(total) = 0.16505E-01    rms(broyden)= 0.16502E-01
  rms(prec ) = 0.20552E-01
  weight for this iteration     100.00

 eigenvalues of (default mixing * dielectric matrix)
  average eigenvalue GAMMA=   1.2782
  2.3371  1.9955  1.9955  0.9681  0.5918  0.5918  0.4674

 Free energy of the ion-electron system (eV)
  ---------------------------------------------------
  alpha Z        PSCENC =       675.65370788
  Ewald energy   TEWEN  =     -9683.77269880
  -Hartree energ DENC   =     -2950.05860645
  -exchange      EXHF   =         0.00000000
  -V(xc)+E(xc)   XCENC  =        41.51089298
  PAW double counting   =     16324.78413107   -15688.90642557
  entropy T*S    EENTRO =        -0.01251051
  eigenvalues    EBANDS =     -1395.26126678
  atomic energy  EATOM  =     12524.00607526
  Solvation  Ediel_sol  =         0.00000000
  ---------------------------------------------------
  free energy    TOTEN  =      -152.05670091 eV

  energy without entropy =     -152.04419040  energy(sigma->0) =     -152.05253074


--------------------------------------------------------------------------------------------------------




----------------------------------------- Iteration    1(  13)  ---------------------------------------


    POTLOK:  cpu time    0.0116: real time    0.0116
    SETDIJ:  cpu time    0.0071: real time    0.0072
    EDDIAG:  cpu time    0.0272: real time    0.0360
  RMM-DIIS:  cpu time    0.2217: real time    0.2254
    ORTHCH:  cpu time    0.0058: real time    0.0058
       DOS:  cpu time    0.0053: real time    0.0053
    CHARGE:  cpu time    0.0222: real time    0.0224
    MIXING:  cpu time    0.0008: real time    0.0008
    --------------------------------------------
      LOOP:  cpu time    0.3022: real time    0.3197

 eigenvalue-minimisations  :  3821
 total energy-change (2. order) :-0.3521314E-03  (-0.3913514E-03)
 number of electron     140.0000004 magnetization 
 augmentation part        4.5313380 magnetization 

 Broyden mixing:
  rms(total) = 0.67262E-02    rms(broyden)= 0.67250E-02
  rms(prec ) = 0.11127E-01
  weight for this iteration     100.00

 eigenvalues of (default mixing * dielectric matrix)
  average eigenvalue GAMMA=   1.2282
  2.5732  2.0347  1.7154  1.1142  0.6883  0.6883  0.5422  0.4693

 Free energy of the ion-electron system (eV)
  ---------------------------------------------------
  alpha Z        PSCENC =       675.65370788
  Ewald energy   TEWEN  =     -9683.77269880
  -Hartree energ DENC   =     -2950.28667728
  -exchange      EXHF   =         0.00000000
  -V(xc)+E(xc)   XCENC  =        41.51399187
  PAW double counting   =     16350.35034684   -15714.11899896
  entropy T*S    EENTRO =        -0.01249166
  eigenvalues    EBANDS =     -1395.39030819
  atomic energy  EATOM  =     12524.00607526
  Solvation  Ediel_sol  =         0.00000000
  ---------------------------------------------------
  free energy    TOTEN  =      -152.05705304 eV

  energy without entropy =     -152.04456138  energy(sigma->0) =     -152.05288915


--------------------------------------------------------------------------------------------------------




----------------------------------------- Iteration    1(  14)  ---------------------------------------


    POTLOK:  cpu time    0.0133: real time    0.0145
    SETDIJ:  cpu time    0.0217: real time    0.0235
    EDDIAG:  cpu time    0.0339: real time    0.0353
  RMM-DIIS:  cpu time    0.1504: real time    0.1546
    ORTHCH:  cpu time    0.0026: real time    0.0027
       DOS:  cpu time    0.0008: real time    0.0008
    CHARGE:  cpu time    0.0097: real time    0.0098
    MIXING:  cpu time    0.0019: real time    0.0020
    --------------------------------------------
      LOOP:  cpu time    0.2349: real time    0.2486

 eigenvalue-minimisations  :  3419
 total energy-change (2. order) :-0.9512342E-04  (-0.1478412E-03)
 number of electron     140.0000004 magnetization 
 augmentation part        4.5297399 magnetization 

 Broyden mixing:
  rms(total) = 0.24338E-02    rms(broyden)= 0.24321E-02
  rms(prec ) = 0.38904E-02
  weight for this iteration     100.00

 eigenvalues of (default mixing * dielectric matrix)
  average eigenvalue GAMMA=   1.2363
  2.6217  1.8476  1.6680  1.6680  1.0997  0.6186  0.6186  0.5221  0.4622

 Free energy of the ion-electron system (eV)
  ---------------------------------------------------
  alpha Z        PSCENC =       675.65370788
  Ewald energy   TEWEN  =     -9683.77269880
  -Hartree energ DENC   =     -2950.63160051
  -exchange      EXHF   =         0.00000000
  -V(xc)+E(xc)   XCENC  =        41.52788053
  PAW double counting   =     16355.33169731   -15718.93106424
  entropy T*S    EENTRO =        -0.01248216
  eigenvalues    EBANDS =     -1395.22866344
  atomic energy  EATOM  =     12524.00607526
  Solvation  Ediel_sol  =         0.00000000
  ---------------------------------------------------
  free energy    TOTEN  =      -152.05714816 eV

  energy without entropy =     -152.04466600  energy(sigma->0) =     -152.05298744


--------------------------------------------------------------------------------------------------------




----------------------------------------- Iteration    1(  15)  ---------------------------------------


    POTLOK:  cpu time    0.0123: real time    0.0124
    SETDIJ:  cpu time    0.0016: real time    0.0017
    EDDIAG:  cpu time    0.0251: real time    0.0253
  RMM-DIIS:  cpu time    0.1108: real time    0.1154
    ORTHCH:  cpu time    0.0024: real time    0.0025
       DOS:  cpu time    0.0013: real time    0.0014
    CHARGE:  cpu time    0.0091: real time    0.0092
    MIXING:  cpu time    0.0007: real time    0.0007
    --------------------------------------------
      LOOP:  cpu time    0.1638: real time    0.1735

 eigenvalue-minimisations  :  2699
 total energy-change (2. order) :-0.5725743E-04  (-0.6849328E-04)
 number of electron     140.0000004 magnetization 
 augmentation part        4.5289437 magnetization 

 Broyden mixing:
  rms(total) = 0.12053E-02    rms(broyden)= 0.12043E-02
  rms(prec ) = 0.19032E-02
  weight for this iteration     100.00

 eigenvalues of (default mixing * dielectric matrix)
  average eigenvalue GAMMA=   1.2324
  2.6874  1.8987  1.8656  1.8656  1.0604  0.6899  0.6899  0.5859  0.5188  0.4623

 Free energy of the ion-electron system (eV)
  ---------------------------------------------------
  alpha Z        PSCENC =       675.65370788
  Ewald energy   TEWEN  =     -9683.77269880
  -Hartree energ DENC   =     -2950.79216850
  -exchange      EXHF   =         0.00000000
  -V(xc)+E(xc)   XCENC  =        41.53454616
  PAW double counting   =     16356.84021771   -15720.38668119
  entropy T*S    EENTRO =        -0.01247577
  eigenvalues    EBANDS =     -1395.12772817
  atomic energy  EATOM  =     12524.00607526
  Solvation  Ediel_sol  =         0.00000000
  ---------------------------------------------------
  free energy    TOTEN  =      -152.05720542 eV

  energy without entropy =     -152.04472965  energy(sigma->0) =     -152.05304683


--------------------------------------------------------------------------------------------------------




----------------------------------------- Iteration    1(  16)  ---------------------------------------


    POTLOK:  cpu time    0.0106: real time    0.0112
    SETDIJ:  cpu time    0.0017: real time    0.0021
    EDDIAG:  cpu time    0.0404: real time    0.0410
  RMM-DIIS:  cpu time    0.0960: real time    0.0964
    ORTHCH:  cpu time    0.0024: real time    0.0024
       DOS:  cpu time    0.0014: real time    0.0014
    CHARGE:  cpu time    0.0096: real time    0.0097
    MIXING:  cpu time    0.0008: real time    0.0008
    --------------------------------------------
      LOOP:  cpu time    0.1634: real time    0.1701

 eigenvalue-minimisations  :  2473
 total energy-change (2. order) :-0.2311333E-04  (-0.2995187E-04)
 number of electron     140.0000004 magnetization 
 augmentation part        4.5287921 magnetization 

 Broyden mixing:
  rms(total) = 0.72656E-03    rms(broyden)= 0.72623E-03
  rms(prec ) = 0.12823E-02
  weight for this iteration     100.00

 eigenvalues of (default mixing * dielectric matrix)
  average eigenvalue GAMMA=   1.2369
  2.8602  2.1397  2.0877  1.4984  1.1858  0.9170  0.6758  0.6758  0.5752  0.4605
  0.5303

 Free energy of the ion-electron system (eV)
  ---------------------------------------------------
  alpha Z        PSCENC =       675.65370788
  Ewald energy   TEWEN  =     -9683.77269880
  -Hartree energ DENC   =     -2950.80073948
  -exchange      EXHF   =         0.00000000
  -V(xc)+E(xc)   XCENC  =        41.53367129
  PAW double counting   =     16358.52599063   -15722.05738389
  entropy T*S    EENTRO =        -0.01246407
  eigenvalues    EBANDS =     -1395.13338736
  atomic energy  EATOM  =     12524.00607526
  Solvation  Ediel_sol  =         0.00000000
  ---------------------------------------------------
  free energy    TOTEN  =      -152.05722854 eV

  energy without entropy =     -152.04476446  energy(sigma->0) =     -152.05307384


--------------------------------------------------------------------------------------------------------




----------------------------------------- Iteration    1(  17)  ---------------------------------------


    POTLOK:  cpu time    0.0107: real time    0.0107
    SETDIJ:  cpu time    0.0214: real time    0.0214
    EDDIAG:  cpu time    0.0474: real time    0.0475
  RMM-DIIS:  cpu time    0.1160: real time    0.1164
    ORTHCH:  cpu time    0.0029: real time    0.0029
       DOS:  cpu time    0.0007: real time    0.0007
    CHARGE:  cpu time    0.0097: real time    0.0098
    MIXING:  cpu time    0.0008: real time    0.0008
    --------------------------------------------
      LOOP:  cpu time    0.2099: real time    0.2151

 eigenvalue-minimisations  :  2170
 total energy-change (2. order) :-0.1130878E-04  (-0.1535058E-04)
 number of electron     140.0000004 magnetization 
 augmentation part        4.5288759 magnetization 

 Broyden mixing:
  rms(total) = 0.33085E-03    rms(broyden)= 0.33057E-03
  rms(prec ) = 0.43574E-03
  weight for this iteration     100.00

 eigenvalues of (default mixing * dielectric matrix)
  average eigenvalue GAMMA=   1.2508
  2.6992  2.3946  2.1028  1.4665  1.4665  1.2107  0.7574  0.7574  0.5828  0.5828
  0.4607  0.5284

 Free energy of the ion-electron system (eV)
  ---------------------------------------------------
  alpha Z        PSCENC =       675.65370788
  Ewald energy   TEWEN  =     -9683.77269880
  -Hartree energ DENC   =     -2950.79338894
  -exchange      EXHF   =         0.00000000
  -V(xc)+E(xc)   XCENC  =        41.53236051
  PAW double counting   =     16360.05891517   -15723.57552673
  entropy T*S    EENTRO =        -0.01246627
  eigenvalues    EBANDS =     -1395.15421793
  atomic energy  EATOM  =     12524.00607526
  Solvation  Ediel_sol  =         0.00000000
  ---------------------------------------------------
  free energy    TOTEN  =      -152.05723984 eV

  energy without entropy =     -152.04477358  energy(sigma->0) =     -152.05308442


--------------------------------------------------------------------------------------------------------




----------------------------------------- Iteration    1(  18)  ---------------------------------------


    POTLOK:  cpu time    0.0107: real time    0.0107
    SETDIJ:  cpu time    0.0028: real time    0.0028
    EDDIAG:  cpu time    0.0240: real time    0.0240
  RMM-DIIS:  cpu time    0.0804: real time    0.0807
    ORTHCH:  cpu time    0.0024: real time    0.0024
       DOS:  cpu time    0.0011: real time    0.0011
    --------------------------------------------
      LOOP:  cpu time    0.1219: real time    0.1265

 eigenvalue-minimisations  :  1964
 total energy-change (2. order) :-0.4666994E-05  (-0.6237417E-05)
 number of electron     140.0000004 magnetization 
 augmentation part        4.5288759 magnetization 

 Free energy of the ion-electron system (eV)
  ---------------------------------------------------
  alpha Z        PSCENC =       675.65370788
  Ewald energy   TEWEN  =     -9683.77269880
  -Hartree energ DENC   =     -2950.79145327
  -exchange      EXHF   =         0.00000000
  -V(xc)+E(xc)   XCENC  =        41.53194231
  PAW double counting   =     16360.28051686   -15723.79717229
  entropy T*S    EENTRO =        -0.01246271
  eigenvalues    EBANDS =     -1395.15569975
  atomic energy  EATOM  =     12524.00607526
  Solvation  Ediel_sol  =         0.00000000
  ---------------------------------------------------
  free energy    TOTEN  =      -152.05724451 eV

  energy without entropy =     -152.04478180  energy(sigma->0) =     -152.05309027


--------------------------------------------------------------------------------------------------------




 average (electrostatic) potential at core
  the test charge radii are     1.2538  1.2481  1.0638  1.0703
  (the norm of the test charge is              1.0000)
       1 -33.6869       2 -33.6739       3 -33.6597       4 -33.2393       5 -33.1325
       6 -33.2811       7 -33.3211       8 -75.5527       9 -75.7445      10 -75.6533
      11 -75.5960      12 -75.6619      13 -75.6204      14 -75.5813      15 -75.6436
      16 -80.6408
 
 
 
 E-fermi :   7.6071     XC(G=0): -11.3910     alpha+bet :-14.9367


 k-point     1 :       0.0000    0.0000    0.0000
  band No.  band energies     occupation 
[...]
      3     -40.8028      2.00000
      4     -40.7607      2.00000
      5     -40.7445      2.00000
      6     -40.7267      2.00000
      7     -40.7117      2.00000
      8     -40.6731      2.00000
      9     -40.6385      2.00000
     10     -22.9018      2.00000
     11     -22.8776      2.00000
     12     -22.8577      2.00000
     13     -19.3473      2.00000
     14     -19.2429      2.00000
     15     -19.1565      2.00000
     16     -19.1342      2.00000
     17     -19.0892      2.00000
     18     -19.0511      2.00000
     19     -18.9773      2.00000
     20     -18.9459      2.00000
     21     -18.9300      2.00000
     22     -18.8980      2.00000
     23     -18.8690      2.00000
     24     -18.8342      2.00000
     25     -18.8148      2.00000
     26     -18.7956      2.00000
     27     -18.7551      2.00000
     28     -18.7304      2.00000
     29     -18.7094      2.00000
     30     -18.6486      2.00000
     31     -18.6394      2.00000
     32     -18.6000      2.00000
     33     -18.5637      2.00000
     34     -18.5087      2.00000
     35     -18.4739      2.00000
     36     -18.3976      2.00000
     37       1.9214      2.00000
     38       3.2219      2.00000
     39       3.4444      2.00000
     40       4.0089      2.00000
     41       4.4980      2.00000
     42       4.5900      2.00000
     43       4.8050      2.00000
     44       4.8685      2.00000
     45       4.9942      2.00000
     46       5.0600      2.00000
     47       5.1302      2.00000
     48       5.1807      2.00000
     49       5.2005      2.00000
     50       5.2313      2.00000
     51       5.4831      2.00000
     52       5.5161      2.00000
     53       5.6008      2.00000
     54       5.9413      2.00000
     55       6.0109      2.00000
     56       6.5159      2.00000
     57       6.5459      2.00000
     58       6.7047      2.00000
     59       6.7501      2.00000
     60       6.7888      2.00000
     61       6.8466      2.00000
     62       6.9000      2.00000
     63       6.9318      2.00000
     64       7.0986      2.00002
     65       7.4048      2.06696
     66       7.4111      2.06910
     67       7.5107      1.87606
     68       7.5625      1.47895
     69       7.6506      0.53051
     70       7.6924      0.18851
     71       7.7820     -0.06978
     72       7.8004     -0.06974
     73       7.8561     -0.04058
     74       7.8799     -0.02739
     75       7.9122     -0.01428
     76       7.9648     -0.00381
     77       8.0327     -0.00045
     78       8.0767     -0.00009
     79       8.1992     -0.00000
     80       8.6640     -0.00000
     81       8.7441     -0.00000
     82       8.9392     -0.00000
     83       8.9902     -0.00000
     84       9.0861     -0.00000

 k-point    13 :       0.3333   -0.3333    0.3333
  band No.  band energies     occupation 
      1     -46.7745      2.00000
      2     -40.8392      2.00000
      3     -40.8024      2.00000
      4     -40.7700      2.00000
      5     -40.7478      2.00000
      6     -40.7198      2.00000
      7     -40.7118      2.00000
      8     -40.6699      2.00000
      9     -40.6405      2.00000
     10     -22.9017      2.00000
     11     -22.8763      2.00000
     12     -22.8576      2.00000
     13     -19.2894      2.00000
     14     -19.2225      2.00000
     15     -19.1969      2.00000
     16     -19.1315      2.00000
     17     -19.0915      2.00000
     18     -19.0566      2.00000
     19     -19.0153      2.00000
     20     -18.9766      2.00000
     21     -18.9078      2.00000
     22     -18.8976      2.00000
     23     -18.8662      2.00000
     24     -18.8425      2.00000
     25     -18.8121      2.00000
     26     -18.7963      2.00000
     27     -18.7560      2.00000
     28     -18.7389      2.00000
     29     -18.7056      2.00000
     30     -18.6362      2.00000
     31     -18.6171      2.00000
     32     -18.5949      2.00000
     33     -18.5569      2.00000
     34     -18.5035      2.00000
     35     -18.4825      2.00000
     36     -18.4275      2.00000
     37       2.3339      2.00000
     38       3.3808      2.00000
     39       3.7039      2.00000
     40       3.8369      2.00000
     41       4.2600      2.00000
     42       4.5806      2.00000
     43       4.6677      2.00000
     44       5.1597      2.00000
     45       5.2606      2.00000
     46       5.3015      2.00000
     47       5.3741      2.00000
     48       5.4967      2.00000
     49       5.5148      2.00000
     50       5.5890      2.00000
     51       5.6130      2.00000
     52       5.6568      2.00000
     53       5.7799      2.00000
     54       5.8743      2.00000
     55       6.2122      2.00000
     56       6.4426      2.00000
     57       6.5422      2.00000
     58       6.5837      2.00000
     59       6.6521      2.00000
     60       6.7344      2.00000
     61       6.7695      2.00000
     62       6.8207      2.00000
     63       6.8461      2.00000
     64       6.9079      2.00000
     65       6.9788      2.00000
     66       7.0566      2.00000
     67       7.0885      2.00001
     68       7.1422      2.00011
     69       7.1792      2.00042
     70       7.3246      2.02290
     71       7.4013      2.06552
     72       7.4589      2.04750
     73       7.5783      1.31740
     74       7.6203      0.85082
     75       7.8463     -0.04659
     76       7.8624     -0.03685
     77       7.9183     -0.01244
     78       7.9741     -0.00292
     79       8.1093     -0.00002
     80       8.1688     -0.00000
     81       8.2557     -0.00000
     82       8.2768     -0.00000
     83       8.5451     -0.00000
     84       8.8554     -0.00000

 k-point    14 :      -0.3333   -0.3333    0.3333
  band No.  band energies     occupation 
      1     -46.7744      2.00000
      2     -40.8408      2.00000
      3     -40.8004      2.00000
      4     -40.7643      2.00000
      5     -40.7532      2.00000
      6     -40.7221      2.00000
      7     -40.7106      2.00000
      8     -40.6703      2.00000
      9     -40.6396      2.00000
     10     -22.9017      2.00000
     11     -22.8763      2.00000
     12     -22.8576      2.00000
     13     -19.3045      2.00000
     14     -19.2246      2.00000
     15     -19.1583      2.00000
     16     -19.1480      2.00000
     17     -19.0903      2.00000
     18     -19.0677      2.00000
     19     -19.0095      2.00000
     20     -18.9554      2.00000
     21     -18.9199      2.00000
     22     -18.9013      2.00000
     23     -18.8546      2.00000
     24     -18.8409      2.00000
     25     -18.8206      2.00000
     26     -18.7963      2.00000
     27     -18.7662      2.00000
     28     -18.7414      2.00000
     29     -18.7185      2.00000
     30     -18.6387      2.00000
     31     -18.6121      2.00000
     32     -18.5809      2.00000
     33     -18.5651      2.00000
     34     -18.4951      2.00000
     35     -18.4779      2.00000
     36     -18.4335      2.00000
     37       2.3380      2.00000
     38       3.4216      2.00000
     39       3.5749      2.00000
     40       3.9082      2.00000
     41       4.3646      2.00000
     42       4.4999      2.00000
     43       4.6113      2.00000
     44       5.1833      2.00000
     45       5.3039      2.00000
     46       5.3288      2.00000
     47       5.4245      2.00000
     48       5.4384      2.00000
     49       5.4786      2.00000
     50       5.5656      2.00000
     51       5.6318      2.00000
     52       5.6786      2.00000
     53       5.7691      2.00000
     54       5.8655      2.00000
     55       6.1737      2.00000
     56       6.4412      2.00000
     57       6.5306      2.00000
     58       6.5739      2.00000
     59       6.7026      2.00000
     60       6.7544      2.00000
     61       6.8123      2.00000
     62       6.8476      2.00000
     63       6.8590      2.00000
     64       6.9122      2.00000
     65       6.9856      2.00000
     66       6.9943      2.00000
     67       7.0558      2.00000
     68       7.1013      2.00002
     69       7.1359      2.00008
     70       7.3433      2.03218
     71       7.4119      2.06931
     72       7.4523      2.05619
     73       7.5948      1.13739
     74       7.6484      0.55246
     75       7.8637     -0.03611
     76       7.8771     -0.02881
     77       7.9146     -0.01355
     78       7.9796     -0.00249
     79       8.0954     -0.00004
     80       8.1323     -0.00001
     81       8.2566     -0.00000
     82       8.3271     -0.00000
     83       8.5309     -0.00000
     84       8.8653     -0.00000


--------------------------------------------------------------------------------------------------------


 soft charge-density along one line, spin component           1
         0         1         2         3         4         5         6         7         8         9
 total charge-density along one line
 
 pseudopotential strength for first ion, spin component:           1
 -6.419  -0.002  -0.001   0.002  -0.000  -7.626  -0.002  -0.001
 -0.002  -6.416   0.001  -0.001  -0.000  -0.002  -7.622   0.001
 -0.001   0.001  -6.421  -0.001  -0.001  -0.001   0.001  -7.628
  0.002  -0.001  -0.001  -6.413  -0.000   0.002  -0.001  -0.001
 -0.000  -0.000  -0.001  -0.000  -6.424  -0.001  -0.000  -0.001
 -7.626  -0.002  -0.001   0.002  -0.001  -9.038  -0.002  -0.001
 -0.002  -7.622   0.001  -0.001  -0.000  -0.002  -9.033   0.001
 -0.001   0.001  -7.628  -0.001  -0.001  -0.001   0.001  -9.040
  0.002  -0.001  -0.001  -7.618  -0.001   0.003  -0.002  -0.001
 -0.001  -0.000  -0.001  -0.001  -7.631  -0.001  -0.000  -0.001
 -0.000  -0.002  -0.002   0.001  -0.001  -0.000  -0.003  -0.002
 -0.000  -0.004  -0.003   0.001  -0.001  -0.000  -0.005  -0.004
  0.001   0.005   0.003   0.002   0.007   0.001   0.007   0.003
  0.002  -0.005   0.007   0.002  -0.001   0.002  -0.006   0.008
 -0.002   0.002  -0.001   0.003   0.003  -0.002   0.002  -0.001
 -0.000  -0.009  -0.002  -0.002  -0.009  -0.000  -0.011  -0.003
 -0.002   0.005  -0.011  -0.002   0.002  -0.003   0.006  -0.014
 -0.000  -0.002   0.001  -0.004  -0.003  -0.000  -0.003   0.001
 total augmentation occupancy for first ion, spin component:           1
  4.218  -0.103  -0.063   0.159  -0.019  -2.107   0.061   0.026  -0.080   0.005   0.013   0.003  -0.020  -0.018  -0.033  -0.001
 -0.103   4.481   0.097  -0.073  -0.121   0.061  -2.263  -0.053   0.036   0.090   0.210  -0.037   0.006   0.094  -0.024  -0.002
 -0.063   0.097   4.095  -0.055   0.009   0.025  -0.052  -2.150   0.032   0.003   0.080  -0.026  -0.011  -0.022   0.015  -0.002
  0.159  -0.073  -0.055   4.420  -0.025  -0.080   0.036   0.033  -2.182   0.028  -0.081   0.021  -0.027  -0.046   0.136  -0.001
 -0.019  -0.121   0.009  -0.025   4.134   0.004   0.090   0.003   0.027  -2.159  -0.075  -0.005  -0.143   0.050  -0.032  -0.007
 -2.107   0.061   0.025  -0.080   0.004   1.073  -0.035  -0.010   0.042   0.000  -0.005  -0.001   0.013   0.009   0.005   0.001
  0.061  -2.263  -0.052   0.036   0.090  -0.035   1.163   0.028  -0.017  -0.060  -0.120   0.020  -0.008  -0.051   0.012   0.001
  0.026  -0.053  -2.150   0.033   0.003  -0.010   0.028   1.142  -0.019  -0.005  -0.044   0.014   0.010   0.001  -0.009   0.001
 -0.080   0.036   0.032  -2.182   0.027   0.042  -0.017  -0.019   1.100  -0.021   0.051  -0.012   0.013   0.025  -0.064   0.001
  0.005   0.090   0.003   0.028  -2.159   0.000  -0.060  -0.005  -0.021   1.141   0.039   0.002   0.070  -0.022   0.020   0.003
  0.013   0.210   0.080  -0.081  -0.075  -0.005  -0.120  -0.044   0.051   0.039   2.187  -0.225   0.041   0.001  -0.021   0.002
  0.003  -0.037  -0.026   0.021  -0.005  -0.001   0.020   0.014  -0.012   0.002  -0.225   0.025  -0.000  -0.002   0.001  -0.000
 -0.020   0.006  -0.011  -0.027  -0.143   0.013  -0.008   0.010   0.013   0.070   0.041  -0.000   0.276  -0.006  -0.003   0.007
 -0.018   0.094  -0.022  -0.046   0.050   0.009  -0.051   0.001   0.025  -0.022   0.001  -0.002  -0.006   0.283  -0.008  -0.000
 -0.033  -0.024   0.015   0.136  -0.032   0.005   0.012  -0.009  -0.064   0.020  -0.021   0.001  -0.003  -0.008   0.271  -0.000
 -0.001  -0.002  -0.002  -0.001  -0.007   0.001   0.001   0.001   0.001   0.003   0.002  -0.000   0.007  -0.000  -0.000   0.000
 -0.001   0.004  -0.002  -0.002   0.002   0.001  -0.002   0.001   0.001  -0.001  -0.001   0.000  -0.000   0.007  -0.000  -0.000
  0.000  -0.001   0.001   0.001  -0.002  -0.000   0.001  -0.001  -0.001   0.001  -0.001   0.000  -0.000  -0.000   0.007   0.000


------------------------ aborting loop because EDIFF is reached ----------------------------------------


    CHARGE:  cpu time    0.0078: real time    0.0079
    FORLOC:  cpu time    0.0028: real time    0.0028
    FORNL :  cpu time    0.0607: real time    0.0610
    STRESS:  cpu time    0.1797: real time    0.1805
    FORCOR:  cpu time    0.0140: real time    0.0140
    FORHAR:  cpu time    0.0049: real time    0.0049
    MIXING:  cpu time    0.0004: real time    0.0004
    OFIELD:  cpu time    0.0000: real time    0.0000

  FORCE on cell =-STRESS in cart. coord.  units (eV):
  Direction    XX          YY          ZZ          XY          YZ          ZX
  --------------------------------------------------------------------------------------
  Alpha Z   675.65371   675.65371   675.65371
  Ewald   -3166.96467 -3476.90956 -3039.91802  -107.33465   140.13611    -0.29528
  Hartree  1076.23360   740.87980  1133.72838   -91.91803    82.73959     2.58046
  E(xc)    -596.21566  -596.61747  -596.82956     0.04773    -0.58376     0.09278
  Local    -319.56352   332.93239  -496.27359   199.41683  -217.32104    -2.51361
  n-local  -153.22770  -155.71419  -156.87288    -0.01736    -4.53451    -0.03451
  augment    49.71407    49.80774    49.96960     0.03118     0.30244    -0.04195
  Kinetic  2433.78387  2429.33998  2429.90821    -0.21875    -0.67860     0.19404
  Fock        0.00000     0.00000     0.00000     0.00000     0.00000     0.00000
  -------------------------------------------------------------------------------------
  Total      -0.58631    -0.62761    -0.63415     0.00694     0.06025    -0.01806
  in kB      -2.72560    -2.91758    -2.94798     0.03228     0.28006    -0.08394
  external pressure =       -2.86 kB  Pullay stress =        0.00 kB


 VOLUME and BASIS-vectors are now :
 -----------------------------------------------------------------------------
  energy-cutoff  :      300.00
  volume of cell :      344.65
      direct lattice vectors                 reciprocal lattice vectors
     6.956223901 -0.004101840  0.011852640     0.143756588  0.000059846 -0.000233416
    -0.003273643  7.066851332 -0.204286138     0.000076512  0.141624521  0.004107890
     0.011477935 -0.203534192  7.016875194    -0.000240601  0.004123091  0.142633569

  length of vectors
     6.956235208  7.069804191  7.019835853     0.143756790  0.141684105  0.142693352


 FORCES acting on ions
    electron-ion (+dipol)            ewald-force                    non-local-force                 convergence-correction
 -----------------------------------------------------------------------------------------------
   -.386E+02 -.787E+02 -.331E+02   0.383E+02 0.793E+02 0.330E+02   0.286E+00 -.608E+00 0.112E+00   0.153E-02 0.206E-02 0.216E-02
   -.420E+02 0.854E+02 0.333E+02   0.418E+02 -.853E+02 -.338E+02   0.243E+00 -.111E+00 0.488E+00   0.159E-02 -.247E-02 -.134E-02
   -.473E+02 -.192E+02 0.677E+02   0.477E+02 0.188E+02 -.674E+02   -.389E+00 0.391E+00 -.322E+00   0.473E-03 0.396E-02 0.115E-02
   0.361E+02 -.688E+01 -.365E+02   -.362E+02 0.668E+01 0.360E+02   0.558E-01 0.184E+00 0.595E+00   -.797E-04 0.236E-02 -.114E-02
   0.353E+02 -.218E+02 0.442E+02   -.357E+02 0.215E+02 -.439E+02   0.352E+00 0.281E+00 -.356E+00   -.297E-03 0.265E-02 0.591E-03
   -.305E+02 0.557E+02 -.900E+01   0.304E+02 -.567E+02 0.989E+01   0.168E+00 0.983E+00 -.898E+00   0.982E-03 -.102E-02 0.221E-02
   0.302E+02 -.460E+02 -.323E+02   -.300E+02 0.465E+02 0.320E+02   -.204E+00 -.524E+00 0.319E+00   -.116E-02 0.189E-02 0.136E-02
   -.825E+02 -.174E+03 0.247E+02   0.826E+02 0.173E+03 -.241E+02   -.129E+00 0.599E+00 -.624E+00   0.496E-02 0.124E-02 -.428E-02
   0.722E+02 0.530E+02 -.124E+03   -.726E+02 -.532E+02 0.124E+03   0.408E+00 0.240E+00 -.825E-01   -.676E-03 -.793E-02 -.346E-02
   0.112E+03 -.183E+02 0.135E+03   -.112E+03 0.190E+02 -.135E+03   0.369E-01 -.711E+00 0.590E-01   -.164E-03 -.767E-02 0.246E-02
   -.117E+03 -.173E+02 -.115E+03   0.117E+03 0.175E+02 0.115E+03   -.119E+00 -.180E+00 0.918E+00   0.567E-03 0.737E-02 -.509E-02
   0.820E+02 0.190E+03 0.209E+02   -.816E+02 -.190E+03 -.216E+02   -.397E+00 -.232E+00 0.754E+00   -.398E-02 -.615E-02 -.593E-02
   -.790E+02 0.174E+02 -.129E+03   0.796E+02 -.175E+02 0.129E+03   -.516E+00 0.176E+00 -.174E+00   0.151E-02 -.898E-02 -.455E-02
   0.819E+02 0.192E+03 0.929E+01   -.816E+02 -.193E+03 -.850E+01   -.304E+00 0.968E+00 -.805E+00   -.420E-02 -.402E-02 0.635E-02
   -.108E+03 -.221E+02 0.139E+03   0.108E+03 0.231E+02 -.139E+03   -.348E-01 -.982E+00 0.319E+00   0.119E-03 -.619E-02 0.401E-02
   0.964E+02 -.190E+03 0.473E+01   -.964E+02 0.189E+03 -.408E+01   0.102E+00 0.230E+00 -.657E+00   -.495E-02 0.426E-02 -.588E-02
 -----------------------------------------------------------------------------------------------
   0.443E+00 -.685E+00 0.364E+00   -.853E-13 -.114E-12 0.000E+00   -.440E+00 0.704E+00 -.353E+00   -.377E-02 -.186E-01 -.114E-01
 
 
 POSITION                                       TOTAL-FORCE (eV/Angst)
 -----------------------------------------------------------------------------------
      6.91695      0.13269      3.42949         0.007030     -0.004091     -0.002598
      6.91486      3.42557      6.69927         0.003722     -0.004855      0.006812
      5.27688      1.42442      5.37385        -0.002646      0.006331     -0.007117
      1.71715      1.87179      1.53559        -0.001751     -0.006138      0.004386
      1.70957      1.41012      5.41553        -0.001375      0.008853     -0.006082
      6.92711      3.16506      3.68666         0.003461      0.000877     -0.004627
      3.52054      0.12464      3.31491        -0.005991      0.000752      0.007204
     -0.00195      6.84771     -0.00675        -0.001842      0.003861     -0.006183
      1.68459      5.12732      1.71709        -0.003408     -0.001298      0.005479
      1.75541      5.30786      4.98089         0.004338     -0.002060     -0.002208
      5.24692      1.86475      1.49605         0.001809     -0.003883      0.005192
      3.54888      3.45188      6.68715        -0.003132      0.002299      0.017900
      5.26471      5.11940      1.73611         0.007457     -0.001668      0.007700
      3.50774      3.23262      3.60611        -0.006885     -0.000215     -0.010536
      5.21048      5.37886      4.97284        -0.002879     -0.000461     -0.004086
      3.47180      6.98492     -0.03741         0.002091      0.001695     -0.011237
 -----------------------------------------------------------------------------------
    total drift:                               -0.001143      0.000204     -0.000341


--------------------------------------------------------------------------------------------------------



  FREE ENERGIE OF THE ION-ELECTRON SYSTEM (eV)
  ---------------------------------------------------
  free  energy   TOTEN  =      -152.05725875 eV

  energy  without entropy=     -152.04480779  energy(sigma->0) =     -152.05310843
 
 d Force =-0.2611500E-18[-0.268E-18,-0.255E-18]  d Energy = 0.7789866E-05-0.779E-05
 d Force = 0.1823950E-12[ 0.182E-12, 0.182E-12]  d Ewald  = 0.0000000E+00 0.000E+00


--------------------------------------------------------------------------------------------------------


    POTLOK:  cpu time    0.0138: real time    0.0139


--------------------------------------------------------------------------------------------------------


