automatically generated by mexm         
           1
     6.952425   -0.004040    0.011730
    -0.003208    7.062734   -0.203778
     0.011354   -0.203031    7.012738
   Ta   Hf   Zr   Nb
   3   4   8   1
Direct configuration=     1
   0.99356435  0.03340931  0.48804368
   0.99269839  0.51319430  0.96800116
   0.75741716  0.22421125  0.77109546
   0.24660586  0.27153067  0.22633041
   0.24458188  0.22208508  0.77783901
   0.99514699  0.46392469  0.53722492
   0.50533496  0.03153892  0.47248479
   0.00013163  0.96977631  0.02727199
   0.24207767  0.73333656  0.26564928
   0.25150618  0.77231898  0.73190499
   0.75404160  0.27064143  0.21981361
   0.50882043  0.51661238  0.96719062
   0.75673775  0.73256711  0.26746867
   0.50361311  0.47289958  0.52683631
   0.74820181  0.78260568  0.73021726
   0.49952023  0.98934775  0.02262782
automatically generated by mexm         
           1
     6.949839   -0.003997    0.011647
    -0.003164    7.059930   -0.203433
     0.011269   -0.202689    7.009921
   Ta   Hf   Zr   Nb
   3   4   8   1
Direct configuration=     2
   0.99357883  0.03340133  0.48803845
   0.99270620  0.51318361  0.96801477
   0.75741228  0.22422418  0.77108024
   0.24660240  0.27151874  0.22633888
   0.24457857  0.22210350  0.77782665
   0.99515439  0.46392559  0.53721572
   0.50532200  0.03154111  0.47250007
   0.00012836  0.96978274  0.02726058
   0.24206958  0.73333444  0.26565954
   0.25151493  0.77231540  0.73190092
   0.75404502  0.27063320  0.21982359
   0.50881486  0.51661752  0.96722766
   0.75675396  0.73256433  0.26748363
   0.50359902  0.47289788  0.52681486
   0.74819558  0.78260503  0.73020858
   0.49952403  0.98935142  0.02260587
automatically generated by mexm         
           1
     6.949491   -0.003992    0.011636
    -0.003158    7.059553   -0.203386
     0.011258   -0.202642    7.009542
   Ta   Hf   Zr   Nb
   3   4   8   1
Direct configuration=     3
   0.99358869  0.03339589  0.48803489
   0.99271152  0.51317633  0.96802404
   0.75740896  0.22423299  0.77106987
   0.24660004  0.27151061  0.22634465
   0.24457631  0.22211605  0.77781822
   0.99515943  0.46392620  0.53720945
   0.50531318  0.03154260  0.47251049
   0.00012613  0.96978712  0.02725280
   0.24206407  0.73333299  0.26566653
   0.25152089  0.77231296  0.73189814
   0.75404735  0.27062759  0.21983039
   0.50881106  0.51662101  0.96725289
   0.75676500  0.73256245  0.26749382
   0.50358942  0.47289672  0.52680025
   0.74819133  0.78260458  0.73020267
   0.49952662  0.98935392  0.02259092
automatically generated by mexm         
           1
     6.949558   -0.003993    0.011638
    -0.003159    7.059626   -0.203395
     0.011260   -0.202651    7.009616
   Ta   Hf   Zr   Nb
   3   4   8   1
Direct configuration=     4
   0.99359002  0.03339516  0.48803441
   0.99271224  0.51317535  0.96802529
   0.75740851  0.22423418  0.77106847
   0.24659972  0.27150951  0.22634543
   0.24457600  0.22211774  0.77781708
   0.99516011  0.46392628  0.53720861
   0.50531199  0.03154280  0.47251189
   0.00012583  0.96978771  0.02725175
   0.24206333  0.73333280  0.26566748
   0.25152170  0.77231263  0.73189777
   0.75404767  0.27062684  0.21983130
   0.50881055  0.51662149  0.96725628
   0.75676649  0.73256219  0.26749519
   0.50358812  0.47289656  0.52679828
   0.74819076  0.78260452  0.73020187
   0.49952697  0.98935426  0.02258890
automatically generated by mexm         
           1
     6.949757   -0.003996    0.011645
    -0.003163    7.059841   -0.203422
     0.011267   -0.202678    7.009832
   Ta   Hf   Zr   Nb
   3   4   8   1
Direct configuration=     5
   0.99358976  0.03339530  0.48803450
   0.99271210  0.51317554  0.96802505
   0.75740860  0.22423395  0.77106874
   0.24659979  0.27150973  0.22634528
   0.24457606  0.22211741  0.77781730
   0.99515997  0.46392626  0.53720877
   0.50531222  0.03154276  0.47251162
   0.00012589  0.96978759  0.02725195
   0.24206347  0.73333284  0.26566729
   0.25152154  0.77231269  0.73189784
   0.75404760  0.27062698  0.21983113
   0.50881065  0.51662139  0.96725562
   0.75676620  0.73256224  0.26749492
   0.50358838  0.47289659  0.52679867
   0.74819087  0.78260453  0.73020202
   0.49952690  0.98935419  0.02258929
automatically generated by mexm         
           1
     6.949817   -0.003997    0.011646
    -0.003164    7.059906   -0.203430
     0.011269   -0.202686    7.009897
   Ta   Hf   Zr   Nb
   3   4   8   1
Direct configuration=     6
   0.99358900  0.03339572  0.48803477
   0.99271169  0.51317610  0.96802433
   0.75740886  0.22423327  0.77106954
   0.24659997  0.27151035  0.22634484
   0.24457624  0.22211645  0.77781795
   0.99515959  0.46392622  0.53720925
   0.50531290  0.03154265  0.47251082
   0.00012606  0.96978726  0.02725255
   0.24206389  0.73333295  0.26566676
   0.25152108  0.77231288  0.73189806
   0.75404743  0.27062741  0.21983060
   0.50881094  0.51662113  0.96725369
   0.75676535  0.73256239  0.26749414
   0.50358911  0.47289668  0.52679979
   0.74819120  0.78260456  0.73020248
   0.49952670  0.98935400  0.02259044
automatically generated by mexm         
           1
     6.949832   -0.003997    0.011647
    -0.003164    7.059923   -0.203432
     0.011269   -0.202688    7.009915
   Ta   Hf   Zr   Nb
   3   4   8   1
Direct configuration=     7
   0.99358877  0.03339584  0.48803486
   0.99271157  0.51317627  0.96802412
   0.75740893  0.22423307  0.77106978
   0.24660002  0.27151054  0.22634470
   0.24457629  0.22211616  0.77781815
   0.99515947  0.46392620  0.53720940
   0.50531310  0.03154261  0.47251058
   0.00012611  0.96978716  0.02725273
   0.24206402  0.73333298  0.26566659
   0.25152095  0.77231294  0.73189812
   0.75404737  0.27062754  0.21983045
   0.50881103  0.51662104  0.96725310
   0.75676509  0.73256243  0.26749390
   0.50358933  0.47289671  0.52680013
   0.74819130  0.78260457  0.73020262
   0.49952664  0.98935394  0.02259079
automatically generated by mexm         
           1
     6.949837   -0.003997    0.011647
    -0.003164    7.059928   -0.203433
     0.011269   -0.202688    7.009919
   Ta   Hf   Zr   Nb
   3   4   8   1
Direct configuration=     8
   0.99358871  0.03339588  0.48803488
   0.99271154  0.51317631  0.96802406
   0.75740895  0.22423301  0.77106984
   0.24660004  0.27151059  0.22634467
   0.24457630  0.22211608  0.77781820
   0.99515944  0.46392620  0.53720944
   0.50531316  0.03154260  0.47251051
   0.00012613  0.96978713  0.02725278
   0.24206406  0.73333299  0.26566655
   0.25152091  0.77231295  0.73189814
   0.75404736  0.27062758  0.21983040
   0.50881105  0.51662102  0.96725295
   0.75676503  0.73256244  0.26749384
   0.50358939  0.47289672  0.52680022
   0.74819132  0.78260458  0.73020265
   0.49952662  0.98935393  0.02259088
automatically generated by mexm         
           1
     6.949838   -0.003997    0.011647
    -0.003164    7.059929   -0.203433
     0.011269   -0.202688    7.009921
   Ta   Hf   Zr   Nb
   3   4   8   1
Direct configuration=     9
   0.99358870  0.03339588  0.48803488
   0.99271153  0.51317633  0.96802405
   0.75740896  0.22423300  0.77106986
   0.24660004  0.27151060  0.22634466
   0.24457631  0.22211606  0.77781821
   0.99515943  0.46392620  0.53720945
   0.50531317  0.03154260  0.47251049
   0.00012613  0.96978712  0.02725279
   0.24206407  0.73333299  0.26566654
   0.25152090  0.77231295  0.73189814
   0.75404735  0.27062759  0.21983039
   0.50881105  0.51662102  0.96725291
   0.75676501  0.73256244  0.26749382
   0.50358941  0.47289672  0.52680024
   0.74819133  0.78260458  0.73020266
   0.49952662  0.98935392  0.02259090
automatically generated by mexm         
           1
     6.949839   -0.003997    0.011647
    -0.003164    7.059930   -0.203433
     0.011269   -0.202689    7.009921
   Ta   Hf   Zr   Nb
   3   4   8   1
Direct configuration=    10
   0.99358869  0.03339589  0.48803489
   0.99271152  0.51317633  0.96802404
   0.75740896  0.22423299  0.77106986
   0.24660004  0.27151061  0.22634466
   0.24457631  0.22211605  0.77781822
   0.99515943  0.46392620  0.53720945
   0.50531318  0.03154260  0.47251049
   0.00012613  0.96978712  0.02725280
   0.24206407  0.73333299  0.26566654
   0.25152090  0.77231296  0.73189814
   0.75404735  0.27062759  0.21983039
   0.50881106  0.51662102  0.96725289
   0.75676500  0.73256245  0.26749382
   0.50358941  0.47289672  0.52680025
   0.74819133  0.78260458  0.73020266
   0.49952662  0.98935392  0.02259091
automatically generated by mexm         
           1
     6.949839   -0.003997    0.011647
    -0.003164    7.059930   -0.203433
     0.011269   -0.202689    7.009921
   Ta   Hf   Zr   Nb
   3   4   8   1
Direct configuration=    11
   0.99358869  0.03339589  0.48803489
   0.99271152  0.51317633  0.96802404
   0.75740896  0.22423299  0.77106986
   0.24660004  0.27151061  0.22634465
   0.24457631  0.22211605  0.77781822
   0.99515943  0.46392620  0.53720945
   0.50531318  0.03154260  0.47251049
   0.00012613  0.96978712  0.02725280
   0.24206407  0.73333299  0.26566653
   0.25152090  0.77231296  0.73189814
   0.75404735  0.27062759  0.21983039
   0.50881106  0.51662102  0.96725289
   0.75676500  0.73256245  0.26749382
   0.50358942  0.47289672  0.52680025
   0.74819133  0.78260458  0.73020267
   0.49952662  0.98935392  0.02259092
automatically generated by mexm         
           1
     6.949839   -0.003997    0.011647
    -0.003164    7.059930   -0.203433
     0.011269   -0.202689    7.009921
   Ta   Hf   Zr   Nb
   3   4   8   1
Direct configuration=    12
   0.99358869  0.03339589  0.48803489
   0.99271152  0.51317633  0.96802404
   0.75740896  0.22423299  0.77106986
   0.24660004  0.27151061  0.22634465
   0.24457631  0.22211605  0.77781822
   0.99515943  0.46392620  0.53720945
   0.50531318  0.03154260  0.47251049
   0.00012613  0.96978712  0.02725280
   0.24206407  0.73333299  0.26566653
   0.25152089  0.77231296  0.73189814
   0.75404735  0.27062759  0.21983039
   0.50881106  0.51662102  0.96725289
   0.75676500  0.73256245  0.26749382
   0.50358942  0.47289672  0.52680025
   0.74819133  0.78260458  0.73020267
   0.49952662  0.98935392  0.02259092
automatically generated by mexm         
           1
     6.949839   -0.003997    0.011647
    -0.003164    7.059930   -0.203433
     0.011269   -0.202689    7.009921
   Ta   Hf   Zr   Nb
   3   4   8   1
Direct configuration=    13
   0.99358869  0.03339589  0.48803489
   0.99271152  0.51317633  0.96802404
   0.75740896  0.22423299  0.77106987
   0.24660004  0.27151061  0.22634465
   0.24457631  0.22211605  0.77781822
   0.99515943  0.46392620  0.53720945
   0.50531318  0.03154260  0.47251049
   0.00012613  0.96978712  0.02725280
   0.24206407  0.73333299  0.26566653
   0.25152089  0.77231296  0.73189814
   0.75404735  0.27062759  0.21983039
   0.50881106  0.51662101  0.96725289
   0.75676500  0.73256245  0.26749382
   0.50358942  0.47289672  0.52680025
   0.74819133  0.78260458  0.73020267
   0.49952662  0.98935392  0.02259092
automatically generated by mexm         
           1
     6.949839   -0.003997    0.011647
    -0.003164    7.059930   -0.203433
     0.011269   -0.202689    7.009921
   Ta   Hf   Zr   Nb
   3   4   8   1
Direct configuration=    14
   0.99358869  0.03339589  0.48803489
   0.99271152  0.51317633  0.96802404
   0.75740896  0.22423299  0.77106987
   0.24660004  0.27151061  0.22634465
   0.24457631  0.22211605  0.77781822
   0.99515943  0.46392620  0.53720945
   0.50531318  0.03154260  0.47251049
   0.00012613  0.96978712  0.02725280
   0.24206407  0.73333299  0.26566653
   0.25152089  0.77231296  0.73189814
   0.75404735  0.27062759  0.21983039
   0.50881106  0.51662101  0.96725289
   0.75676500  0.73256245  0.26749382
   0.50358942  0.47289672  0.52680025
   0.74819133  0.78260458  0.73020267
   0.49952662  0.98935392  0.02259092
automatically generated by mexm         
           1
     6.949839   -0.003997    0.011647
    -0.003164    7.059930   -0.203433
     0.011269   -0.202689    7.009921
   Ta   Hf   Zr   Nb
   3   4   8   1
Direct configuration=    15
   0.99358869  0.03339589  0.48803489
   0.99271152  0.51317633  0.96802404
   0.75740896  0.22423299  0.77106987
   0.24660004  0.27151061  0.22634465
   0.24457631  0.22211605  0.77781822
   0.99515943  0.46392620  0.53720945
   0.50531318  0.03154260  0.47251049
   0.00012613  0.96978712  0.02725280
   0.24206407  0.73333299  0.26566653
   0.25152089  0.77231296  0.73189814
   0.75404735  0.27062759  0.21983039
   0.50881106  0.51662101  0.96725289
   0.75676500  0.73256245  0.26749382
   0.50358942  0.47289672  0.52680025
   0.74819133  0.78260458  0.73020267
   0.49952662  0.98935392  0.02259092
automatically generated by mexm         
           1
     6.949839   -0.003997    0.011647
    -0.003164    7.059930   -0.203433
     0.011269   -0.202689    7.009921
   Ta   Hf   Zr   Nb
   3   4   8   1
Direct configuration=    16
   0.99358869  0.03339589  0.48803489
   0.99271152  0.51317633  0.96802404
   0.75740896  0.22423299  0.77106987
   0.24660004  0.27151061  0.22634465
   0.24457631  0.22211605  0.77781822
   0.99515943  0.46392620  0.53720945
   0.50531318  0.03154260  0.47251049
   0.00012613  0.96978712  0.02725280
   0.24206407  0.73333299  0.26566653
   0.25152089  0.77231296  0.73189814
   0.75404735  0.27062759  0.21983039
   0.50881106  0.51662101  0.96725289
   0.75676500  0.73256245  0.26749382
   0.50358942  0.47289672  0.52680025
   0.74819133  0.78260458  0.73020267
   0.49952662  0.98935392  0.02259092
automatically generated by mexm         
           1
     6.949839   -0.003997    0.011647
    -0.003164    7.059930   -0.203433
     0.011269   -0.202689    7.009921
   Ta   Hf   Zr   Nb
   3   4   8   1
Direct configuration=    17
   0.99358869  0.03339589  0.48803489
   0.99271152  0.51317633  0.96802404
   0.75740896  0.22423299  0.77106987
   0.24660004  0.27151061  0.22634465
   0.24457631  0.22211605  0.77781822
   0.99515943  0.46392620  0.53720945
   0.50531318  0.03154260  0.47251049
   0.00012613  0.96978712  0.02725280
   0.24206407  0.73333299  0.26566653
   0.25152089  0.77231296  0.73189814
   0.75404735  0.27062759  0.21983039
   0.50881106  0.51662101  0.96725289
   0.75676500  0.73256245  0.26749382
   0.50358942  0.47289672  0.52680025
   0.74819133  0.78260458  0.73020267
   0.49952662  0.98935392  0.02259092
automatically generated by mexm         
           1
     6.956224   -0.004102    0.011853
    -0.003274    7.066851   -0.204286
     0.011478   -0.203534    7.016875
   Ta   Hf   Zr   Nb
   3   4   8   1
Direct configuration=    18
   0.99358869  0.03339589  0.48803489
   0.99271152  0.51317633  0.96802404
   0.75740896  0.22423299  0.77106987
   0.24660004  0.27151061  0.22634465
   0.24457631  0.22211605  0.77781822
   0.99515943  0.46392620  0.53720945
   0.50531318  0.03154260  0.47251049
   0.00012613  0.96978712  0.02725280
   0.24206407  0.73333299  0.26566653
   0.25152089  0.77231296  0.73189814
   0.75404735  0.27062759  0.21983039
   0.50881106  0.51662101  0.96725289
   0.75676500  0.73256245  0.26749382
   0.50358942  0.47289672  0.52680025
   0.74819133  0.78260458  0.73020267
   0.49952662  0.98935392  0.02259092
automatically generated by mexm         
           1
     6.956224   -0.004102    0.011853
    -0.003274    7.066851   -0.204286
     0.011478   -0.203534    7.016875
   Ta   Hf   Zr   Nb
   3   4   8   1
Direct configuration=    19
   0.99356433  0.03340931  0.48804368
   0.99269838  0.51319431  0.96800114
   0.75741717  0.22421123  0.77109548
   0.24660586  0.27153069  0.22633040
   0.24458189  0.22208505  0.77783903
   0.99514698  0.46392469  0.53722493
   0.50533497  0.03153892  0.47248477
   0.00013163  0.96977630  0.02727201
   0.24207768  0.73333657  0.26564927
   0.25150617  0.77231899  0.73190499
   0.75404159  0.27064144  0.21981360
   0.50882044  0.51661238  0.96719058
   0.75673773  0.73256711  0.26746865
   0.50361312  0.47289958  0.52683634
   0.74820182  0.78260568  0.73021728
   0.49952023  0.98934774  0.02262785
