<?xml version="1.0" encoding="ISO-8859-1"?>
<modeling>
 <generator>
  <i name="program" type="string">vasp </i>
  <i name="version" type="string">5.4.1  </i>
  <i name="subversion" type="string">05Feb16 (build Jan 29 2020 16:04:39) complex                          parallel </i>
  <i name="platform" type="string">IFC91_ompi </i>
  <i name="date" type="string">2020 06 15 </i>
  <i name="time" type="string">03:05:27 </i>
 </generator>
 <incar>
  <i type="string" name="SYSTEM"> automatically generated by mexm</i>
  <i type="int" name="ISTART">     0</i>
  <i type="string" name="PREC">accurate               ! avoid wrap aro</i>
  <i type="string" name="ALGO"> Fast                   ! blocked Davids</i>
  <i type="int" name="ISPIN">     1</i>
  <i type="int" name="ICHARG">     2</i>
  <i type="int" name="NELM">    70</i>
  <i type="int" name="IBRION">     2</i>
  <i name="EDIFF">      0.00001000</i>
  <i name="EDIFFG">     -0.01000000</i>
  <i type="int" name="NSW">   300</i>
  <i type="int" name="ISIF">     3</i>
  <i type="int" name="ISYM">     1</i>
  <i name="ENCUT">    300.00000000</i>
  <i name="POTIM">      0.15000000</i>
  <i type="string" name="LREAL"> Auto                  ! unpublished met</i>
  <i type="int" name="ISMEAR">     1</i>
  <i name="SIGMA">      0.15000000</i>
  <i type="logical" name="LWAVE"> F  </i>
  <i type="logical" name="LCHARG"> F  </i>
  <i type="logical" name="LVTOT"> F  </i>
  <v type="int" name="KPOINT_BSE">    -1     0     0     0</v>
  <i type="int" name="NELM">    70</i>
 </incar>
 <kpoints>
  <generation param="Gamma">
   <v type="int" name="divisions">       3        3        3 </v>
   <v name="usershift">      0.00000000       0.00000000       0.00000000 </v>
   <v name="genvec1">      0.33333333      -0.00000000       0.00000000 </v>
   <v name="genvec2">      0.00000000       0.33333333       0.00000000 </v>
   <v name="genvec3">      0.00000000       0.00000000       0.33333333 </v>
   <v name="shift">      0.00000000       0.00000000       0.00000000 </v>
  </generation>
  <varray name="kpointlist" >
   <v>       0.00000000       0.00000000       0.00000000 </v>
   <v>       0.33333333      -0.00000000       0.00000000 </v>
   <v>       0.00000000       0.33333333      -0.00000000 </v>
   <v>       0.33333333       0.33333333      -0.00000000 </v>
   <v>      -0.33333333       0.33333333      -0.00000000 </v>
   <v>      -0.00000000      -0.00000000       0.33333333 </v>
   <v>       0.33333333       0.00000000       0.33333333 </v>
   <v>      -0.33333333      -0.00000000       0.33333333 </v>
   <v>       0.00000000       0.33333333       0.33333333 </v>
   <v>       0.33333333       0.33333333       0.33333333 </v>
   <v>      -0.33333333       0.33333333       0.33333333 </v>
   <v>      -0.00000000      -0.33333333       0.33333333 </v>
   <v>       0.33333333      -0.33333333       0.33333333 </v>
   <v>      -0.33333333      -0.33333333       0.33333333 </v>
  </varray>
  <varray name="weights" >
   <v>       0.03703704 </v>
   <v>       0.07407407 </v>
   <v>       0.07407407 </v>
   <v>       0.07407407 </v>
   <v>       0.07407407 </v>
   <v>       0.07407407 </v>
   <v>       0.07407407 </v>
   <v>       0.07407407 </v>
   <v>       0.07407407 </v>
   <v>       0.07407407 </v>
   <v>       0.07407407 </v>
   <v>       0.07407407 </v>
   <v>       0.07407407 </v>
   <v>       0.07407407 </v>
  </varray>
 </kpoints>
 <parameters>
  <separator name="general" >
   <i type="string" name="SYSTEM">automatically generated by mexm</i>
   <i type="logical" name="LCOMPAT"> F  </i>
  </separator>
  <separator name="electronic" >
   <i type="string" name="PREC">accura</i>
   <i name="ENMAX">    300.00000000</i>
   <i name="ENAUG">    461.25700000</i>
   <i name="EDIFF">      0.00001000</i>
   <i type="int" name="IALGO">    68</i>
   <i type="int" name="IWAVPR">    11</i>
   <i type="int" name="NBANDS">   172</i>
   <i name="NELECT">    285.00000000</i>
   <i type="int" name="TURBO">     0</i>
   <i type="int" name="IRESTART">     0</i>
   <i type="int" name="NREBOOT">     0</i>
   <i type="int" name="NMIN">     0</i>
   <i name="EREF">      0.00000000</i>
   <separator name="electronic smearing" >
    <i type="int" name="ISMEAR">     1</i>
    <i name="SIGMA">      0.15000000</i>
    <i name="KSPACING">      0.50000000</i>
    <i type="logical" name="KGAMMA"> T  </i>
   </separator>
   <separator name="electronic projectors" >
    <i type="logical" name="LREAL"> T  </i>
    <v name="ROPT">     -0.00025000     -0.00025000     -0.00025000     -0.00025000</v>
    <i type="int" name="LMAXPAW">  -100</i>
    <i type="int" name="LMAXMIX">     2</i>
    <i type="logical" name="NLSPLINE"> F  </i>
   </separator>
   <separator name="electronic startup" >
    <i type="int" name="ISTART">     0</i>
    <i type="int" name="ICHARG">     2</i>
    <i type="int" name="INIWAV">     1</i>
   </separator>
   <separator name="electronic spin" >
    <i type="int" name="ISPIN">     1</i>
    <i type="logical" name="LNONCOLLINEAR"> F  </i>
    <v name="MAGMOM">      1.00000000      1.00000000      1.00000000      1.00000000      1.00000000      1.00000000      1.00000000      1.00000000      1.00000000      1.00000000      1.00000000      1.00000000      1.00000000      1.00000000      1.00000000      1.00000000      1.00000000      1.00000000      1.00000000      1.00000000
      1.00000000      1.00000000      1.00000000      1.00000000      1.00000000      1.00000000      1.00000000      1.00000000      1.00000000      1.00000000      1.00000000      1.00000000      1.00000000      1.00000000      1.00000000      1.00000000</v>
    <i name="NUPDOWN">     -1.00000000</i>
    <i type="logical" name="LSORBIT"> F  </i>
    <v name="SAXIS">      0.00000000      0.00000000      1.00000000</v>
    <i type="logical" name="LSPIRAL"> F  </i>
    <v name="QSPIRAL">      0.00000000      0.00000000      0.00000000</v>
    <i type="logical" name="LZEROZ"> F  </i>
   </separator>
   <separator name="electronic exchange-correlation" >
    <i type="logical" name="LASPH"> F  </i>
    <i type="logical" name="LMETAGGA"> F  </i>
   </separator>
   <separator name="electronic convergence" >
    <i type="int" name="NELM">    70</i>
    <i type="int" name="NELMDL">    -5</i>
    <i type="int" name="NELMIN">     2</i>
    <i name="ENINI">    300.00000000</i>
    <separator name="electronic convergence detail" >
     <i type="logical" name="LDIAG"> T  </i>
     <i type="logical" name="LSUBROT"> F  </i>
     <i name="WEIMIN">      0.00100000</i>
     <i name="EBREAK">      0.00000001</i>
     <i name="DEPER">      0.30000000</i>
     <i type="int" name="NRMM">     4</i>
     <i name="TIME">      0.40000000</i>
    </separator>
   </separator>
   <separator name="electronic mixer" >
    <i name="AMIX">      0.40000000</i>
    <i name="BMIX">      1.00000000</i>
    <i name="AMIN">      0.10000000</i>
    <i name="AMIX_MAG">      1.60000000</i>
    <i name="BMIX_MAG">      1.00000000</i>
    <separator name="electronic mixer details" >
     <i type="int" name="IMIX">     4</i>
     <i type="logical" name="MIXFIRST"> F  </i>
     <i type="int" name="MAXMIX">   -45</i>
     <i name="WC">    100.00000000</i>
     <i type="int" name="INIMIX">     1</i>
     <i type="int" name="MIXPRE">     1</i>
     <i type="int" name="MREMOVE">     5</i>
    </separator>
   </separator>
   <separator name="electronic dipolcorrection" >
    <i type="logical" name="LDIPOL"> F  </i>
    <i type="logical" name="LMONO"> F  </i>
    <i type="int" name="IDIPOL">     0</i>
    <i name="EPSILON">      1.00000000</i>
    <v name="DIPOL">   -100.00000000   -100.00000000   -100.00000000</v>
    <i name="EFIELD">      0.00000000</i>
   </separator>
  </separator>
  <separator name="grids" >
   <i type="int" name="NGX">    40</i>
   <i type="int" name="NGY">    60</i>
   <i type="int" name="NGZ">    60</i>
   <i type="int" name="NGXF">    80</i>
   <i type="int" name="NGYF">   120</i>
   <i type="int" name="NGZF">   120</i>
   <i type="logical" name="ADDGRID"> F  </i>
  </separator>
  <separator name="ionic" >
   <i type="int" name="NSW">   300</i>
   <i type="int" name="IBRION">     2</i>
   <i type="int" name="ISIF">     3</i>
   <i name="PSTRESS">      0.00000000</i>
   <i name="EDIFFG">     -0.01000000</i>
   <i type="int" name="NFREE">     1</i>
   <i name="POTIM">      0.15000000</i>
   <i name="SMASS">     -3.00000000</i>
   <i name="SCALEE">      1.00000000</i>
  </separator>
  <separator name="ionic md" >
   <i name="TEBEG">      0.00010000</i>
   <i name="TEEND">      0.00010000</i>
   <i type="int" name="NBLOCK">     1</i>
   <i type="int" name="KBLOCK">   300</i>
   <i type="int" name="NPACO">   256</i>
   <i name="APACO">     16.00000000</i>
  </separator>
  <separator name="symmetry" >
   <i type="int" name="ISYM">     1</i>
   <i name="SYMPREC">      0.00001000</i>
  </separator>
  <separator name="dos" >
   <i type="logical" name="LORBIT"> F  </i>
   <v name="RWIGS">     -1.00000000     -1.00000000     -1.00000000     -1.00000000</v>
   <i type="int" name="NEDOS">   301</i>
   <i name="EMIN">     10.00000000</i>
   <i name="EMAX">    -10.00000000</i>
   <i name="EFERMI">      0.00000000</i>
  </separator>
  <separator name="writing" >
   <i type="int" name="NWRITE">     2</i>
   <i type="logical" name="LWAVE"> F  </i>
   <i type="logical" name="LCHARG"> F  </i>
   <i type="logical" name="LPARD"> F  </i>
   <i type="logical" name="LVTOT"> F  </i>
   <i type="logical" name="LVHAR"> F  </i>
   <i type="logical" name="LELF"> F  </i>
   <i type="logical" name="LOPTICS"> F  </i>
   <v name="STM">      0.00000000      0.00000000      0.00000000      0.00000000      0.00000000      0.00000000      0.00000000</v>
  </separator>
  <separator name="performance" >
   <i type="int" name="NPAR">     4</i>
   <i type="int" name="NSIM">     4</i>
   <i type="int" name="NBLK">    -1</i>
   <i type="logical" name="LPLANE"> T  </i>
   <i type="logical" name="LSCALAPACK"> T  </i>
   <i type="logical" name="LSCAAWARE"> F  </i>
   <i type="logical" name="LSCALU"> F  </i>
   <i type="logical" name="LASYNC"> F  </i>
   <i type="logical" name="LORBITALREAL"> F  </i>
  </separator>
  <separator name="miscellaneous" >
   <i type="int" name="IDIOT">     3</i>
   <i type="logical" name="LMUSIC"> F  </i>
   <v name="POMASS">     91.22400000    178.49000000     92.91000000    180.94800000</v>
   <v name="DARWINR">      0.00000000      0.00000000      0.00000000      0.00000000</v>
   <v name="DARWINV">      1.00000000      1.00000000      1.00000000      1.00000000</v>
   <i type="logical" name="LCORR"> T  </i>
  </separator>
  <i type="logical" name="GGA_COMPAT"> T  </i>
  <i type="logical" name="LBERRY"> F  </i>
  <i type="int" name="ICORELEVEL">     0</i>
  <i type="logical" name="LDAU"> F  </i>
  <i type="int" name="I_CONSTRAINED_M">     0</i>
  <separator name="electronic exchange-correlation" >
   <i type="string" name="GGA">--</i>
   <i type="int" name="VOSKOWN">     0</i>
   <i type="logical" name="LHFCALC"> F  </i>
   <i type="string" name="PRECFOCK"></i>
   <i type="logical" name="LSYMGRAD"> F  </i>
   <i type="logical" name="LHFONE"> F  </i>
   <i type="logical" name="LRHFCALC"> F  </i>
   <i type="logical" name="LTHOMAS"> F  </i>
   <i type="logical" name="LMODELHF"> F  </i>
   <i name="ENCUT4O">     -1.00000000</i>
   <i type="int" name="EXXOEP">     0</i>
   <i type="int" name="FOURORBIT">     0</i>
   <i name="AEXX">      0.00000000</i>
   <i name="HFALPHA">      0.00000000</i>
   <i name="MCALPHA">      0.00000000</i>
   <i name="ALDAX">      1.00000000</i>
   <i name="AGGAX">      1.00000000</i>
   <i name="ALDAC">      1.00000000</i>
   <i name="AGGAC">      1.00000000</i>
   <i type="int" name="NKREDX">     1</i>
   <i type="int" name="NKREDY">     1</i>
   <i type="int" name="NKREDZ">     1</i>
   <i type="logical" name="SHIFTRED"> F  </i>
   <i type="logical" name="ODDONLY"> F  </i>
   <i type="logical" name="EVENONLY"> F  </i>
   <i type="int" name="LMAXFOCK">     0</i>
   <i type="int" name="NMAXFOCKAE">     0</i>
   <i type="logical" name="LFOCKAEDFT"> F  </i>
   <i name="HFSCREEN">      0.00000000</i>
   <i name="HFSCREENC">      0.00000000</i>
   <i type="int" name="NBANDSGWLOW">     0</i>
  </separator>
  <separator name="vdW DFT" >
   <i type="logical" name="LUSE_VDW"> F  </i>
   <i name="Zab_VDW">     -0.84910000</i>
   <i name="PARAM1">      0.12340000</i>
   <i name="PARAM2">      1.00000000</i>
   <i name="PARAM3">      0.00000000</i>
  </separator>
  <separator name="model GW" >
   <i type="int" name="MODEL_GW">     0</i>
   <i name="MODEL_EPS0">     11.84557784</i>
   <i name="MODEL_ALPHA">      1.00000000</i>
  </separator>
  <separator name="linear response parameters" >
   <i type="logical" name="LEPSILON"> F  </i>
   <i type="logical" name="LRPA"> F  </i>
   <i type="logical" name="LNABLA"> F  </i>
   <i type="logical" name="LVEL"> F  </i>
   <i type="int" name="KINTER">     0</i>
   <i name="CSHIFT">      0.10000000</i>
   <i name="OMEGAMAX">     -1.00000000</i>
   <i name="DEG_THRESHOLD">      0.00200000</i>
  </separator>
  <separator name="orbital magnetization" >
   <i type="logical" name="NUCIND"> F  </i>
   <v name="MAGPOS">      0.00000000      0.00000000      0.00000000</v>
   <i type="logical" name="LNICSALL"> T  </i>
   <i type="logical" name="ORBITALMAG"> F  </i>
   <i type="logical" name="LMAGBLOCH"> F  </i>
   <i type="logical" name="LCHIMAG"> F  </i>
   <i type="logical" name="LGAUGE"> T  </i>
   <i type="int" name="MAGATOM">     0</i>
   <v name="MAGDIPOL">      0.00000000      0.00000000      0.00000000</v>
   <v name="AVECCONST">      0.00000000      0.00000000      0.00000000</v>
  </separator>
  <separator name="response functions" >
   <i type="logical" name="LADDER"> F  </i>
   <i type="logical" name="LFXC"> F  </i>
   <i type="logical" name="LHARTREE"> T  </i>
   <i type="int" name="IBSE">     0</i>
   <v type="int" name="KPOINT">    -1     0     0     0</v>
   <i type="logical" name="LTCTE"> F  </i>
   <i type="logical" name="LTETE"> F  </i>
   <i type="logical" name="LTRIPLET"> F  </i>
   <i type="logical" name="LFXCEPS"> F  </i>
   <i type="logical" name="LFXHEG"> F  </i>
   <i type="int" name="NATURALO">     0</i>
   <i type="logical" name="L2ORDER"> F  </i>
   <i type="logical" name="LUSEW"> F  </i>
   <i name="ENCUTGW">     -2.00000000</i>
   <i name="ENCUTGWSOFT">     -2.00000000</i>
   <i name="ENCUTLF">     -1.00000000</i>
   <i type="int" name="LMAXMP2">    -1</i>
   <i name="SCISSOR">      0.00000000</i>
   <i type="int" name="NOMEGA">     0</i>
   <i type="int" name="NOMEGAR">     0</i>
   <i type="int" name="NBANDSGW">    -1</i>
   <i type="int" name="NBANDSO">    -1</i>
   <i type="int" name="NBANDSV">    -1</i>
   <i type="int" name="NELM">    70</i>
   <i type="int" name="NELMHF">     1</i>
   <i type="int" name="DIM">     3</i>
   <i type="int" name="ANTIRES">     0</i>
   <i name="OMEGAMAX">    -30.00000000</i>
   <i name="OMEGAMIN">    -30.00000000</i>
   <i name="OMEGATL">   -200.00000000</i>
   <i type="int" name="OMEGAGRID">     0</i>
   <i name="CSHIFT">     -0.10000000</i>
   <i type="logical" name="SELFENERGY"> F  </i>
   <i type="logical" name="LSPECTRAL"> F  </i>
   <i type="logical" name="LSPECTRALGW"> F  </i>
   <i type="logical" name="LSINGLES"> F  </i>
   <i type="logical" name="LFERMIGW"> F  </i>
   <i type="logical" name="ODDONLYGW"> F  </i>
   <i type="logical" name="EVENONLYGW"> F  </i>
   <i type="int" name="NKREDLFX">     1</i>
   <i type="int" name="NKREDLFY">     1</i>
   <i type="int" name="NKREDLFZ">     1</i>
   <i type="int" name="MAXMEM">  1800</i>
   <i type="int" name="TELESCOPE">     0</i>
   <i type="int" name="TAUPAR">     1</i>
   <i type="int" name="OMEGAPAR">    -1</i>
   <i name="LAMBDA">      1.00000000</i>
  </separator>
  <separator name="External order field" >
   <i name="OFIELD_KAPPA">      0.00000000</i>
   <v name="OFIELD_K">      0.00000000      0.00000000      0.00000000</v>
   <i name="OFIELD_Q6_NEAR">      0.00000000</i>
   <i name="OFIELD_Q6_FAR">      0.00000000</i>
   <i name="OFIELD_A">      0.00000000</i>
  </separator>
 </parameters>
 <atominfo>
  <atoms>      36 </atoms>
  <types>       4 </types>
  <array name="atoms" >
   <dimension dim="1">ion</dimension>
   <field type="string">element</field>
   <field type="int">atomtype</field>
   <set>
    <rc><c>Zr</c><c>   1</c></rc>
    <rc><c>Zr</c><c>   1</c></rc>
    <rc><c>Zr</c><c>   1</c></rc>
    <rc><c>Zr</c><c>   1</c></rc>
    <rc><c>Zr</c><c>   1</c></rc>
    <rc><c>Zr</c><c>   1</c></rc>
    <rc><c>Hf</c><c>   2</c></rc>
    <rc><c>Hf</c><c>   2</c></rc>
    <rc><c>Hf</c><c>   2</c></rc>
    <rc><c>Hf</c><c>   2</c></rc>
    <rc><c>Hf</c><c>   2</c></rc>
    <rc><c>Hf</c><c>   2</c></rc>
    <rc><c>Hf</c><c>   2</c></rc>
    <rc><c>Hf</c><c>   2</c></rc>
    <rc><c>Hf</c><c>   2</c></rc>
    <rc><c>Nb</c><c>   3</c></rc>
    <rc><c>Nb</c><c>   3</c></rc>
    <rc><c>Nb</c><c>   3</c></rc>
    <rc><c>Nb</c><c>   3</c></rc>
    <rc><c>Nb</c><c>   3</c></rc>
    <rc><c>Nb</c><c>   3</c></rc>
    <rc><c>Nb</c><c>   3</c></rc>
    <rc><c>Nb</c><c>   3</c></rc>
    <rc><c>Nb</c><c>   3</c></rc>
    <rc><c>Ta</c><c>   4</c></rc>
    <rc><c>Ta</c><c>   4</c></rc>
    <rc><c>Ta</c><c>   4</c></rc>
    <rc><c>Ta</c><c>   4</c></rc>
    <rc><c>Ta</c><c>   4</c></rc>
    <rc><c>Ta</c><c>   4</c></rc>
    <rc><c>Ta</c><c>   4</c></rc>
    <rc><c>Ta</c><c>   4</c></rc>
    <rc><c>Ta</c><c>   4</c></rc>
    <rc><c>Ta</c><c>   4</c></rc>
    <rc><c>Ta</c><c>   4</c></rc>
    <rc><c>Ta</c><c>   4</c></rc>
   </set>
  </array>
  <array name="atomtypes" >
   <dimension dim="1">type</dimension>
   <field type="int">atomspertype</field>
   <field type="string">element</field>
   <field>mass</field>
   <field>valence</field>
   <field type="string">pseudopotential</field>
   <set>
    <rc><c>   6</c><c>Zr</c><c>     91.22400000</c><c>     12.00000000</c><c>  PAW_PBE Zr_sv 04Jan2005               </c></rc>
    <rc><c>   9</c><c>Hf</c><c>    178.49000000</c><c>      4.00000000</c><c>  PAW_PBE Hf 20Jan2003                  </c></rc>
    <rc><c>   9</c><c>Nb</c><c>     92.91000000</c><c>     13.00000000</c><c>  PAW_PBE Nb_sv 25May2007               </c></rc>
    <rc><c>  12</c><c>Ta</c><c>    180.94800000</c><c>      5.00000000</c><c>  PAW_PBE Ta 17Jan2003                  </c></rc>
   </set>
  </array>
 </atominfo>
 <structure name="initialpos" >
  <crystal>
   <varray name="basis" >
    <v>       6.82918595       0.00742759      -0.00247919 </v>
    <v>       0.01126360      10.18896737      -0.02766517 </v>
    <v>      -0.00356664      -0.02738582      10.21438281 </v>
   </varray>
   <i name="volume">    710.73467054 </i>
   <varray name="rec_basis" >
    <v>       0.14643053      -0.00016174       0.00005070 </v>
    <v>      -0.00010665       0.09814620       0.00026310 </v>
    <v>       0.00003525       0.00026579       0.09790189 </v>
   </varray>
  </crystal>
  <varray name="positions" >
   <v>       0.25188900       0.14288600       0.82910200 </v>
   <v>       0.03517100       0.33625200       0.98948800 </v>
   <v>       0.50226900       0.98598200       0.01530800 </v>
   <v>       0.49766100       0.33458200       0.65940700 </v>
   <v>       0.48869700       0.66930900       0.00830000 </v>
   <v>       0.75327500       0.83249600       0.82193100 </v>
   <v>       0.48058300       0.33984700       0.00270300 </v>
   <v>       0.24301700       0.16575700       0.17852600 </v>
   <v>       0.00204900       0.33089700       0.65476400 </v>
   <v>       0.24554600       0.83535400       0.50171400 </v>
   <v>       0.75417900       0.15838200       0.84100400 </v>
   <v>       0.76092400       0.50840500       0.83582700 </v>
   <v>       0.49689400       0.66361600       0.32622300 </v>
   <v>       0.77076600       0.49190400       0.16557200 </v>
   <v>       0.75280200       0.83154000       0.50346500 </v>
   <v>       0.50675000       0.00184500       0.33013000 </v>
   <v>       0.98870100       0.00643300       0.33301100 </v>
   <v>       0.25172900       0.16195300       0.48866200 </v>
   <v>       0.99907100       0.01219700       0.65784900 </v>
   <v>       0.00073700       0.66406500       0.33198600 </v>
   <v>       0.00899300       0.66090900       0.66727700 </v>
   <v>       0.74485400       0.16110700       0.49041800 </v>
   <v>       0.50021900       0.00774500       0.65373000 </v>
   <v>       0.48995300       0.65803100       0.66360500 </v>
   <v>       0.22908300       0.49568900       0.18056300 </v>
   <v>       0.99372200       0.33269800       0.34880300 </v>
   <v>       0.24408500       0.50849900       0.49615400 </v>
   <v>       0.24280900       0.51904100       0.82205100 </v>
   <v>       0.01528700       0.67714000       0.00421600 </v>
   <v>       0.22767900       0.84007500       0.18172800 </v>
   <v>       0.50208800       0.33777200       0.33864100 </v>
   <v>       0.75233100       0.50863800       0.49663300 </v>
   <v>       0.76985400       0.83505800       0.17854900 </v>
   <v>       0.99731900       0.98304700       0.01024800 </v>
   <v>       0.75468100       0.16918300       0.16992600 </v>
   <v>       0.24433300       0.83167000       0.82248900 </v>
  </varray>
 </structure>
 <calculation>
  <scstep>
   <time name="dav">    0.98    0.99</time>
   <time name="total">    1.06    1.36</time>
   <energy>
    <i name="alphaZ">   1511.75208350 </i>
    <i name="ewald"> -18182.21624942 </i>
    <i name="hartreedc">  -6805.00328991 </i>
    <i name="XCdc">   -466.34774174 </i>
    <i name="pawpsdc">  20511.83264624 </i>
    <i name="pawaedc"> -18809.17346510 </i>
    <i name="eentropy">     -0.01022249 </i>
    <i name="bandstr">     13.92317831 </i>
    <i name="atom">  23951.88204124 </i>
    <i name="e_fr_energy">   1726.63898062 </i>
    <i name="e_wo_entrp">   1726.64920311 </i>
    <i name="e_0_energy">   1726.64238812 </i>
   </energy>
  </scstep>
  <scstep>
   <time name="dav">    1.01    1.02</time>
   <time name="total">    1.01    1.16</time>
   <energy>
    <i name="e_fr_energy">   -121.27846977 </i>
    <i name="e_wo_entrp">   -121.28137554 </i>
    <i name="e_0_energy">   -121.27943836 </i>
   </energy>
  </scstep>
  <scstep>
   <time name="dav">    1.36    1.42</time>
   <time name="total">    1.36    1.48</time>
   <energy>
    <i name="e_fr_energy">   -356.96915992 </i>
    <i name="e_wo_entrp">   -356.96845073 </i>
    <i name="e_0_energy">   -356.96892353 </i>
   </energy>
  </scstep>
  <scstep>
   <time name="dav">    1.40    1.52</time>
   <time name="total">    1.41    1.60</time>
   <energy>
    <i name="e_fr_energy">   -384.25519737 </i>
    <i name="e_wo_entrp">   -384.26888071 </i>
    <i name="e_0_energy">   -384.25975848 </i>
   </energy>
  </scstep>
  <scstep>
   <time name="dav">    1.48    1.49</time>
   <time name="total">    1.53    1.62</time>
   <energy>
    <i name="e_fr_energy">   -386.93500670 </i>
    <i name="e_wo_entrp">   -386.95015740 </i>
    <i name="e_0_energy">   -386.94005693 </i>
   </energy>
  </scstep>
  <scstep>
   <time name="diag">    0.08    0.09</time>
   <time name="diis">    0.64    0.71</time>
   <time name="orth">    0.01    0.01</time>
   <time name="total">    0.80    0.92</time>
   <energy>
    <i name="e_fr_energy">   -376.45656086 </i>
    <i name="e_wo_entrp">   -376.47111438 </i>
    <i name="e_0_energy">   -376.46141203 </i>
   </energy>
  </scstep>
  <scstep>
   <time name="diag">    0.07    0.07</time>
   <time name="diis">    0.77    0.77</time>
   <time name="orth">    0.01    0.01</time>
   <time name="total">    0.91    0.95</time>
   <energy>
    <i name="e_fr_energy">   -378.75384598 </i>
    <i name="e_wo_entrp">   -378.74812486 </i>
    <i name="e_0_energy">   -378.75193894 </i>
   </energy>
  </scstep>
  <scstep>
   <time name="diag">    0.08    0.08</time>
   <time name="diis">    0.83    0.84</time>
   <time name="orth">    0.01    0.01</time>
   <time name="total">    0.99    1.02</time>
   <energy>
    <i name="e_fr_energy">   -372.03016278 </i>
    <i name="e_wo_entrp">   -372.04904850 </i>
    <i name="e_0_energy">   -372.03645802 </i>
   </energy>
  </scstep>
  <scstep>
   <time name="diag">    0.08    0.08</time>
   <time name="diis">    0.82    0.82</time>
   <time name="orth">    0.01    0.01</time>
   <time name="total">    0.98    1.02</time>
   <energy>
    <i name="e_fr_energy">   -371.81965540 </i>
    <i name="e_wo_entrp">   -371.83386914 </i>
    <i name="e_0_energy">   -371.82439331 </i>
   </energy>
  </scstep>
  <scstep>
   <time name="diag">    0.08    0.08</time>
   <time name="diis">    0.78    0.78</time>
   <time name="orth">    0.01    0.01</time>
   <time name="total">    0.94    1.00</time>
   <energy>
    <i name="e_fr_energy">   -371.77839404 </i>
    <i name="e_wo_entrp">   -371.79420152 </i>
    <i name="e_0_energy">   -371.78366320 </i>
   </energy>
  </scstep>
  <scstep>
   <time name="diag">    0.10    0.10</time>
   <time name="diis">    0.78    0.78</time>
   <time name="orth">    0.01    0.01</time>
   <time name="total">    0.95    0.99</time>
   <energy>
    <i name="e_fr_energy">   -371.74333638 </i>
    <i name="e_wo_entrp">   -371.75999661 </i>
    <i name="e_0_energy">   -371.74888979 </i>
   </energy>
  </scstep>
  <scstep>
   <time name="diag">    0.07    0.08</time>
   <time name="diis">    0.85    0.87</time>
   <time name="orth">    0.01    0.01</time>
   <time name="total">    1.02    1.08</time>
   <energy>
    <i name="e_fr_energy">   -371.73455994 </i>
    <i name="e_wo_entrp">   -371.74977450 </i>
    <i name="e_0_energy">   -371.73963146 </i>
   </energy>
  </scstep>
  <scstep>
   <time name="diag">    0.09    0.09</time>
   <time name="diis">    0.88    0.88</time>
   <time name="orth">    0.01    0.01</time>
   <time name="total">    1.04    1.15</time>
   <energy>
    <i name="e_fr_energy">   -371.73390461 </i>
    <i name="e_wo_entrp">   -371.75046887 </i>
    <i name="e_0_energy">   -371.73942603 </i>
   </energy>
  </scstep>
  <scstep>
   <time name="diag">    0.07    0.07</time>
   <time name="diis">    0.79    0.80</time>
   <time name="orth">    0.01    0.01</time>
   <time name="total">    0.94    0.97</time>
   <energy>
    <i name="e_fr_energy">   -371.73335864 </i>
    <i name="e_wo_entrp">   -371.74921671 </i>
    <i name="e_0_energy">   -371.73864466 </i>
   </energy>
  </scstep>
  <scstep>
   <time name="diag">    0.08    0.08</time>
   <time name="diis">    0.78    0.78</time>
   <time name="orth">    0.01    0.01</time>
   <time name="total">    0.93    0.97</time>
   <energy>
    <i name="e_fr_energy">   -371.73339539 </i>
    <i name="e_wo_entrp">   -371.74940715 </i>
    <i name="e_0_energy">   -371.73873264 </i>
   </energy>
  </scstep>
  <scstep>
   <time name="diag">    0.08    0.08</time>
   <time name="diis">    0.78    0.78</time>
   <time name="orth">    0.01    0.01</time>
   <time name="total">    0.98    1.02</time>
   <energy>
    <i name="e_fr_energy">   -371.73343460 </i>
    <i name="e_wo_entrp">   -371.74934689 </i>
    <i name="e_0_energy">   -371.73873869 </i>
   </energy>
  </scstep>
  <scstep>
   <time name="diag">    0.08    0.08</time>
   <time name="diis">    0.71    0.71</time>
   <time name="orth">    0.01    0.01</time>
   <time name="total">    0.88    0.93</time>
   <energy>
    <i name="e_fr_energy">   -371.73342434 </i>
    <i name="e_wo_entrp">   -371.74943406 </i>
    <i name="e_0_energy">   -371.73876092 </i>
   </energy>
  </scstep>
  <scstep>
   <time name="diag">    0.08    0.08</time>
   <time name="diis">    0.71    0.71</time>
   <time name="orth">    0.01    0.01</time>
   <time name="total">    0.87    0.91</time>
   <energy>
    <i name="e_fr_energy">   -371.73343345 </i>
    <i name="e_wo_entrp">   -371.74942443 </i>
    <i name="e_0_energy">   -371.73876378 </i>
   </energy>
  </scstep>
  <scstep>
   <time name="diag">    0.07    0.07</time>
   <time name="diis">    0.50    0.50</time>
   <time name="orth">    0.01    0.01</time>
   <time name="total">    0.65    0.68</time>
   <energy>
    <i name="e_fr_energy">   -371.73344200 </i>
    <i name="e_wo_entrp">   -371.74944995 </i>
    <i name="e_0_energy">   -371.73877798 </i>
   </energy>
  </scstep>
  <scstep>
   <time name="diag">    0.07    0.07</time>
   <time name="diis">    0.40    0.40</time>
   <time name="orth">    0.01    0.01</time>
   <time name="total">    0.52    0.55</time>
   <energy>
    <i name="alphaZ">   1511.75208350 </i>
    <i name="ewald"> -18182.21624942 </i>
    <i name="hartreedc">  -6593.11491786 </i>
    <i name="XCdc">   -463.80947639 </i>
    <i name="pawpsdc">  32906.79326440 </i>
    <i name="pawaedc"> -31187.65320054 </i>
    <i name="eentropy">      0.01600146 </i>
    <i name="bandstr">  -2315.38298841 </i>
    <i name="atom">  23951.88204124 </i>
    <i name="e_fr_energy">   -371.73344203 </i>
    <i name="e_wo_entrp">   -371.74944349 </i>
    <i name="e_0_energy">   -371.73877585 </i>
   </energy>
  </scstep>
  <structure>
   <crystal>
    <varray name="basis" >
     <v>       6.82918595       0.00742759      -0.00247919 </v>
     <v>       0.01126360      10.18896737      -0.02766517 </v>
     <v>      -0.00356664      -0.02738582      10.21438281 </v>
    </varray>
    <i name="volume">    710.73467054 </i>
    <varray name="rec_basis" >
     <v>       0.14643053      -0.00016174       0.00005070 </v>
     <v>      -0.00010665       0.09814620       0.00026310 </v>
     <v>       0.00003525       0.00026579       0.09790189 </v>
    </varray>
   </crystal>
   <varray name="positions" >
    <v>       0.25188900       0.14288600       0.82910200 </v>
    <v>       0.03517100       0.33625200       0.98948800 </v>
    <v>       0.50226900       0.98598200       0.01530800 </v>
    <v>       0.49766100       0.33458200       0.65940700 </v>
    <v>       0.48869700       0.66930900       0.00830000 </v>
    <v>       0.75327500       0.83249600       0.82193100 </v>
    <v>       0.48058300       0.33984700       0.00270300 </v>
    <v>       0.24301700       0.16575700       0.17852600 </v>
    <v>       0.00204900       0.33089700       0.65476400 </v>
    <v>       0.24554600       0.83535400       0.50171400 </v>
    <v>       0.75417900       0.15838200       0.84100400 </v>
    <v>       0.76092400       0.50840500       0.83582700 </v>
    <v>       0.49689400       0.66361600       0.32622300 </v>
    <v>       0.77076600       0.49190400       0.16557200 </v>
    <v>       0.75280200       0.83154000       0.50346500 </v>
    <v>       0.50675000       0.00184500       0.33013000 </v>
    <v>       0.98870100       0.00643300       0.33301100 </v>
    <v>       0.25172900       0.16195300       0.48866200 </v>
    <v>       0.99907100       0.01219700       0.65784900 </v>
    <v>       0.00073700       0.66406500       0.33198600 </v>
    <v>       0.00899300       0.66090900       0.66727700 </v>
    <v>       0.74485400       0.16110700       0.49041800 </v>
    <v>       0.50021900       0.00774500       0.65373000 </v>
    <v>       0.48995300       0.65803100       0.66360500 </v>
    <v>       0.22908300       0.49568900       0.18056300 </v>
    <v>       0.99372200       0.33269800       0.34880300 </v>
    <v>       0.24408500       0.50849900       0.49615400 </v>
    <v>       0.24280900       0.51904100       0.82205100 </v>
    <v>       0.01528700       0.67714000       0.00421600 </v>
    <v>       0.22767900       0.84007500       0.18172800 </v>
    <v>       0.50208800       0.33777200       0.33864100 </v>
    <v>       0.75233100       0.50863800       0.49663300 </v>
    <v>       0.76985400       0.83505800       0.17854900 </v>
    <v>       0.99731900       0.98304700       0.01024800 </v>
    <v>       0.75468100       0.16918300       0.16992600 </v>
    <v>       0.24433300       0.83167000       0.82248900 </v>
   </varray>
  </structure>
  <varray name="forces" >
   <v>       0.01106911      -0.09384750       0.00180585 </v>
   <v>      -0.01348270       0.00067000      -0.00955436 </v>
   <v>       0.00997815      -0.01160944       0.00026482 </v>
   <v>      -0.00417197       0.00008390       0.00872120 </v>
   <v>       0.01421995      -0.00744782      -0.00106734 </v>
   <v>       0.01571507      -0.00322574      -0.00151765 </v>
   <v>       0.00367990       0.00601663      -0.00555090 </v>
   <v>      -0.00210428       0.00471749       0.00640816 </v>
   <v>       0.00363237      -0.00642799       0.00415521 </v>
   <v>      -0.00093337      -0.00201319       0.11996014 </v>
   <v>      -0.00292608       0.03263584       0.00571042 </v>
   <v>      -0.00441298      -0.02942355      -0.00483137 </v>
   <v>      -0.00453303       0.00514051      -0.00140632 </v>
   <v>      -0.00089676      -0.01593563       0.00862584 </v>
   <v>       0.00691598      -0.00315012      -0.02553811 </v>
   <v>       0.00075973      -0.01169461      -0.00162102 </v>
   <v>      -0.00194336      -0.01313635      -0.00904027 </v>
   <v>      -0.00389664       0.01391084       0.00532331 </v>
   <v>       0.01809413      -0.00221300       0.00844584 </v>
   <v>       0.00277515       0.01179010      -0.00654646 </v>
   <v>      -0.02553434      -0.02653032      -0.01575255 </v>
   <v>       0.00957969       0.01140817      -0.01415652 </v>
   <v>      -0.02337300      -0.01932698       0.01698482 </v>
   <v>       0.00140529       0.00246398       0.00164077 </v>
   <v>      -0.00463896      -0.00898630       0.00990146 </v>
   <v>       0.00380833       0.00015661      -0.00826005 </v>
   <v>       0.00170135      -0.01724933      -0.00391308 </v>
   <v>       0.01228774       0.13375702       0.00381650 </v>
   <v>       0.01888138       0.01430231      -0.00982076 </v>
   <v>       0.00223616       0.01337544      -0.03310131 </v>
   <v>      -0.00684732      -0.00098976      -0.00213779 </v>
   <v>       0.00550704      -0.00514897      -0.01688170 </v>
   <v>      -0.00439765      -0.00105725       0.04065806 </v>
   <v>       0.02516138      -0.02227214      -0.01082472 </v>
   <v>      -0.00393978       0.01567289       0.01193267 </v>
   <v>      -0.05937569       0.03558430      -0.07283278 </v>
  </varray>
  <varray name="stress" >
   <v>       0.37042555       0.04934023       0.31334199 </v>
   <v>       0.04934022       0.04900719       0.14703739 </v>
   <v>       0.31334201       0.14703732       0.42637110 </v>
  </varray>
  <energy>
   <i name="e_fr_energy">   -371.73344203 </i>
   <i name="e_wo_entrp">   -371.73877585 </i>
   <i name="e_0_energy">      0.01600146 </i>
  </energy>
  <time name="totalsc">   21.32   23.03</time>
 </calculation>
 <calculation>
  <scstep>
   <time name="dav">    0.98    0.99</time>
   <time name="total">    1.08    1.23</time>
   <energy>
    <i name="alphaZ">   1511.52408161 </i>
    <i name="ewald"> -18181.23447228 </i>
    <i name="hartreedc">  -6592.84657706 </i>
    <i name="XCdc">   -463.84950262 </i>
    <i name="pawpsdc">  32906.71334369 </i>
    <i name="pawaedc"> -31187.57261776 </i>
    <i name="eentropy">      0.01600671 </i>
    <i name="bandstr">  -2316.36667441 </i>
    <i name="atom">  23951.88204124 </i>
    <i name="e_fr_energy">   -371.73437088 </i>
    <i name="e_wo_entrp">   -371.75037759 </i>
    <i name="e_0_energy">   -371.73970645 </i>
   </energy>
  </scstep>
  <scstep>
   <time name="diag">    0.10    0.10</time>
   <time name="diis">    0.81    0.82</time>
   <time name="orth">    0.01    0.01</time>
   <time name="total">    1.11    1.14</time>
   <energy>
    <i name="e_fr_energy">   -371.73446374 </i>
    <i name="e_wo_entrp">   -371.75036013 </i>
    <i name="e_0_energy">   -371.73976253 </i>
   </energy>
  </scstep>
  <scstep>
   <time name="diag">    0.08    0.08</time>
   <time name="diis">    0.69    0.70</time>
   <time name="orth">    0.01    0.01</time>
   <time name="total">    0.85    0.89</time>
   <energy>
    <i name="e_fr_energy">   -371.73441579 </i>
    <i name="e_wo_entrp">   -371.75042756 </i>
    <i name="e_0_energy">   -371.73975305 </i>
   </energy>
  </scstep>
  <scstep>
   <time name="diag">    0.07    0.07</time>
   <time name="diis">    0.52    0.52</time>
   <time name="orth">    0.01    0.01</time>
   <time name="total">    0.67    0.70</time>
   <energy>
    <i name="e_fr_energy">   -371.73440523 </i>
    <i name="e_wo_entrp">   -371.75035710 </i>
    <i name="e_0_energy">   -371.73972252 </i>
   </energy>
  </scstep>
  <scstep>
   <time name="diag">    0.07    0.07</time>
   <time name="diis">    0.34    0.35</time>
   <time name="orth">    0.01    0.01</time>
   <time name="total">    0.46    0.49</time>
   <energy>
    <i name="alphaZ">   1511.52408161 </i>
    <i name="ewald"> -18181.23447228 </i>
    <i name="hartreedc">  -6593.43781797 </i>
    <i name="XCdc">   -463.82484634 </i>
    <i name="pawpsdc">  32900.19021231 </i>
    <i name="pawaedc"> -31181.02945246 </i>
    <i name="eentropy">      0.01598226 </i>
    <i name="bandstr">  -2315.82013086 </i>
    <i name="atom">  23951.88204124 </i>
    <i name="e_fr_energy">   -371.73440248 </i>
    <i name="e_wo_entrp">   -371.75038473 </i>
    <i name="e_0_energy">   -371.73972990 </i>
   </energy>
  </scstep>
  <structure>
   <crystal>
    <varray name="basis" >
     <v>       6.82963702       0.00748769      -0.00209756 </v>
     <v>       0.01135246      10.18905579      -0.02739946 </v>
     <v>      -0.00299633      -0.02711825      10.21515858 </v>
    </varray>
    <i name="volume">    710.84187944 </i>
    <varray name="rec_basis" >
     <v>       0.14642086      -0.00016303       0.00004252 </v>
     <v>      -0.00010752       0.09814534       0.00026052 </v>
     <v>       0.00002978       0.00026322       0.09789444 </v>
    </varray>
   </crystal>
   <varray name="positions" >
    <v>       0.25191268       0.14275268       0.82910420 </v>
    <v>       0.03514242       0.33625294       0.98947446 </v>
    <v>       0.50229017       0.98596549       0.01530834 </v>
    <v>       0.49765216       0.33458216       0.65941936 </v>
    <v>       0.48872715       0.66929839       0.00829847 </v>
    <v>       0.75330831       0.83249139       0.82192885 </v>
    <v>       0.48059078       0.33985552       0.00269516 </v>
    <v>       0.24301253       0.16576373       0.17853510 </v>
    <v>       0.00205672       0.33088788       0.65476986 </v>
    <v>       0.24554411       0.83535160       0.50188397 </v>
    <v>       0.75417273       0.15842838       0.84101222 </v>
    <v>       0.76091471       0.50836319       0.83582004 </v>
    <v>       0.49688438       0.66362330       0.32622102 </v>
    <v>       0.77076414       0.49188140       0.16558416 </v>
    <v>       0.75281665       0.83153542       0.50342881 </v>
    <v>       0.50675164       0.00182838       0.33012766 </v>
    <v>       0.98869691       0.00641431       0.33299814 </v>
    <v>       0.25172071       0.16197279       0.48866959 </v>
    <v>       0.99910936       0.01219386       0.65786097 </v>
    <v>       0.00074285       0.66408172       0.33197677 </v>
    <v>       0.00893894       0.66087129       0.66725456 </v>
    <v>       0.74487426       0.16112314       0.49039799 </v>
    <v>       0.50016952       0.00771765       0.65375398 </v>
    <v>       0.48995597       0.65803450       0.66360734 </v>
    <v>       0.22907320       0.49567628       0.18057699 </v>
    <v>       0.99373006       0.33269819       0.34879130 </v>
    <v>       0.24408864       0.50847448       0.49614839 </v>
    <v>       0.24283473       0.51923099       0.82205693 </v>
    <v>       0.01532697       0.67716025       0.00420215 </v>
    <v>       0.22768368       0.84009387       0.18168115 </v>
    <v>       0.50207349       0.33777060       0.33863796 </v>
    <v>       0.75234267       0.50863061       0.49660906 </v>
    <v>       0.76984471       0.83505666       0.17860660 </v>
    <v>       0.99737237       0.98301528       0.01023259 </v>
    <v>       0.75467262       0.16920531       0.16994297 </v>
    <v>       0.24420703       0.83172036       0.82238591 </v>
   </varray>
  </structure>
  <varray name="forces" >
   <v>       0.01144782      -0.08447810       0.00288385 </v>
   <v>      -0.00900023       0.00132862      -0.01154545 </v>
   <v>       0.00974860      -0.01062111       0.00032553 </v>
   <v>      -0.00392130       0.00077071       0.00954355 </v>
   <v>       0.01281935      -0.00561448      -0.00112775 </v>
   <v>       0.01440849      -0.00271590      -0.00165595 </v>
   <v>       0.00138807       0.00529692      -0.00730135 </v>
   <v>      -0.00137264       0.00315978       0.00464471 </v>
   <v>       0.00502752      -0.00551851       0.00537976 </v>
   <v>      -0.00114095      -0.00218611       0.10642559 </v>
   <v>      -0.00293131       0.02950053       0.00542453 </v>
   <v>      -0.00494885      -0.02780641      -0.00331150 </v>
   <v>      -0.00578521       0.00531743       0.00007901 </v>
   <v>      -0.00089820      -0.01407674       0.00733619 </v>
   <v>       0.00489369      -0.00251007      -0.02270728 </v>
   <v>       0.00065602      -0.00958383      -0.00144866 </v>
   <v>      -0.00104180      -0.01165835      -0.00780561 </v>
   <v>      -0.00283921       0.01305531       0.00496931 </v>
   <v>       0.01547271      -0.00135792       0.00837007 </v>
   <v>       0.00463296       0.01021427      -0.00511770 </v>
   <v>      -0.02596711      -0.02292171      -0.01685161 </v>
   <v>       0.00785588       0.01120950      -0.01273432 </v>
   <v>      -0.02020293      -0.01871681       0.01645188 </v>
   <v>       0.00367789       0.00395272       0.00029106 </v>
   <v>      -0.00471165      -0.00826723       0.00763527 </v>
   <v>       0.00359526      -0.00027566      -0.00688776 </v>
   <v>       0.00088556      -0.01631279      -0.00472923 </v>
   <v>       0.01184285       0.11834030       0.00535007 </v>
   <v>       0.01492804       0.01328103      -0.00684364 </v>
   <v>       0.00257638       0.01253837      -0.03002273 </v>
   <v>      -0.00605984      -0.00120219      -0.00091245 </v>
   <v>       0.00444540      -0.00721396      -0.01610131 </v>
   <v>      -0.00346543      -0.00047020       0.03578995 </v>
   <v>       0.02071055      -0.01887537      -0.00931107 </v>
   <v>      -0.00483790       0.01351270       0.01071089 </v>
   <v>      -0.05188851       0.03090522      -0.06519586 </v>
  </varray>
  <varray name="stress" >
   <v>       0.19078629       0.04026293       0.27812383 </v>
   <v>       0.04026294      -0.11574172       0.11577385 </v>
   <v>       0.27812382       0.11577386       0.21358407 </v>
  </varray>
  <energy>
   <i name="e_fr_energy">   -371.73440248 </i>
   <i name="e_wo_entrp">   -371.73972990 </i>
   <i name="e_0_energy">      0.01598226 </i>
  </energy>
  <time name="totalsc">    5.75    6.16</time>
 </calculation>
 <calculation>
  <scstep>
   <time name="dav">    1.05    1.05</time>
   <time name="total">    1.13    1.28</time>
   <energy>
    <i name="alphaZ">   1510.84044534 </i>
    <i name="ewald"> -18178.27536555 </i>
    <i name="hartreedc">  -6592.64375368 </i>
    <i name="XCdc">   -463.94437298 </i>
    <i name="pawpsdc">  32900.34859606 </i>
    <i name="pawaedc"> -31181.18616731 </i>
    <i name="eentropy">      0.01595263 </i>
    <i name="bandstr">  -2318.77373016 </i>
    <i name="atom">  23951.88204124 </i>
    <i name="e_fr_energy">   -371.73635441 </i>
    <i name="e_wo_entrp">   -371.75230705 </i>
    <i name="e_0_energy">   -371.74167196 </i>
   </energy>
  </scstep>
  <scstep>
   <time name="diag">    0.07    0.07</time>
   <time name="diis">    0.77    0.77</time>
   <time name="orth">    0.01    0.01</time>
   <time name="total">    0.92    0.95</time>
   <energy>
    <i name="e_fr_energy">   -371.73710863 </i>
    <i name="e_wo_entrp">   -371.75273945 </i>
    <i name="e_0_energy">   -371.74231891 </i>
   </energy>
  </scstep>
  <scstep>
   <time name="diag">    0.08    0.08</time>
   <time name="diis">    0.78    0.78</time>
   <time name="orth">    0.01    0.01</time>
   <time name="total">    0.93    0.96</time>
   <energy>
    <i name="e_fr_energy">   -371.73667931 </i>
    <i name="e_wo_entrp">   -371.75264876 </i>
    <i name="e_0_energy">   -371.74200246 </i>
   </energy>
  </scstep>
  <scstep>
   <time name="diag">    0.07    0.07</time>
   <time name="diis">    0.76    0.77</time>
   <time name="orth">    0.01    0.01</time>
   <time name="total">    0.91    0.95</time>
   <energy>
    <i name="e_fr_energy">   -371.73658916 </i>
    <i name="e_wo_entrp">   -371.75237699 </i>
    <i name="e_0_energy">   -371.74185177 </i>
   </energy>
  </scstep>
  <scstep>
   <time name="diag">    0.07    0.07</time>
   <time name="diis">    0.78    0.79</time>
   <time name="orth">    0.01    0.01</time>
   <time name="total">    0.96    1.00</time>
   <energy>
    <i name="e_fr_energy">   -371.73657780 </i>
    <i name="e_wo_entrp">   -371.75246318 </i>
    <i name="e_0_energy">   -371.74187293 </i>
   </energy>
  </scstep>
  <scstep>
   <time name="diag">    0.11    0.11</time>
   <time name="diis">    0.58    0.59</time>
   <time name="orth">    0.02    0.02</time>
   <time name="total">    0.74    0.77</time>
   <energy>
    <i name="alphaZ">   1510.84044534 </i>
    <i name="ewald"> -18178.27536555 </i>
    <i name="hartreedc">  -6594.45989746 </i>
    <i name="XCdc">   -463.86707392 </i>
    <i name="pawpsdc">  32881.05184887 </i>
    <i name="pawaedc"> -31161.84673567 </i>
    <i name="eentropy">      0.01582278 </i>
    <i name="bandstr">  -2317.07765431 </i>
    <i name="atom">  23951.88204124 </i>
    <i name="e_fr_energy">   -371.73656865 </i>
    <i name="e_wo_entrp">   -371.75239144 </i>
    <i name="e_0_energy">   -371.74184292 </i>
   </energy>
  </scstep>
  <structure>
   <crystal>
    <varray name="basis" >
     <v>       6.83099024       0.00766796      -0.00095267 </v>
     <v>       0.01161902      10.18932107      -0.02660234 </v>
     <v>      -0.00128538      -0.02631552      10.21748589 </v>
    </varray>
    <i name="volume">    711.16352644 </i>
    <varray name="rec_basis" >
     <v>       0.14639185      -0.00016689       0.00001799 </v>
     <v>      -0.00011013       0.09814275       0.00025276 </v>
     <v>       0.00001336       0.00025551       0.09787209 </v>
    </varray>
   </crystal>
   <varray name="positions" >
    <v>       0.25198372       0.14235274       0.82911082 </v>
    <v>       0.03505668       0.33625575       0.98943384 </v>
    <v>       0.50235369       0.98591598       0.01530934 </v>
    <v>       0.49762566       0.33458263       0.65945642 </v>
    <v>       0.48881760       0.66926658       0.00829386 </v>
    <v>       0.75340824       0.83247755       0.82192238 </v>
    <v>       0.48061412       0.33988108       0.00267164 </v>
    <v>       0.24299913       0.16578391       0.17856239 </v>
    <v>       0.00207986       0.33086052       0.65478746 </v>
    <v>       0.24553842       0.83534438       0.50239382 </v>
    <v>       0.75415390       0.15856753       0.84103686 </v>
    <v>       0.76088686       0.50823778       0.83579916 </v>
    <v>       0.49685552       0.66364521       0.32621510 </v>
    <v>       0.77075857       0.49181359       0.16562064 </v>
    <v>       0.75286059       0.83152167       0.50332023 </v>
    <v>       0.50675655       0.00177852       0.33012064 </v>
    <v>       0.98868463       0.00635824       0.33295956 </v>
    <v>       0.25169585       0.16203214       0.48869237 </v>
    <v>       0.99922442       0.01218444       0.65789686 </v>
    <v>       0.00076040       0.66413187       0.33194908 </v>
    <v>       0.00877676       0.66075818       0.66718727 </v>
    <v>       0.74493506       0.16117154       0.49033796 </v>
    <v>       0.50002110       0.00763559       0.65382592 </v>
    <v>       0.48996489       0.65804502       0.66361434 </v>
    <v>       0.22904379       0.49563812       0.18061897 </v>
    <v>       0.99375426       0.33269874       0.34875620 </v>
    <v>       0.24409957       0.50840092       0.49613156 </v>
    <v>       0.24291191       0.51980096       0.82207469 </v>
    <v>       0.01544689       0.67722100       0.00416059 </v>
    <v>       0.22769774       0.84015048       0.18154061 </v>
    <v>       0.50202996       0.33776639       0.33862886 </v>
    <v>       0.75237769       0.50860846       0.49653726 </v>
    <v>       0.76981684       0.83505263       0.17877940 </v>
    <v>       0.99753247       0.98292014       0.01018636 </v>
    <v>       0.75464749       0.16927225       0.16999386 </v>
    <v>       0.24382917       0.83187145       0.82207667 </v>
   </varray>
  </structure>
  <varray name="forces" >
   <v>       0.01141095      -0.06022390       0.00753230 </v>
   <v>       0.00664180       0.00492425      -0.01762915 </v>
   <v>       0.00998855      -0.00844704       0.00210562 </v>
   <v>      -0.00562492       0.00308893       0.01103690 </v>
   <v>       0.00808163       0.00004516      -0.00012203 </v>
   <v>       0.01095011      -0.00227020      -0.00447453 </v>
   <v>      -0.00631173       0.00541548      -0.01053493 </v>
   <v>       0.00061408      -0.00132490       0.00251444 </v>
   <v>       0.00957568      -0.00098905       0.00652889 </v>
   <v>      -0.00185136      -0.00592395       0.06663755 </v>
   <v>      -0.00267984       0.02116764       0.00602650 </v>
   <v>      -0.00620311      -0.02147988       0.00002697 </v>
   <v>      -0.00993689       0.00582174       0.00498782 </v>
   <v>      -0.00190479      -0.00703104       0.00649939 </v>
   <v>      -0.00054004      -0.00243757      -0.01743058 </v>
   <v>      -0.00085423      -0.00446476       0.00060078 </v>
   <v>       0.00366559      -0.00940179      -0.00396582 </v>
   <v>      -0.00012906       0.00909294       0.00257311 </v>
   <v>       0.00323313       0.00412230       0.00442389 </v>
   <v>       0.01138382       0.00705852       0.00038437 </v>
   <v>      -0.02789335      -0.01487611      -0.02162757 </v>
   <v>       0.00380270       0.00707187      -0.00820708 </v>
   <v>      -0.00751040      -0.01349387       0.01091632 </v>
   <v>       0.01090142       0.00601412      -0.00650834 </v>
   <v>      -0.00362233      -0.00414564       0.00257119 </v>
   <v>       0.00302801      -0.00012891      -0.00384078 </v>
   <v>      -0.00133484      -0.01262041      -0.00772350 </v>
   <v>       0.01005686       0.07834884       0.00934230 </v>
   <v>       0.00390528       0.00981092       0.00207344 </v>
   <v>       0.00397357       0.00908777      -0.01886708 </v>
   <v>      -0.00403271      -0.00039618       0.00226971 </v>
   <v>       0.00207424      -0.01241203      -0.01546404 </v>
   <v>      -0.00141848       0.00006038       0.02553576 </v>
   <v>       0.00804830      -0.01164416      -0.00331553 </v>
   <v>      -0.00736932       0.00723268       0.00961179 </v>
   <v>      -0.03211831       0.01534790      -0.04448808 </v>
  </varray>
  <varray name="stress" >
   <v>      -0.42100890      -0.00806074       0.07848211 </v>
   <v>      -0.00806074      -0.63401777       0.00905996 </v>
   <v>       0.07848211       0.00905997      -0.46331142 </v>
  </varray>
  <energy>
   <i name="e_fr_energy">   -371.73656865 </i>
   <i name="e_wo_entrp">   -371.74184292 </i>
   <i name="e_0_energy">      0.01582278 </i>
  </energy>
  <time name="totalsc">    7.18    7.67</time>
 </calculation>
 <calculation>
  <scstep>
   <time name="dav">    0.88    0.99</time>
   <time name="total">    1.00    1.26</time>
   <energy>
    <i name="alphaZ">   1509.47483282 </i>
    <i name="ewald"> -18172.29538439 </i>
    <i name="hartreedc">  -6592.84444543 </i>
    <i name="XCdc">   -464.10860567 </i>
    <i name="pawpsdc">  32881.61822036 </i>
    <i name="pawaedc"> -31162.42767618 </i>
    <i name="eentropy">      0.01573332 </i>
    <i name="bandstr">  -2323.05174361 </i>
    <i name="atom">  23951.88204124 </i>
    <i name="e_fr_energy">   -371.73702754 </i>
    <i name="e_wo_entrp">   -371.75276086 </i>
    <i name="e_0_energy">   -371.74227198 </i>
   </energy>
  </scstep>
  <scstep>
   <time name="diag">    0.07    0.07</time>
   <time name="diis">    0.77    0.78</time>
   <time name="orth">    0.01    0.01</time>
   <time name="total">    0.93    0.97</time>
   <energy>
    <i name="e_fr_energy">   -371.73994436 </i>
    <i name="e_wo_entrp">   -371.75504473 </i>
    <i name="e_0_energy">   -371.74497782 </i>
   </energy>
  </scstep>
  <scstep>
   <time name="diag">    0.08    0.08</time>
   <time name="diis">    0.88    0.88</time>
   <time name="orth">    0.01    0.01</time>
   <time name="total">    1.05    1.09</time>
   <energy>
    <i name="e_fr_energy">   -371.73826629 </i>
    <i name="e_wo_entrp">   -371.75405162 </i>
    <i name="e_0_energy">   -371.74352807 </i>
   </energy>
  </scstep>
  <scstep>
   <time name="diag">    0.07    0.07</time>
   <time name="diis">    0.78    0.78</time>
   <time name="orth">    0.01    0.01</time>
   <time name="total">    0.92    0.96</time>
   <energy>
    <i name="e_fr_energy">   -371.73790893 </i>
    <i name="e_wo_entrp">   -371.75332298 </i>
    <i name="e_0_energy">   -371.74304695 </i>
   </energy>
  </scstep>
  <scstep>
   <time name="diag">    0.07    0.07</time>
   <time name="diis">    0.80    0.80</time>
   <time name="orth">    0.01    0.01</time>
   <time name="total">    0.95    0.98</time>
   <energy>
    <i name="e_fr_energy">   -371.73786287 </i>
    <i name="e_wo_entrp">   -371.75346691 </i>
    <i name="e_0_energy">   -371.74306421 </i>
   </energy>
  </scstep>
  <scstep>
   <time name="diag">    0.07    0.07</time>
   <time name="diis">    0.73    0.73</time>
   <time name="orth">    0.01    0.01</time>
   <time name="total">    0.88    0.91</time>
   <energy>
    <i name="e_fr_energy">   -371.73783812 </i>
    <i name="e_wo_entrp">   -371.75332248 </i>
    <i name="e_0_energy">   -371.74299957 </i>
   </energy>
  </scstep>
  <scstep>
   <time name="diag">    0.07    0.07</time>
   <time name="diis">    0.61    0.61</time>
   <time name="orth">    0.01    0.01</time>
   <time name="total">    0.75    0.78</time>
   <energy>
    <i name="e_fr_energy">   -371.73783496 </i>
    <i name="e_wo_entrp">   -371.75334287 </i>
    <i name="e_0_energy">   -371.74300426 </i>
   </energy>
  </scstep>
  <scstep>
   <time name="diag">    0.07    0.07</time>
   <time name="diis">    0.57    0.58</time>
   <time name="orth">    0.01    0.01</time>
   <time name="total">    0.70    0.73</time>
   <energy>
    <i name="alphaZ">   1509.47483282 </i>
    <i name="ewald"> -18172.29538439 </i>
    <i name="hartreedc">  -6596.28501425 </i>
    <i name="XCdc">   -463.96180064 </i>
    <i name="pawpsdc">  32845.54269639 </i>
    <i name="pawaedc"> -31126.37896880 </i>
    <i name="eentropy">      0.01550687 </i>
    <i name="bandstr">  -2319.73174246 </i>
    <i name="atom">  23951.88204124 </i>
    <i name="e_fr_energy">   -371.73783323 </i>
    <i name="e_wo_entrp">   -371.75334009 </i>
    <i name="e_0_energy">   -371.74300218 </i>
   </energy>
  </scstep>
  <structure>
   <crystal>
    <varray name="basis" >
     <v>       6.83369667       0.00802851       0.00133710 </v>
     <v>       0.01215214      10.18985161      -0.02500810 </v>
     <v>       0.00213651      -0.02471006      10.22214052 </v>
    </varray>
    <i name="volume">    711.80691167 </i>
    <varray name="rec_basis" >
     <v>       0.14633389      -0.00017459      -0.00003101 </v>
     <v>      -0.00011534       0.09813758       0.00023725 </v>
     <v>      -0.00001942       0.00024011       0.09782745 </v>
    </varray>
   </crystal>
   <varray name="positions" >
    <v>       0.25212579       0.14155287       0.82912410 </v>
    <v>       0.03488526       0.33626138       0.98935264 </v>
    <v>       0.50248070       0.98581695       0.01531135 </v>
    <v>       0.49757264       0.33458358       0.65953054 </v>
    <v>       0.48899848       0.66920295       0.00828464 </v>
    <v>       0.75360805       0.83244988       0.82190943 </v>
    <v>       0.48066081       0.33993220       0.00262460 </v>
    <v>       0.24297233       0.16582428       0.17861695 </v>
    <v>       0.00212614       0.33080579       0.65482263 </v>
    <v>       0.24552677       0.83532987       0.50341330 </v>
    <v>       0.75411624       0.15884582       0.84108611 </v>
    <v>       0.76083118       0.50798695       0.83575744 </v>
    <v>       0.49679782       0.66368904       0.32620326 </v>
    <v>       0.77074742       0.49167798       0.16569360 </v>
    <v>       0.75294851       0.83149420       0.50310312 </v>
    <v>       0.50676637       0.00167882       0.33010660 </v>
    <v>       0.98866010       0.00624610       0.33288244 </v>
    <v>       0.25164612       0.16215085       0.48873792 </v>
    <v>       0.99945448       0.01216559       0.65796862 </v>
    <v>       0.00079549       0.66423218       0.33189371 </v>
    <v>       0.00845253       0.66053198       0.66705278 </v>
    <v>       0.74505665       0.16126837       0.49021791 </v>
    <v>       0.49972429       0.00747147       0.65396982 </v>
    <v>       0.48998272       0.65806604       0.66362834 </v>
    <v>       0.22898496       0.49556180       0.18070292 </v>
    <v>       0.99380266       0.33269986       0.34868600 </v>
    <v>       0.24412145       0.50825382       0.49609793 </v>
    <v>       0.24306618       0.52094085       0.82211011 </v>
    <v>       0.01568669       0.67734249       0.00407747 </v>
    <v>       0.22772592       0.84026372       0.18125959 </v>
    <v>       0.50194293       0.33775797       0.33861066 </v>
    <v>       0.75244774       0.50856415       0.49639367 </v>
    <v>       0.76976101       0.83504456       0.17912492 </v>
    <v>       0.99785263       0.98272984       0.01009389 </v>
    <v>       0.75459720       0.16940612       0.17009562 </v>
    <v>       0.24307375       0.83217368       0.82145839 </v>
   </varray>
  </structure>
  <varray name="forces" >
   <v>       0.01100906      -0.00687725       0.01608770 </v>
   <v>       0.03755011       0.00873168      -0.02948593 </v>
   <v>       0.01007901      -0.00388345       0.00355449 </v>
   <v>      -0.00915326       0.00560991       0.01451241 </v>
   <v>      -0.00047620       0.01127216       0.00073169 </v>
   <v>       0.00386079      -0.00109846      -0.00961547 </v>
   <v>      -0.02136556       0.00342893      -0.01766175 </v>
   <v>       0.00382038      -0.00922756      -0.00362124 </v>
   <v>       0.01830237       0.00441473       0.01094935 </v>
   <v>      -0.00493882      -0.01115331      -0.00805017 </v>
   <v>      -0.00209047       0.00424197       0.00573465 </v>
   <v>      -0.00841484      -0.00981394       0.00679311 </v>
   <v>      -0.01775906       0.00716590       0.01237560 </v>
   <v>      -0.00254387       0.00490107       0.00393804 </v>
   <v>      -0.00913274      -0.00056117      -0.00331203 </v>
   <v>      -0.00371414       0.00759245       0.00490330 </v>
   <v>       0.01281502      -0.00264841       0.00471556 </v>
   <v>       0.00355825       0.00243734      -0.00258220 </v>
   <v>      -0.02228709       0.01276210      -0.00365681 </v>
   <v>       0.02475925       0.00034658       0.01146104 </v>
   <v>      -0.03186713       0.00246048      -0.02936147 </v>
   <v>      -0.00238287       0.00108175       0.00006491 </v>
   <v>       0.01805440      -0.00484127       0.00011599 </v>
   <v>       0.02537322       0.01118595      -0.01895622 </v>
   <v>      -0.00324639       0.00083505      -0.00763081 </v>
   <v>       0.00222939      -0.00243939       0.00183762 </v>
   <v>      -0.00800376      -0.00640941      -0.01292744 </v>
   <v>       0.00646865      -0.00196206       0.01864565 </v>
   <v>      -0.01837775       0.00287087       0.01974644 </v>
   <v>       0.00586321       0.00388359       0.00047856 </v>
   <v>      -0.00031902      -0.00139641       0.00764330 </v>
   <v>      -0.00028611      -0.02348457      -0.01214259 </v>
   <v>       0.00355401       0.00271861       0.00387437 </v>
   <v>      -0.01589508       0.00503837       0.00707245 </v>
   <v>      -0.01181692      -0.00391964       0.00631318 </v>
   <v>       0.00677397      -0.01326318      -0.00254527 </v>
  </varray>
  <varray name="stress" >
   <v>      -1.44557153      -0.07692096      -0.29396886 </v>
   <v>      -0.07692095      -1.46240378      -0.22128580 </v>
   <v>      -0.29396889      -0.22128578      -1.65224041 </v>
  </varray>
  <energy>
   <i name="e_fr_energy">   -371.73783323 </i>
   <i name="e_wo_entrp">   -371.74300218 </i>
   <i name="e_0_energy">      0.01550687 </i>
  </energy>
  <time name="totalsc">    8.83    9.51</time>
 </calculation>
 <calculation>
  <scstep>
   <time name="dav">    0.98    0.98</time>
   <time name="total">    1.05    1.25</time>
   <energy>
    <i name="alphaZ">   1511.59780140 </i>
    <i name="ewald"> -18180.51130189 </i>
    <i name="hartreedc">  -6599.64316864 </i>
    <i name="XCdc">   -463.58316020 </i>
    <i name="pawpsdc">  32845.74227008 </i>
    <i name="pawaedc"> -31126.61586090 </i>
    <i name="eentropy">      0.01524017 </i>
    <i name="bandstr">  -2310.62571843 </i>
    <i name="atom">  23951.88204124 </i>
    <i name="e_fr_energy">   -371.74185716 </i>
    <i name="e_wo_entrp">   -371.75709733 </i>
    <i name="e_0_energy">   -371.74693722 </i>
   </energy>
  </scstep>
  <scstep>
   <time name="diag">    0.08    0.08</time>
   <time name="diis">    0.72    0.83</time>
   <time name="orth">    0.01    0.01</time>
   <time name="total">    0.88    1.02</time>
   <energy>
    <i name="e_fr_energy">   -371.74051356 </i>
    <i name="e_wo_entrp">   -371.75616100 </i>
    <i name="e_0_energy">   -371.74572937 </i>
   </energy>
  </scstep>
  <scstep>
   <time name="diag">    0.08    0.08</time>
   <time name="diis">    0.79    0.79</time>
   <time name="orth">    0.01    0.01</time>
   <time name="total">    0.97    1.04</time>
   <energy>
    <i name="e_fr_energy">   -371.73929414 </i>
    <i name="e_wo_entrp">   -371.75414009 </i>
    <i name="e_0_energy">   -371.74424279 </i>
   </energy>
  </scstep>
  <scstep>
   <time name="diag">    0.12    0.12</time>
   <time name="diis">    0.79    0.80</time>
   <time name="orth">    0.01    0.01</time>
   <time name="total">    0.99    1.03</time>
   <energy>
    <i name="e_fr_energy">   -371.73853045 </i>
    <i name="e_wo_entrp">   -371.75386838 </i>
    <i name="e_0_energy">   -371.74364309 </i>
   </energy>
  </scstep>
  <scstep>
   <time name="diag">    0.07    0.07</time>
   <time name="diis">    0.77    0.78</time>
   <time name="orth">    0.01    0.01</time>
   <time name="total">    0.92    0.95</time>
   <energy>
    <i name="e_fr_energy">   -371.73845211 </i>
    <i name="e_wo_entrp">   -371.75363850 </i>
    <i name="e_0_energy">   -371.74351424 </i>
   </energy>
  </scstep>
  <scstep>
   <time name="diag">    0.07    0.07</time>
   <time name="diis">    0.70    0.71</time>
   <time name="orth">    0.01    0.01</time>
   <time name="total">    0.86    0.88</time>
   <energy>
    <i name="e_fr_energy">   -371.73846666 </i>
    <i name="e_wo_entrp">   -371.75373495 </i>
    <i name="e_0_energy">   -371.74355609 </i>
   </energy>
  </scstep>
  <scstep>
   <time name="diag">    0.07    0.07</time>
   <time name="diis">    0.59    0.59</time>
   <time name="orth">    0.01    0.01</time>
   <time name="total">    0.74    0.77</time>
   <energy>
    <i name="e_fr_energy">   -371.73847872 </i>
    <i name="e_wo_entrp">   -371.75370893 </i>
    <i name="e_0_energy">   -371.74355545 </i>
   </energy>
  </scstep>
  <scstep>
   <time name="diag">    0.07    0.07</time>
   <time name="diis">    0.43    0.44</time>
   <time name="orth">    0.01    0.01</time>
   <time name="total">    0.60    0.63</time>
   <energy>
    <i name="e_fr_energy">   -371.73848936 </i>
    <i name="e_wo_entrp">   -371.75371575 </i>
    <i name="e_0_energy">   -371.74356482 </i>
   </energy>
  </scstep>
  <scstep>
   <time name="diag">    0.07    0.08</time>
   <time name="diis">    0.34    0.47</time>
   <time name="orth">    0.01    0.01</time>
   <time name="total">    0.46    0.63</time>
   <energy>
    <i name="alphaZ">   1511.59780140 </i>
    <i name="ewald"> -18180.51130189 </i>
    <i name="hartreedc">  -6594.14645610 </i>
    <i name="XCdc">   -463.80843492 </i>
    <i name="pawpsdc">  32905.70789678 </i>
    <i name="pawaedc"> -31186.72125293 </i>
    <i name="eentropy">      0.01523020 </i>
    <i name="bandstr">  -2315.75402297 </i>
    <i name="atom">  23951.88204124 </i>
    <i name="e_fr_energy">   -371.73849918 </i>
    <i name="e_wo_entrp">   -371.75372938 </i>
    <i name="e_0_energy">   -371.74357591 </i>
   </energy>
  </scstep>
  <structure>
   <crystal>
    <varray name="basis" >
     <v>       6.83088543       0.00794206       0.00130587 </v>
     <v>       0.01202469      10.18450708      -0.02533174 </v>
     <v>       0.00209054      -0.02503350      10.21734528 </v>
    </varray>
    <i name="volume">    710.80721208 </i>
    <varray name="rec_basis" >
     <v>       0.14639411      -0.00017292      -0.00003038 </v>
     <v>      -0.00011421       0.09818909       0.00024060 </v>
     <v>      -0.00001899       0.00024346       0.09787338 </v>
    </varray>
   </crystal>
   <varray name="positions" >
    <v>       0.25221828       0.14128394       0.82917537 </v>
    <v>       0.03499664       0.33628847       0.98924100 </v>
    <v>       0.50256441       0.98577472       0.01532235 </v>
    <v>       0.49751595       0.33460051       0.65959618 </v>
    <v>       0.48905257       0.66921631       0.00828399 </v>
    <v>       0.75368713       0.83243796       0.82187719 </v>
    <v>       0.48058163       0.33995813       0.00255823 </v>
    <v>       0.24298079       0.16580965       0.17862323 </v>
    <v>       0.00222075       0.33080177       0.65486569 </v>
    <v>       0.24550139       0.83529246       0.50370657 </v>
    <v>       0.75409532       0.15894490       0.84111826 </v>
    <v>       0.76077702       0.50788016       0.83576434 </v>
    <v>       0.49670195       0.66372389       0.32623592 </v>
    <v>       0.77073275       0.49165025       0.16572787 </v>
    <v>       0.75293584       0.83148402       0.50302591 </v>
    <v>       0.50675310       0.00167018       0.33011667 </v>
    <v>       0.98870870       0.00620343       0.33287226 </v>
    <v>       0.25164625       0.16219491       0.48874452 </v>
    <v>       0.99942819       0.01219731       0.65798029 </v>
    <v>       0.00091498       0.66426440       0.33191008 </v>
    <v>       0.00821201       0.66046877       0.66692495 </v>
    <v>       0.74508402       0.16130168       0.49018078 </v>
    <v>       0.49971119       0.00740613       0.65401488 </v>
    <v>       0.49009950       0.65810525       0.66357718 </v>
    <v>       0.22895243       0.49554047       0.18070666 </v>
    <v>       0.99382750       0.33269304       0.34866955 </v>
    <v>       0.24409320       0.50818915       0.49604953 </v>
    <v>       0.24314247       0.52128971       0.82217571 </v>
    <v>       0.01568063       0.67738893       0.00410953 </v>
    <v>       0.22776042       0.84031036       0.18117364 </v>
    <v>       0.50191447       0.33775130       0.33862741 </v>
    <v>       0.75246842       0.50848122       0.49631326 </v>
    <v>       0.76975917       0.83505004       0.17924372 </v>
    <v>       0.99788245       0.98268559       0.01008592 </v>
    <v>       0.75452973       0.16943631       0.17014574 </v>
    <v>       0.24286875       0.83222867       0.82125865 </v>
   </varray>
  </structure>
  <varray name="forces" >
   <v>       0.01063739       0.01095912       0.01623240 </v>
   <v>       0.03490202       0.00559090      -0.02845831 </v>
   <v>       0.00899338      -0.00161154      -0.00093726 </v>
   <v>      -0.01028451       0.00312040       0.01706023 </v>
   <v>       0.00251670       0.01406924       0.00249602 </v>
   <v>      -0.00311116      -0.00070266      -0.01010733 </v>
   <v>      -0.01739236       0.00118053      -0.01838487 </v>
   <v>       0.00490707      -0.00814226      -0.01017790 </v>
   <v>       0.01816850       0.00358782       0.01595489 </v>
   <v>      -0.00322214      -0.00803357      -0.02769973 </v>
   <v>      -0.00297045       0.00450531       0.00632433 </v>
   <v>      -0.01005171      -0.00883827       0.01037609 </v>
   <v>      -0.01571743       0.00626513       0.01244454 </v>
   <v>      -0.00712970       0.00693543      -0.00030940 </v>
   <v>      -0.01012900       0.00035634       0.00047010 </v>
   <v>      -0.00632929       0.00842835       0.00726342 </v>
   <v>       0.01592518      -0.00069781       0.00902985 </v>
   <v>       0.00610780       0.00055276       0.00107793 </v>
   <v>      -0.02670794       0.01260860      -0.00273325 </v>
   <v>       0.02170188      -0.00147632       0.01266763 </v>
   <v>      -0.03137856       0.00533522      -0.02730452 </v>
   <v>      -0.00517461       0.00115791       0.00785959 </v>
   <v>       0.02295843      -0.00325759       0.00030198 </v>
   <v>       0.02820060       0.01264989      -0.02043999 </v>
   <v>       0.00186142       0.00417592      -0.01423544 </v>
   <v>       0.00184149      -0.00417921      -0.00247210 </v>
   <v>      -0.00498402      -0.00600897      -0.01060332 </v>
   <v>       0.00704375      -0.02399231       0.01710119 </v>
   <v>      -0.02584405      -0.00239931       0.02044144 </v>
   <v>       0.01401774       0.00095890       0.00634736 </v>
   <v>       0.00077910      -0.00270033       0.00540937 </v>
   <v>      -0.00308396      -0.02358124      -0.00722474 </v>
   <v>      -0.00347787       0.00016719      -0.00285273 </v>
   <v>      -0.02019848       0.01422663       0.00395803 </v>
   <v>      -0.01096066      -0.00391834       0.00032562 </v>
   <v>       0.01758544      -0.01729189       0.01079887 </v>
  </varray>
  <varray name="stress" >
   <v>       0.31690479      -0.07851577      -0.30531706 </v>
   <v>      -0.07851578       0.44532543      -0.19539641 </v>
   <v>      -0.30531711      -0.19539637       0.17903573 </v>
  </varray>
  <energy>
   <i name="e_fr_energy">   -371.73849918 </i>
   <i name="e_wo_entrp">   -371.74357591 </i>
   <i name="e_0_energy">      0.01523020 </i>
  </energy>
  <time name="totalsc">    9.14    9.98</time>
 </calculation>
 <calculation>
  <scstep>
   <time name="dav">    1.11    1.12</time>
   <time name="total">    1.20    1.35</time>
   <energy>
    <i name="alphaZ">   1511.50317162 </i>
    <i name="ewald"> -18180.14537218 </i>
    <i name="hartreedc">  -6594.03058177 </i>
    <i name="XCdc">   -463.82394428 </i>
    <i name="pawpsdc">  32905.55889962 </i>
    <i name="pawaedc"> -31186.51996518 </i>
    <i name="eentropy">      0.01524292 </i>
    <i name="bandstr">  -2316.17801525 </i>
    <i name="atom">  23951.88204124 </i>
    <i name="e_fr_energy">   -371.73852325 </i>
    <i name="e_wo_entrp">   -371.75376617 </i>
    <i name="e_0_energy">   -371.74360422 </i>
   </energy>
  </scstep>
  <scstep>
   <time name="diag">    0.07    0.07</time>
   <time name="diis">    0.67    0.68</time>
   <time name="orth">    0.01    0.01</time>
   <time name="total">    0.80    0.83</time>
   <energy>
    <i name="alphaZ">   1511.50317162 </i>
    <i name="ewald"> -18180.14537218 </i>
    <i name="hartreedc">  -6594.32506104 </i>
    <i name="XCdc">   -463.81249910 </i>
    <i name="pawpsdc">  32903.36400516 </i>
    <i name="pawaedc"> -31184.28829327 </i>
    <i name="eentropy">      0.01521677 </i>
    <i name="bandstr">  -2315.93173423 </i>
    <i name="atom">  23951.88204124 </i>
    <i name="e_fr_energy">   -371.73852503 </i>
    <i name="e_wo_entrp">   -371.75374180 </i>
    <i name="e_0_energy">   -371.74359728 </i>
   </energy>
  </scstep>
  <structure>
   <crystal>
    <varray name="basis" >
     <v>       6.83101063       0.00794591       0.00130726 </v>
     <v>       0.01203037      10.18474510      -0.02531733 </v>
     <v>       0.00209259      -0.02501910      10.21755884 </v>
    </varray>
    <i name="volume">    710.85171316 </i>
    <varray name="rec_basis" >
     <v>       0.14639143      -0.00017300      -0.00003040 </v>
     <v>      -0.00011426       0.09818679       0.00024045 </v>
     <v>      -0.00001901       0.00024331       0.09787134 </v>
    </varray>
   </crystal>
   <varray name="positions" >
    <v>       0.25221416       0.14129593       0.82917308 </v>
    <v>       0.03499168       0.33628727       0.98924597 </v>
    <v>       0.50256068       0.98577660       0.01532186 </v>
    <v>       0.49751848       0.33459975       0.65959325 </v>
    <v>       0.48905016       0.66921572       0.00828402 </v>
    <v>       0.75368361       0.83243849       0.82187862 </v>
    <v>       0.48058515       0.33995698       0.00256118 </v>
    <v>       0.24298041       0.16581030       0.17862295 </v>
    <v>       0.00221654       0.33080195       0.65486377 </v>
    <v>       0.24550252       0.83529412       0.50369351 </v>
    <v>       0.75409626       0.15894048       0.84111682 </v>
    <v>       0.76077943       0.50788492       0.83576403 </v>
    <v>       0.49670622       0.66372234       0.32623447 </v>
    <v>       0.77073341       0.49165149       0.16572634 </v>
    <v>       0.75293640       0.83148448       0.50302935 </v>
    <v>       0.50675369       0.00167057       0.33011622 </v>
    <v>       0.98870653       0.00620534       0.33287272 </v>
    <v>       0.25164624       0.16219294       0.48874423 </v>
    <v>       0.99942936       0.01219590       0.65797977 </v>
    <v>       0.00090966       0.66426296       0.33190935 </v>
    <v>       0.00822272       0.66047159       0.66693064 </v>
    <v>       0.74508280       0.16130019       0.49018243 </v>
    <v>       0.49971177       0.00740904       0.65401287 </v>
    <v>       0.49009430       0.65810350       0.66357946 </v>
    <v>       0.22895388       0.49554142       0.18070649 </v>
    <v>       0.99382640       0.33269334       0.34867028 </v>
    <v>       0.24409446       0.50819203       0.49605169 </v>
    <v>       0.24313907       0.52127417       0.82217278 </v>
    <v>       0.01568090       0.67738686       0.00410810 </v>
    <v>       0.22775888       0.84030829       0.18117747 </v>
    <v>       0.50191574       0.33775160       0.33862666 </v>
    <v>       0.75246750       0.50848492       0.49631685 </v>
    <v>       0.76975925       0.83504980       0.17923842 </v>
    <v>       0.99788112       0.98268756       0.01008627 </v>
    <v>       0.75453274       0.16943497       0.17014350 </v>
    <v>       0.24287788       0.83222622       0.82126755 </v>
   </varray>
  </structure>
  <varray name="forces" >
   <v>       0.01095285       0.00968240       0.01890646 </v>
   <v>       0.03527457       0.00631445      -0.02875585 </v>
   <v>       0.00958334      -0.00170071       0.00011779 </v>
   <v>      -0.01056295       0.00417253       0.01774030 </v>
   <v>       0.00241078       0.01364854       0.00326254 </v>
   <v>      -0.00217317      -0.00116101      -0.00888139 </v>
   <v>      -0.01715742       0.00144805      -0.01752330 </v>
   <v>       0.00500022      -0.00713966      -0.01005576 </v>
   <v>       0.01796791       0.00475813       0.01577429 </v>
   <v>      -0.00314025      -0.00938261      -0.02694446 </v>
   <v>      -0.00309080       0.00585579       0.00798876 </v>
   <v>      -0.01013847      -0.00975932       0.01129746 </v>
   <v>      -0.01599835       0.00549318       0.01223709 </v>
   <v>      -0.00795277       0.00664963      -0.00003701 </v>
   <v>      -0.01036867      -0.00095355      -0.00093160 </v>
   <v>      -0.00625391       0.00765390       0.00692903 </v>
   <v>       0.01643897      -0.00201922       0.00790628 </v>
   <v>       0.00564638       0.00340432       0.00023799 </v>
   <v>      -0.02775742       0.01462776      -0.00280952 </v>
   <v>       0.02370606      -0.00114123       0.01263850 </v>
   <v>      -0.03394468       0.00271264      -0.02976104 </v>
   <v>      -0.00419891       0.00320341       0.00580788 </v>
   <v>       0.02291752      -0.00477854       0.00101444 </v>
   <v>       0.02899426       0.01260137      -0.02178954 </v>
   <v>       0.00270703       0.00385206      -0.01428473 </v>
   <v>       0.00197493      -0.00300029      -0.00314354 </v>
   <v>      -0.00473337      -0.00705201      -0.01149708 </v>
   <v>       0.00712655      -0.02259111       0.01873591 </v>
   <v>      -0.02558780      -0.00256157       0.02091420 </v>
   <v>       0.01363776       0.00039677       0.00490170 </v>
   <v>       0.00071661      -0.00178706       0.00479785 </v>
   <v>      -0.00340212      -0.02462977      -0.00843670 </v>
   <v>      -0.00330807      -0.00042233      -0.00295256 </v>
   <v>      -0.01997863       0.01397660       0.00496104 </v>
   <v>      -0.01157438      -0.00293983       0.00060447 </v>
   <v>       0.01626640      -0.01743171       0.01103012 </v>
  </varray>
  <varray name="stress" >
   <v>       0.37703332      -0.08015165      -0.30938498 </v>
   <v>      -0.08015171       0.45813183      -0.17722125 </v>
   <v>      -0.30938504      -0.17722120       0.20298942 </v>
  </varray>
  <energy>
   <i name="e_fr_energy">   -371.73852503 </i>
   <i name="e_wo_entrp">   -371.74359728 </i>
   <i name="e_0_energy">      0.01521677 </i>
  </energy>
  <time name="totalsc">    3.67    3.96</time>
 </calculation>
 <calculation>
  <scstep>
   <time name="dav">    0.92    0.93</time>
   <time name="total">    1.00    1.14</time>
   <energy>
    <i name="alphaZ">   1511.46568663 </i>
    <i name="ewald"> -18180.10502850 </i>
    <i name="hartreedc">  -6594.14171205 </i>
    <i name="XCdc">   -463.82196398 </i>
    <i name="pawpsdc">  32903.03989255 </i>
    <i name="pawaedc"> -31183.95385651 </i>
    <i name="eentropy">      0.01531612 </i>
    <i name="bandstr">  -2316.11919165 </i>
    <i name="atom">  23951.88204124 </i>
    <i name="e_fr_energy">   -371.73881615 </i>
    <i name="e_wo_entrp">   -371.75413227 </i>
    <i name="e_0_energy">   -371.74392152 </i>
   </energy>
  </scstep>
  <scstep>
   <time name="diag">    0.08    0.08</time>
   <time name="diis">    0.72    0.72</time>
   <time name="orth">    0.01    0.01</time>
   <time name="total">    0.87    0.90</time>
   <energy>
    <i name="e_fr_energy">   -371.73907334 </i>
    <i name="e_wo_entrp">   -371.75433152 </i>
    <i name="e_0_energy">   -371.74415940 </i>
   </energy>
  </scstep>
  <scstep>
   <time name="diag">    0.07    0.07</time>
   <time name="diis">    0.72    0.73</time>
   <time name="orth">    0.01    0.01</time>
   <time name="total">    0.87    0.90</time>
   <energy>
    <i name="e_fr_energy">   -371.73905672 </i>
    <i name="e_wo_entrp">   -371.75436057 </i>
    <i name="e_0_energy">   -371.74415800 </i>
   </energy>
  </scstep>
  <scstep>
   <time name="diag">    0.07    0.07</time>
   <time name="diis">    0.63    0.64</time>
   <time name="orth">    0.01    0.01</time>
   <time name="total">    0.77    1.06</time>
   <energy>
    <i name="alphaZ">   1511.46568663 </i>
    <i name="ewald"> -18180.10502850 </i>
    <i name="hartreedc">  -6594.30030928 </i>
    <i name="XCdc">   -463.81621272 </i>
    <i name="pawpsdc">  32902.22369691 </i>
    <i name="pawaedc"> -31183.09803872 </i>
    <i name="eentropy">      0.01528025 </i>
    <i name="bandstr">  -2316.00616481 </i>
    <i name="atom">  23951.88204124 </i>
    <i name="e_fr_energy">   -371.73904900 </i>
    <i name="e_wo_entrp">   -371.75432925 </i>
[...]
       <r>    6.7247    1.0000 </r>
       <r>    6.7711    1.0000 </r>
       <r>    6.8255    1.0000 </r>
       <r>    6.8498    1.0000 </r>
       <r>    6.8776    1.0000 </r>
       <r>    6.9066    1.0000 </r>
       <r>    6.9738    1.0000 </r>
       <r>    6.9922    1.0001 </r>
       <r>    7.0344    1.0003 </r>
       <r>    7.0734    1.0011 </r>
       <r>    7.1211    1.0042 </r>
       <r>    7.1575    1.0096 </r>
       <r>    7.1755    1.0136 </r>
       <r>    7.2165    1.0255 </r>
       <r>    7.2589    1.0352 </r>
       <r>    7.2635    1.0354 </r>
       <r>    7.2759    1.0346 </r>
       <r>    7.3321    0.9840 </r>
       <r>    7.3632    0.9063 </r>
       <r>    7.3893    0.8079 </r>
       <r>    7.4350    0.5769 </r>
       <r>    7.4589    0.4426 </r>
       <r>    7.4897    0.2779 </r>
       <r>    7.5362    0.0877 </r>
       <r>    7.5753   -0.0005 </r>
       <r>    7.6104   -0.0314 </r>
       <r>    7.6685   -0.0292 </r>
       <r>    7.6860   -0.0239 </r>
       <r>    7.7091   -0.0170 </r>
       <r>    7.7447   -0.0087 </r>
       <r>    7.7752   -0.0043 </r>
       <r>    7.8132   -0.0016 </r>
       <r>    7.8430   -0.0006 </r>
       <r>    7.9036   -0.0001 </r>
       <r>    7.9721   -0.0000 </r>
       <r>    8.0207   -0.0000 </r>
       <r>    8.1040   -0.0000 </r>
       <r>    8.1251   -0.0000 </r>
       <r>    8.1937   -0.0000 </r>
       <r>    8.2371   -0.0000 </r>
       <r>    8.3062   -0.0000 </r>
       <r>    8.5508   -0.0000 </r>
       <r>    8.6646   -0.0000 </r>
       <r>    8.7273   -0.0000 </r>
       <r>    9.3322   -0.0000 </r>
       <r>    9.4315   -0.0000 </r>
       <r>    9.4909   -0.0000 </r>
       <r>    9.4965   -0.0000 </r>
       <r>    9.5991   -0.0000 </r>
      </set>
     </set>
    </set>
   </array>
  </eigenvalues>
  <separator name="orbital magnetization" >
   <v name="MAGDIPOLOUT">      0.00000000      0.00000000      0.00000000</v>
  </separator>
  <dos>
   <i name="efermi">      7.44871003 </i>
   <total>
    <array>
     <dimension dim="1">gridpoints</dimension>
     <dimension dim="2">spin</dimension>
     <field>energy</field>
     <field>total</field>
     <field>integrated</field>
     <set>
      <set comment="spin 1">
       <r>   -49.6132     0.0000     0.0000 </r>
       <r>   -49.4063     0.0000     0.0000 </r>
       <r>   -49.1994     0.0000     0.0000 </r>
       <r>   -48.9925     0.0000     0.0000 </r>
       <r>   -48.7857     0.0000     0.0000 </r>
       <r>   -48.5788     0.0000     0.0000 </r>
       <r>   -48.3719     0.0000     0.0000 </r>
       <r>   -48.1651    -0.0000    -0.0000 </r>
       <r>   -47.9582    -0.0000    -0.0000 </r>
       <r>   -47.7513    -0.0000    -0.0000 </r>
       <r>   -47.5445    -0.0000    -0.0000 </r>
       <r>   -47.3376    -0.0000    -0.0000 </r>
       <r>   -47.1307    -0.0340    -0.0070 </r>
       <r>   -46.9239    -0.9730    -0.2083 </r>
       <r>   -46.7170    20.1505     3.9602 </r>
       <r>   -46.5101    59.7085    16.3120 </r>
       <r>   -46.3032     8.8497    18.1428 </r>
       <r>   -46.0964    -0.6818    18.0017 </r>
       <r>   -45.8895    -0.0084    18.0000 </r>
       <r>   -45.6826    -0.0000    18.0000 </r>
       <r>   -45.4758    -0.0000    18.0000 </r>
       <r>   -45.2689     0.0000    18.0000 </r>
       <r>   -45.0620     0.0000    18.0000 </r>
       <r>   -44.8552     0.0000    18.0000 </r>
       <r>   -44.6483     0.0000    18.0000 </r>
       <r>   -44.4414     0.0000    18.0000 </r>
       <r>   -44.2346     0.0000    18.0000 </r>
       <r>   -44.0277     0.0000    18.0000 </r>
       <r>   -43.8208     0.0000    18.0000 </r>
       <r>   -43.6140     0.0000    18.0000 </r>
       <r>   -43.4071     0.0000    18.0000 </r>
       <r>   -43.2002     0.0000    18.0000 </r>
       <r>   -42.9933     0.0000    18.0000 </r>
       <r>   -42.7865     0.0000    18.0000 </r>
       <r>   -42.5796     0.0000    18.0000 </r>
       <r>   -42.3727     0.0000    18.0000 </r>
       <r>   -42.1659    -0.0000    18.0000 </r>
       <r>   -41.9590    -0.0000    18.0000 </r>
       <r>   -41.7521    -0.0000    18.0000 </r>
       <r>   -41.5453    -0.0000    18.0000 </r>
       <r>   -41.3384    -0.0000    18.0000 </r>
       <r>   -41.1315    -0.0206    17.9957 </r>
       <r>   -40.9247    -0.8350    17.8230 </r>
       <r>   -40.7178    15.5673    21.0434 </r>
       <r>   -40.5109    34.6682    28.2152 </r>
       <r>   -40.3040     9.2698    30.1328 </r>
       <r>   -40.0972    -0.6346    30.0015 </r>
       <r>   -39.8903    -0.0073    30.0000 </r>
       <r>   -39.6834    -0.0000    30.0000 </r>
       <r>   -39.4766    -0.0000    30.0000 </r>
       <r>   -39.2697     0.0000    30.0000 </r>
       <r>   -39.0628     0.0000    30.0000 </r>
       <r>   -38.8560     0.0000    30.0000 </r>
       <r>   -38.6491     0.0000    30.0000 </r>
       <r>   -38.4422     0.0000    30.0000 </r>
       <r>   -38.2354     0.0000    30.0000 </r>
       <r>   -38.0285     0.0000    30.0000 </r>
       <r>   -37.8216     0.0000    30.0000 </r>
       <r>   -37.6147     0.0000    30.0000 </r>
       <r>   -37.4079     0.0000    30.0000 </r>
       <r>   -37.2010     0.0000    30.0000 </r>
       <r>   -36.9941     0.0000    30.0000 </r>
       <r>   -36.7873     0.0000    30.0000 </r>
       <r>   -36.5804     0.0000    30.0000 </r>
       <r>   -36.3735     0.0000    30.0000 </r>
       <r>   -36.1667     0.0000    30.0000 </r>
       <r>   -35.9598     0.0000    30.0000 </r>
       <r>   -35.7529     0.0000    30.0000 </r>
       <r>   -35.5461     0.0000    30.0000 </r>
       <r>   -35.3392     0.0000    30.0000 </r>
       <r>   -35.1323     0.0000    30.0000 </r>
       <r>   -34.9255     0.0000    30.0000 </r>
       <r>   -34.7186     0.0000    30.0000 </r>
       <r>   -34.5117     0.0000    30.0000 </r>
       <r>   -34.3048     0.0000    30.0000 </r>
       <r>   -34.0980     0.0000    30.0000 </r>
       <r>   -33.8911     0.0000    30.0000 </r>
       <r>   -33.6842     0.0000    30.0000 </r>
       <r>   -33.4774     0.0000    30.0000 </r>
       <r>   -33.2705     0.0000    30.0000 </r>
       <r>   -33.0636     0.0000    30.0000 </r>
       <r>   -32.8568     0.0000    30.0000 </r>
       <r>   -32.6499     0.0000    30.0000 </r>
       <r>   -32.4430     0.0000    30.0000 </r>
       <r>   -32.2362     0.0000    30.0000 </r>
       <r>   -32.0293     0.0000    30.0000 </r>
       <r>   -31.8224     0.0000    30.0000 </r>
       <r>   -31.6155     0.0000    30.0000 </r>
       <r>   -31.4087     0.0000    30.0000 </r>
       <r>   -31.2018     0.0000    30.0000 </r>
       <r>   -30.9949     0.0000    30.0000 </r>
       <r>   -30.7881     0.0000    30.0000 </r>
       <r>   -30.5812     0.0000    30.0000 </r>
       <r>   -30.3743     0.0000    30.0000 </r>
       <r>   -30.1675     0.0000    30.0000 </r>
       <r>   -29.9606     0.0000    30.0000 </r>
       <r>   -29.7537     0.0000    30.0000 </r>
       <r>   -29.5469     0.0000    30.0000 </r>
       <r>   -29.3400     0.0000    30.0000 </r>
       <r>   -29.1331     0.0000    30.0000 </r>
       <r>   -28.9262     0.0000    30.0000 </r>
       <r>   -28.7194     0.0000    30.0000 </r>
       <r>   -28.5125     0.0000    30.0000 </r>
       <r>   -28.3056     0.0000    30.0000 </r>
       <r>   -28.0988     0.0000    30.0000 </r>
       <r>   -27.8919     0.0000    30.0000 </r>
       <r>   -27.6850     0.0000    30.0000 </r>
       <r>   -27.4782     0.0000    30.0000 </r>
       <r>   -27.2713     0.0000    30.0000 </r>
       <r>   -27.0644     0.0000    30.0000 </r>
       <r>   -26.8576     0.0000    30.0000 </r>
       <r>   -26.6507     0.0000    30.0000 </r>
       <r>   -26.4438     0.0000    30.0000 </r>
       <r>   -26.2370     0.0000    30.0000 </r>
       <r>   -26.0301     0.0000    30.0000 </r>
       <r>   -25.8232     0.0000    30.0000 </r>
       <r>   -25.6163     0.0000    30.0000 </r>
       <r>   -25.4095     0.0000    30.0000 </r>
       <r>   -25.2026     0.0000    30.0000 </r>
       <r>   -24.9957     0.0000    30.0000 </r>
       <r>   -24.7889     0.0000    30.0000 </r>
       <r>   -24.5820    -0.0000    30.0000 </r>
       <r>   -24.3751    -0.0000    30.0000 </r>
       <r>   -24.1683    -0.0000    30.0000 </r>
       <r>   -23.9614    -0.0000    30.0000 </r>
       <r>   -23.7545    -0.0000    30.0000 </r>
       <r>   -23.5477    -0.0258    29.9947 </r>
       <r>   -23.3408    -1.0381    29.7799 </r>
       <r>   -23.1339    19.6142    33.8375 </r>
       <r>   -22.9270    39.0425    41.9142 </r>
       <r>   -22.7202    89.5869    60.4469 </r>
       <r>   -22.5133    92.7745    79.6391 </r>
       <r>   -22.3064    22.5730    84.3088 </r>
       <r>   -22.0996    -1.4678    84.0051 </r>
       <r>   -21.8927    -0.0247    84.0000 </r>
       <r>   -21.6858    -0.0000    84.0000 </r>
       <r>   -21.4790    -0.0000    84.0000 </r>
       <r>   -21.2721     0.0000    84.0000 </r>
       <r>   -21.0652     0.0000    84.0000 </r>
       <r>   -20.8584     0.0000    84.0000 </r>
       <r>   -20.6515     0.0000    84.0000 </r>
       <r>   -20.4446    -0.0000    84.0000 </r>
       <r>   -20.2378    -0.0000    84.0000 </r>
       <r>   -20.0309    -0.0000    84.0000 </r>
       <r>   -19.8240    -0.0000    84.0000 </r>
       <r>   -19.6171    -0.0000    84.0000 </r>
       <r>   -19.4103    -0.0358    83.9926 </r>
       <r>   -19.2034    -0.7520    83.8370 </r>
       <r>   -18.9965    16.7046    87.2927 </r>
       <r>   -18.7897    64.1986   100.5734 </r>
       <r>   -18.5828    58.4792   112.6709 </r>
       <r>   -18.3759    32.9651   119.4904 </r>
       <r>   -18.1691     2.7699   120.0634 </r>
       <r>   -17.9622    -0.3053   120.0002 </r>
       <r>   -17.7553    -0.0012   120.0000 </r>
       <r>   -17.5485    -0.0000   120.0000 </r>
       <r>   -17.3416    -0.0000   120.0000 </r>
       <r>   -17.1347     0.0000   120.0000 </r>
       <r>   -16.9278     0.0000   120.0000 </r>
       <r>   -16.7210     0.0000   120.0000 </r>
       <r>   -16.5141     0.0000   120.0000 </r>
       <r>   -16.3072     0.0000   120.0000 </r>
       <r>   -16.1004     0.0000   120.0000 </r>
       <r>   -15.8935     0.0000   120.0000 </r>
       <r>   -15.6866     0.0000   120.0000 </r>
       <r>   -15.4798     0.0000   120.0000 </r>
       <r>   -15.2729     0.0000   120.0000 </r>
       <r>   -15.0660     0.0000   120.0000 </r>
       <r>   -14.8592     0.0000   120.0000 </r>
       <r>   -14.6523     0.0000   120.0000 </r>
       <r>   -14.4454     0.0000   120.0000 </r>
       <r>   -14.2385     0.0000   120.0000 </r>
       <r>   -14.0317     0.0000   120.0000 </r>
       <r>   -13.8248     0.0000   120.0000 </r>
       <r>   -13.6179     0.0000   120.0000 </r>
       <r>   -13.4111     0.0000   120.0000 </r>
       <r>   -13.2042     0.0000   120.0000 </r>
       <r>   -12.9973     0.0000   120.0000 </r>
       <r>   -12.7905     0.0000   120.0000 </r>
       <r>   -12.5836     0.0000   120.0000 </r>
       <r>   -12.3767     0.0000   120.0000 </r>
       <r>   -12.1699     0.0000   120.0000 </r>
       <r>   -11.9630     0.0000   120.0000 </r>
       <r>   -11.7561     0.0000   120.0000 </r>
       <r>   -11.5493     0.0000   120.0000 </r>
       <r>   -11.3424     0.0000   120.0000 </r>
       <r>   -11.1355     0.0000   120.0000 </r>
       <r>   -10.9286     0.0000   120.0000 </r>
       <r>   -10.7218     0.0000   120.0000 </r>
       <r>   -10.5149     0.0000   120.0000 </r>
       <r>   -10.3080     0.0000   120.0000 </r>
       <r>   -10.1012     0.0000   120.0000 </r>
       <r>    -9.8943     0.0000   120.0000 </r>
       <r>    -9.6874     0.0000   120.0000 </r>
       <r>    -9.4806     0.0000   120.0000 </r>
       <r>    -9.2737     0.0000   120.0000 </r>
       <r>    -9.0668     0.0000   120.0000 </r>
       <r>    -8.8600     0.0000   120.0000 </r>
       <r>    -8.6531     0.0000   120.0000 </r>
       <r>    -8.4462     0.0000   120.0000 </r>
       <r>    -8.2393     0.0000   120.0000 </r>
       <r>    -8.0325     0.0000   120.0000 </r>
       <r>    -7.8256     0.0000   120.0000 </r>
       <r>    -7.6187     0.0000   120.0000 </r>
       <r>    -7.4119     0.0000   120.0000 </r>
       <r>    -7.2050     0.0000   120.0000 </r>
       <r>    -6.9981     0.0000   120.0000 </r>
       <r>    -6.7913     0.0000   120.0000 </r>
       <r>    -6.5844     0.0000   120.0000 </r>
       <r>    -6.3775     0.0000   120.0000 </r>
       <r>    -6.1707     0.0000   120.0000 </r>
       <r>    -5.9638     0.0000   120.0000 </r>
       <r>    -5.7569     0.0000   120.0000 </r>
       <r>    -5.5500     0.0000   120.0000 </r>
       <r>    -5.3432     0.0000   120.0000 </r>
       <r>    -5.1363     0.0000   120.0000 </r>
       <r>    -4.9294     0.0000   120.0000 </r>
       <r>    -4.7226     0.0000   120.0000 </r>
       <r>    -4.5157     0.0000   120.0000 </r>
       <r>    -4.3088     0.0000   120.0000 </r>
       <r>    -4.1020     0.0000   120.0000 </r>
       <r>    -3.8951     0.0000   120.0000 </r>
       <r>    -3.6882     0.0000   120.0000 </r>
       <r>    -3.4814     0.0000   120.0000 </r>
       <r>    -3.2745     0.0000   120.0000 </r>
       <r>    -3.0676     0.0000   120.0000 </r>
       <r>    -2.8608     0.0000   120.0000 </r>
       <r>    -2.6539     0.0000   120.0000 </r>
       <r>    -2.4470     0.0000   120.0000 </r>
       <r>    -2.2401     0.0000   120.0000 </r>
       <r>    -2.0333     0.0000   120.0000 </r>
       <r>    -1.8264     0.0000   120.0000 </r>
       <r>    -1.6195     0.0000   120.0000 </r>
       <r>    -1.4127     0.0000   120.0000 </r>
       <r>    -1.2058     0.0000   120.0000 </r>
       <r>    -0.9989     0.0000   120.0000 </r>
       <r>    -0.7921    -0.0000   120.0000 </r>
       <r>    -0.5852    -0.0000   120.0000 </r>
       <r>    -0.3783    -0.0000   120.0000 </r>
       <r>    -0.1715    -0.0000   120.0000 </r>
       <r>     0.0354    -0.0000   120.0000 </r>
       <r>     0.2423    -0.0034   119.9993 </r>
       <r>     0.4492     0.0271   120.0049 </r>
       <r>     0.6560     0.4093   120.0896 </r>
       <r>     0.8629     1.3722   120.3734 </r>
       <r>     1.0698     1.6758   120.7201 </r>
       <r>     1.2766     2.1418   121.1632 </r>
       <r>     1.4835     3.6910   121.9267 </r>
       <r>     1.6904     3.1238   122.5730 </r>
       <r>     1.8972     2.2843   123.0455 </r>
       <r>     2.1041     4.7188   124.0217 </r>
       <r>     2.3110     3.1058   124.6642 </r>
       <r>     2.5178     4.1002   125.5124 </r>
       <r>     2.7247     7.5944   127.0834 </r>
       <r>     2.9316     7.7166   128.6798 </r>
       <r>     3.1385     7.4278   130.2163 </r>
       <r>     3.3453     8.0934   131.8906 </r>
       <r>     3.5522    11.0321   134.1728 </r>
       <r>     3.7591    17.4719   137.7872 </r>
       <r>     3.9659    23.5868   142.6666 </r>
       <r>     4.1728    23.1141   147.4482 </r>
       <r>     4.3797    25.4064   152.7040 </r>
       <r>     4.5865    32.8642   159.5026 </r>
       <r>     4.7934    37.8275   167.3279 </r>
       <r>     5.0003    35.9528   174.7654 </r>
       <r>     5.2071    38.5906   182.7486 </r>
       <r>     5.4140    32.7183   189.5170 </r>
       <r>     5.6209    34.4302   196.6396 </r>
       <r>     5.8277    18.4468   200.4556 </r>
       <r>     6.0346    26.2503   205.8860 </r>
       <r>     6.2415    60.2927   218.3587 </r>
       <r>     6.4484    60.5015   230.8746 </r>
       <r>     6.6552    52.8156   241.8005 </r>
       <r>     6.8621    52.3182   252.6235 </r>
       <r>     7.0690    58.4546   264.7160 </r>
       <r>     7.2758    56.4966   276.4034 </r>
       <r>     7.4827    48.9496   286.5295 </r>
       <r>     7.6896    45.8754   296.0197 </r>
       <r>     7.8964    49.1025   306.1775 </r>
       <r>     8.1033    38.7460   314.1928 </r>
       <r>     8.3102    31.6280   320.7357 </r>
       <r>     8.5170    20.5387   324.9845 </r>
       <r>     8.7239    20.3685   329.1981 </r>
       <r>     8.9308    11.9985   331.6802 </r>
       <r>     9.1377    15.3554   334.8568 </r>
       <r>     9.3445    21.6319   339.3318 </r>
       <r>     9.5514    17.9433   343.0437 </r>
       <r>     9.7583     4.9141   344.0602 </r>
       <r>     9.9651    -0.2842   344.0014 </r>
       <r>    10.1720    -0.0069   344.0000 </r>
       <r>    10.3789    -0.0000   344.0000 </r>
       <r>    10.5857    -0.0000   344.0000 </r>
       <r>    10.7926     0.0000   344.0000 </r>
       <r>    10.9995     0.0000   344.0000 </r>
       <r>    11.2063     0.0000   344.0000 </r>
       <r>    11.4132     0.0000   344.0000 </r>
       <r>    11.6201     0.0000   344.0000 </r>
       <r>    11.8270     0.0000   344.0000 </r>
       <r>    12.0338     0.0000   344.0000 </r>
       <r>    12.2407     0.0000   344.0000 </r>
       <r>    12.4476     0.0000   344.0000 </r>
      </set>
     </set>
    </array>
   </total>
  </dos>
 </calculation>
 <structure name="finalpos" >
  <crystal>
   <varray name="basis" >
    <v>       6.83016878       0.00721313      -0.00008973 </v>
    <v>       0.01093923      10.18719755      -0.02737011 </v>
    <v>       0.00000936      -0.02708139      10.21782721 </v>
   </varray>
   <i name="volume">    710.95339554 </i>
   <varray name="rec_basis" >
    <v>       0.14640943      -0.00015722      -0.00000055 </v>
    <v>      -0.00010366       0.09816323       0.00026017 </v>
    <v>       0.00000101       0.00026294       0.09786886 </v>
   </varray>
  </crystal>
  <varray name="positions" >
   <v>       0.25264373       0.14087961       0.82946419 </v>
   <v>       0.03578100       0.33654088       0.98869235 </v>
   <v>       0.50297729       0.98555347       0.01528952 </v>
   <v>       0.49683772       0.33460263       0.66007983 </v>
   <v>       0.48929371       0.66967491       0.00846042 </v>
   <v>       0.75368195       0.83243966       0.82153460 </v>
   <v>       0.48008460       0.34011774       0.00207871 </v>
   <v>       0.24310548       0.16567099       0.17829383 </v>
   <v>       0.00303624       0.33082872       0.65528816 </v>
   <v>       0.24531944       0.83527924       0.50355236 </v>
   <v>       0.75400653       0.15936135       0.84138325 </v>
   <v>       0.76045931       0.50756926       0.83605961 </v>
   <v>       0.49622862       0.66367219       0.32651028 </v>
   <v>       0.77051129       0.49168722       0.16574456 </v>
   <v>       0.75282049       0.83154208       0.50294780 </v>
   <v>       0.50657452       0.00192866       0.33032112 </v>
   <v>       0.98916774       0.00632709       0.33300167 </v>
   <v>       0.25175964       0.16219780       0.48882869 </v>
   <v>       0.99863909       0.01251286       0.65792881 </v>
   <v>       0.00148272       0.66413130       0.33191355 </v>
   <v>       0.00751217       0.66019761       0.66638640 </v>
   <v>       0.74510250       0.16144597       0.49046360 </v>
   <v>       0.50041592       0.00724231       0.65407939 </v>
   <v>       0.49058919       0.65820816       0.66301406 </v>
   <v>       0.22891523       0.49568426       0.18032257 </v>
   <v>       0.99387110       0.33250105       0.34849000 </v>
   <v>       0.24396291       0.50796228       0.49586631 </v>
   <v>       0.24336799       0.52178568       0.82218997 </v>
   <v>       0.01496417       0.67751142       0.00451012 </v>
   <v>       0.22809222       0.84048240       0.18130269 </v>
   <v>       0.50199286       0.33760064       0.33869481 </v>
   <v>       0.75249776       0.50785218       0.49605432 </v>
   <v>       0.76975497       0.83505030       0.17948745 </v>
   <v>       0.99733909       0.98271974       0.01024003 </v>
   <v>       0.75432162       0.16939173       0.17024162 </v>
   <v>       0.24288916       0.83185063       0.82128633 </v>
  </varray>
 </structure>
</modeling>
