<?xml version="1.0" encoding="ISO-8859-1"?>
<modeling>
 <generator>
  <i name="program" type="string">vasp </i>
  <i name="version" type="string">5.4.1  </i>
  <i name="subversion" type="string">05Feb16 (build Jan 29 2020 16:04:39) complex                          parallel </i>
  <i name="platform" type="string">IFC91_ompi </i>
  <i name="date" type="string">2020 06 15 </i>
  <i name="time" type="string">10:26:09 </i>
 </generator>
 <incar>
  <i type="string" name="SYSTEM"> automatically generated by mexm</i>
  <i type="int" name="ISTART">     0</i>
  <i type="string" name="PREC">accurate               ! avoid wrap aro</i>
  <i type="string" name="ALGO"> Fast                   ! blocked Davids</i>
  <i type="int" name="ISPIN">     1</i>
  <i type="int" name="ICHARG">     2</i>
  <i type="int" name="NELM">    70</i>
  <i type="int" name="IBRION">     2</i>
  <i name="EDIFF">      0.00001000</i>
  <i name="EDIFFG">     -0.01000000</i>
  <i type="int" name="NSW">   300</i>
  <i type="int" name="ISIF">     3</i>
  <i type="int" name="ISYM">     1</i>
  <i name="ENCUT">    300.00000000</i>
  <i name="POTIM">      0.15000000</i>
  <i type="string" name="LREAL"> Auto                  ! unpublished met</i>
  <i type="int" name="ISMEAR">     1</i>
  <i name="SIGMA">      0.15000000</i>
  <i type="logical" name="LWAVE"> F  </i>
  <i type="logical" name="LCHARG"> F  </i>
  <i type="logical" name="LVTOT"> F  </i>
  <v type="int" name="KPOINT_BSE">    -1     0     0     0</v>
  <i type="int" name="NELM">    70</i>
 </incar>
 <kpoints>
  <generation param="Gamma">
   <v type="int" name="divisions">       3        3        3 </v>
   <v name="usershift">      0.00000000       0.00000000       0.00000000 </v>
   <v name="genvec1">      0.33333333       0.00000000       0.00000000 </v>
   <v name="genvec2">      0.00000000       0.33333333      -0.00000000 </v>
   <v name="genvec3">      0.00000000       0.00000000       0.33333333 </v>
   <v name="shift">      0.00000000       0.00000000       0.00000000 </v>
  </generation>
  <varray name="kpointlist" >
   <v>       0.00000000       0.00000000       0.00000000 </v>
   <v>       0.33333333      -0.00000000       0.00000000 </v>
   <v>      -0.00000000       0.33333333       0.00000000 </v>
   <v>       0.33333333       0.33333333       0.00000000 </v>
   <v>      -0.33333333       0.33333333      -0.00000000 </v>
   <v>       0.00000000       0.00000000       0.33333333 </v>
   <v>       0.33333333      -0.00000000       0.33333333 </v>
   <v>      -0.33333333       0.00000000       0.33333333 </v>
   <v>       0.00000000       0.33333333       0.33333333 </v>
   <v>       0.33333333       0.33333333       0.33333333 </v>
   <v>      -0.33333333       0.33333333       0.33333333 </v>
   <v>       0.00000000      -0.33333333       0.33333333 </v>
   <v>       0.33333333      -0.33333333       0.33333333 </v>
   <v>      -0.33333333      -0.33333333       0.33333333 </v>
  </varray>
  <varray name="weights" >
   <v>       0.03703704 </v>
   <v>       0.07407407 </v>
   <v>       0.07407407 </v>
   <v>       0.07407407 </v>
   <v>       0.07407407 </v>
   <v>       0.07407407 </v>
   <v>       0.07407407 </v>
   <v>       0.07407407 </v>
   <v>       0.07407407 </v>
   <v>       0.07407407 </v>
   <v>       0.07407407 </v>
   <v>       0.07407407 </v>
   <v>       0.07407407 </v>
   <v>       0.07407407 </v>
  </varray>
 </kpoints>
 <parameters>
  <separator name="general" >
   <i type="string" name="SYSTEM">automatically generated by mexm</i>
   <i type="logical" name="LCOMPAT"> F  </i>
  </separator>
  <separator name="electronic" >
   <i type="string" name="PREC">accura</i>
   <i name="ENMAX">    300.00000000</i>
   <i name="ENAUG">    461.25700000</i>
   <i name="EDIFF">      0.00001000</i>
   <i type="int" name="IALGO">    68</i>
   <i type="int" name="IWAVPR">    11</i>
   <i type="int" name="NBANDS">   172</i>
   <i name="NELECT">    285.00000000</i>
   <i type="int" name="TURBO">     0</i>
   <i type="int" name="IRESTART">     0</i>
   <i type="int" name="NREBOOT">     0</i>
   <i type="int" name="NMIN">     0</i>
   <i name="EREF">      0.00000000</i>
   <separator name="electronic smearing" >
    <i type="int" name="ISMEAR">     1</i>
    <i name="SIGMA">      0.15000000</i>
    <i name="KSPACING">      0.50000000</i>
    <i type="logical" name="KGAMMA"> T  </i>
   </separator>
   <separator name="electronic projectors" >
    <i type="logical" name="LREAL"> T  </i>
    <v name="ROPT">     -0.00025000     -0.00025000     -0.00025000     -0.00025000</v>
    <i type="int" name="LMAXPAW">  -100</i>
    <i type="int" name="LMAXMIX">     2</i>
    <i type="logical" name="NLSPLINE"> F  </i>
   </separator>
   <separator name="electronic startup" >
    <i type="int" name="ISTART">     0</i>
    <i type="int" name="ICHARG">     2</i>
    <i type="int" name="INIWAV">     1</i>
   </separator>
   <separator name="electronic spin" >
    <i type="int" name="ISPIN">     1</i>
    <i type="logical" name="LNONCOLLINEAR"> F  </i>
    <v name="MAGMOM">      1.00000000      1.00000000      1.00000000      1.00000000      1.00000000      1.00000000      1.00000000      1.00000000      1.00000000      1.00000000      1.00000000      1.00000000      1.00000000      1.00000000      1.00000000      1.00000000      1.00000000      1.00000000      1.00000000      1.00000000
      1.00000000      1.00000000      1.00000000      1.00000000      1.00000000      1.00000000      1.00000000      1.00000000      1.00000000      1.00000000      1.00000000      1.00000000      1.00000000      1.00000000      1.00000000      1.00000000</v>
    <i name="NUPDOWN">     -1.00000000</i>
    <i type="logical" name="LSORBIT"> F  </i>
    <v name="SAXIS">      0.00000000      0.00000000      1.00000000</v>
    <i type="logical" name="LSPIRAL"> F  </i>
    <v name="QSPIRAL">      0.00000000      0.00000000      0.00000000</v>
    <i type="logical" name="LZEROZ"> F  </i>
   </separator>
   <separator name="electronic exchange-correlation" >
    <i type="logical" name="LASPH"> F  </i>
    <i type="logical" name="LMETAGGA"> F  </i>
   </separator>
   <separator name="electronic convergence" >
    <i type="int" name="NELM">    70</i>
    <i type="int" name="NELMDL">    -5</i>
    <i type="int" name="NELMIN">     2</i>
    <i name="ENINI">    300.00000000</i>
    <separator name="electronic convergence detail" >
     <i type="logical" name="LDIAG"> T  </i>
     <i type="logical" name="LSUBROT"> F  </i>
     <i name="WEIMIN">      0.00100000</i>
     <i name="EBREAK">      0.00000001</i>
     <i name="DEPER">      0.30000000</i>
     <i type="int" name="NRMM">     4</i>
     <i name="TIME">      0.40000000</i>
    </separator>
   </separator>
   <separator name="electronic mixer" >
    <i name="AMIX">      0.40000000</i>
    <i name="BMIX">      1.00000000</i>
    <i name="AMIN">      0.10000000</i>
    <i name="AMIX_MAG">      1.60000000</i>
    <i name="BMIX_MAG">      1.00000000</i>
    <separator name="electronic mixer details" >
     <i type="int" name="IMIX">     4</i>
     <i type="logical" name="MIXFIRST"> F  </i>
     <i type="int" name="MAXMIX">   -45</i>
     <i name="WC">    100.00000000</i>
     <i type="int" name="INIMIX">     1</i>
     <i type="int" name="MIXPRE">     1</i>
     <i type="int" name="MREMOVE">     5</i>
    </separator>
   </separator>
   <separator name="electronic dipolcorrection" >
    <i type="logical" name="LDIPOL"> F  </i>
    <i type="logical" name="LMONO"> F  </i>
    <i type="int" name="IDIPOL">     0</i>
    <i name="EPSILON">      1.00000000</i>
    <v name="DIPOL">   -100.00000000   -100.00000000   -100.00000000</v>
    <i name="EFIELD">      0.00000000</i>
   </separator>
  </separator>
  <separator name="grids" >
   <i type="int" name="NGX">    40</i>
   <i type="int" name="NGY">    60</i>
   <i type="int" name="NGZ">    60</i>
   <i type="int" name="NGXF">    80</i>
   <i type="int" name="NGYF">   120</i>
   <i type="int" name="NGZF">   120</i>
   <i type="logical" name="ADDGRID"> F  </i>
  </separator>
  <separator name="ionic" >
   <i type="int" name="NSW">   300</i>
   <i type="int" name="IBRION">     2</i>
   <i type="int" name="ISIF">     3</i>
   <i name="PSTRESS">      0.00000000</i>
   <i name="EDIFFG">     -0.01000000</i>
   <i type="int" name="NFREE">     1</i>
   <i name="POTIM">      0.15000000</i>
   <i name="SMASS">     -3.00000000</i>
   <i name="SCALEE">      1.00000000</i>
  </separator>
  <separator name="ionic md" >
   <i name="TEBEG">      0.00010000</i>
   <i name="TEEND">      0.00010000</i>
   <i type="int" name="NBLOCK">     1</i>
   <i type="int" name="KBLOCK">   300</i>
   <i type="int" name="NPACO">   256</i>
   <i name="APACO">     16.00000000</i>
  </separator>
  <separator name="symmetry" >
   <i type="int" name="ISYM">     1</i>
   <i name="SYMPREC">      0.00001000</i>
  </separator>
  <separator name="dos" >
   <i type="logical" name="LORBIT"> F  </i>
   <v name="RWIGS">     -1.00000000     -1.00000000     -1.00000000     -1.00000000</v>
   <i type="int" name="NEDOS">   301</i>
   <i name="EMIN">     10.00000000</i>
   <i name="EMAX">    -10.00000000</i>
   <i name="EFERMI">      0.00000000</i>
  </separator>
  <separator name="writing" >
   <i type="int" name="NWRITE">     2</i>
   <i type="logical" name="LWAVE"> F  </i>
   <i type="logical" name="LCHARG"> F  </i>
   <i type="logical" name="LPARD"> F  </i>
   <i type="logical" name="LVTOT"> F  </i>
   <i type="logical" name="LVHAR"> F  </i>
   <i type="logical" name="LELF"> F  </i>
   <i type="logical" name="LOPTICS"> F  </i>
   <v name="STM">      0.00000000      0.00000000      0.00000000      0.00000000      0.00000000      0.00000000      0.00000000</v>
  </separator>
  <separator name="performance" >
   <i type="int" name="NPAR">     4</i>
   <i type="int" name="NSIM">     4</i>
   <i type="int" name="NBLK">    -1</i>
   <i type="logical" name="LPLANE"> T  </i>
   <i type="logical" name="LSCALAPACK"> T  </i>
   <i type="logical" name="LSCAAWARE"> F  </i>
   <i type="logical" name="LSCALU"> F  </i>
   <i type="logical" name="LASYNC"> F  </i>
   <i type="logical" name="LORBITALREAL"> F  </i>
  </separator>
  <separator name="miscellaneous" >
   <i type="int" name="IDIOT">     3</i>
   <i type="logical" name="LMUSIC"> F  </i>
   <v name="POMASS">    178.49000000     91.22400000     92.91000000    180.94800000</v>
   <v name="DARWINR">      0.00000000      0.00000000      0.00000000      0.00000000</v>
   <v name="DARWINV">      1.00000000      1.00000000      1.00000000      1.00000000</v>
   <i type="logical" name="LCORR"> T  </i>
  </separator>
  <i type="logical" name="GGA_COMPAT"> T  </i>
  <i type="logical" name="LBERRY"> F  </i>
  <i type="int" name="ICORELEVEL">     0</i>
  <i type="logical" name="LDAU"> F  </i>
  <i type="int" name="I_CONSTRAINED_M">     0</i>
  <separator name="electronic exchange-correlation" >
   <i type="string" name="GGA">--</i>
   <i type="int" name="VOSKOWN">     0</i>
   <i type="logical" name="LHFCALC"> F  </i>
   <i type="string" name="PRECFOCK"></i>
   <i type="logical" name="LSYMGRAD"> F  </i>
   <i type="logical" name="LHFONE"> F  </i>
   <i type="logical" name="LRHFCALC"> F  </i>
   <i type="logical" name="LTHOMAS"> F  </i>
   <i type="logical" name="LMODELHF"> F  </i>
   <i name="ENCUT4O">     -1.00000000</i>
   <i type="int" name="EXXOEP">     0</i>
   <i type="int" name="FOURORBIT">     0</i>
   <i name="AEXX">      0.00000000</i>
   <i name="HFALPHA">      0.00000000</i>
   <i name="MCALPHA">      0.00000000</i>
   <i name="ALDAX">      1.00000000</i>
   <i name="AGGAX">      1.00000000</i>
   <i name="ALDAC">      1.00000000</i>
   <i name="AGGAC">      1.00000000</i>
   <i type="int" name="NKREDX">     1</i>
   <i type="int" name="NKREDY">     1</i>
   <i type="int" name="NKREDZ">     1</i>
   <i type="logical" name="SHIFTRED"> F  </i>
   <i type="logical" name="ODDONLY"> F  </i>
   <i type="logical" name="EVENONLY"> F  </i>
   <i type="int" name="LMAXFOCK">     0</i>
   <i type="int" name="NMAXFOCKAE">     0</i>
   <i type="logical" name="LFOCKAEDFT"> F  </i>
   <i name="HFSCREEN">      0.00000000</i>
   <i name="HFSCREENC">      0.00000000</i>
   <i type="int" name="NBANDSGWLOW">     0</i>
  </separator>
  <separator name="vdW DFT" >
   <i type="logical" name="LUSE_VDW"> F  </i>
   <i name="Zab_VDW">     -0.84910000</i>
   <i name="PARAM1">      0.12340000</i>
   <i name="PARAM2">      1.00000000</i>
   <i name="PARAM3">      0.00000000</i>
  </separator>
  <separator name="model GW" >
   <i type="int" name="MODEL_GW">     0</i>
   <i name="MODEL_EPS0">     11.81980638</i>
   <i name="MODEL_ALPHA">      1.00000000</i>
  </separator>
  <separator name="linear response parameters" >
   <i type="logical" name="LEPSILON"> F  </i>
   <i type="logical" name="LRPA"> F  </i>
   <i type="logical" name="LNABLA"> F  </i>
   <i type="logical" name="LVEL"> F  </i>
   <i type="int" name="KINTER">     0</i>
   <i name="CSHIFT">      0.10000000</i>
   <i name="OMEGAMAX">     -1.00000000</i>
   <i name="DEG_THRESHOLD">      0.00200000</i>
  </separator>
  <separator name="orbital magnetization" >
   <i type="logical" name="NUCIND"> F  </i>
   <v name="MAGPOS">      0.00000000      0.00000000      0.00000000</v>
   <i type="logical" name="LNICSALL"> T  </i>
   <i type="logical" name="ORBITALMAG"> F  </i>
   <i type="logical" name="LMAGBLOCH"> F  </i>
   <i type="logical" name="LCHIMAG"> F  </i>
   <i type="logical" name="LGAUGE"> T  </i>
   <i type="int" name="MAGATOM">     0</i>
   <v name="MAGDIPOL">      0.00000000      0.00000000      0.00000000</v>
   <v name="AVECCONST">      0.00000000      0.00000000      0.00000000</v>
  </separator>
  <separator name="response functions" >
   <i type="logical" name="LADDER"> F  </i>
   <i type="logical" name="LFXC"> F  </i>
   <i type="logical" name="LHARTREE"> T  </i>
   <i type="int" name="IBSE">     0</i>
   <v type="int" name="KPOINT">    -1     0     0     0</v>
   <i type="logical" name="LTCTE"> F  </i>
   <i type="logical" name="LTETE"> F  </i>
   <i type="logical" name="LTRIPLET"> F  </i>
   <i type="logical" name="LFXCEPS"> F  </i>
   <i type="logical" name="LFXHEG"> F  </i>
   <i type="int" name="NATURALO">     0</i>
   <i type="logical" name="L2ORDER"> F  </i>
   <i type="logical" name="LUSEW"> F  </i>
   <i name="ENCUTGW">     -2.00000000</i>
   <i name="ENCUTGWSOFT">     -2.00000000</i>
   <i name="ENCUTLF">     -1.00000000</i>
   <i type="int" name="LMAXMP2">    -1</i>
   <i name="SCISSOR">      0.00000000</i>
   <i type="int" name="NOMEGA">     0</i>
   <i type="int" name="NOMEGAR">     0</i>
   <i type="int" name="NBANDSGW">    -1</i>
   <i type="int" name="NBANDSO">    -1</i>
   <i type="int" name="NBANDSV">    -1</i>
   <i type="int" name="NELM">    70</i>
   <i type="int" name="NELMHF">     1</i>
   <i type="int" name="DIM">     3</i>
   <i type="int" name="ANTIRES">     0</i>
   <i name="OMEGAMAX">    -30.00000000</i>
   <i name="OMEGAMIN">    -30.00000000</i>
   <i name="OMEGATL">   -200.00000000</i>
   <i type="int" name="OMEGAGRID">     0</i>
   <i name="CSHIFT">     -0.10000000</i>
   <i type="logical" name="SELFENERGY"> F  </i>
   <i type="logical" name="LSPECTRAL"> F  </i>
   <i type="logical" name="LSPECTRALGW"> F  </i>
   <i type="logical" name="LSINGLES"> F  </i>
   <i type="logical" name="LFERMIGW"> F  </i>
   <i type="logical" name="ODDONLYGW"> F  </i>
   <i type="logical" name="EVENONLYGW"> F  </i>
   <i type="int" name="NKREDLFX">     1</i>
   <i type="int" name="NKREDLFY">     1</i>
   <i type="int" name="NKREDLFZ">     1</i>
   <i type="int" name="MAXMEM">  1800</i>
   <i type="int" name="TELESCOPE">     0</i>
   <i type="int" name="TAUPAR">     1</i>
   <i type="int" name="OMEGAPAR">    -1</i>
   <i name="LAMBDA">      1.00000000</i>
  </separator>
  <separator name="External order field" >
   <i name="OFIELD_KAPPA">      0.00000000</i>
   <v name="OFIELD_K">      0.00000000      0.00000000      0.00000000</v>
   <i name="OFIELD_Q6_NEAR">      0.00000000</i>
   <i name="OFIELD_Q6_FAR">      0.00000000</i>
   <i name="OFIELD_A">      0.00000000</i>
  </separator>
 </parameters>
 <atominfo>
  <atoms>      36 </atoms>
  <types>       4 </types>
  <array name="atoms" >
   <dimension dim="1">ion</dimension>
   <field type="string">element</field>
   <field type="int">atomtype</field>
   <set>
    <rc><c>Hf</c><c>   1</c></rc>
    <rc><c>Hf</c><c>   1</c></rc>
    <rc><c>Hf</c><c>   1</c></rc>
    <rc><c>Hf</c><c>   1</c></rc>
    <rc><c>Hf</c><c>   1</c></rc>
    <rc><c>Hf</c><c>   1</c></rc>
    <rc><c>Hf</c><c>   1</c></rc>
    <rc><c>Hf</c><c>   1</c></rc>
    <rc><c>Zr</c><c>   2</c></rc>
    <rc><c>Zr</c><c>   2</c></rc>
    <rc><c>Zr</c><c>   2</c></rc>
    <rc><c>Zr</c><c>   2</c></rc>
    <rc><c>Zr</c><c>   2</c></rc>
    <rc><c>Zr</c><c>   2</c></rc>
    <rc><c>Zr</c><c>   2</c></rc>
    <rc><c>Nb</c><c>   3</c></rc>
    <rc><c>Nb</c><c>   3</c></rc>
    <rc><c>Nb</c><c>   3</c></rc>
    <rc><c>Nb</c><c>   3</c></rc>
    <rc><c>Nb</c><c>   3</c></rc>
    <rc><c>Nb</c><c>   3</c></rc>
    <rc><c>Nb</c><c>   3</c></rc>
    <rc><c>Nb</c><c>   3</c></rc>
    <rc><c>Ta</c><c>   4</c></rc>
    <rc><c>Ta</c><c>   4</c></rc>
    <rc><c>Ta</c><c>   4</c></rc>
    <rc><c>Ta</c><c>   4</c></rc>
    <rc><c>Ta</c><c>   4</c></rc>
    <rc><c>Ta</c><c>   4</c></rc>
    <rc><c>Ta</c><c>   4</c></rc>
    <rc><c>Ta</c><c>   4</c></rc>
    <rc><c>Ta</c><c>   4</c></rc>
    <rc><c>Ta</c><c>   4</c></rc>
    <rc><c>Ta</c><c>   4</c></rc>
    <rc><c>Ta</c><c>   4</c></rc>
    <rc><c>Ta</c><c>   4</c></rc>
   </set>
  </array>
  <array name="atomtypes" >
   <dimension dim="1">type</dimension>
   <field type="int">atomspertype</field>
   <field type="string">element</field>
   <field>mass</field>
   <field>valence</field>
   <field type="string">pseudopotential</field>
   <set>
    <rc><c>   8</c><c>Hf</c><c>    178.49000000</c><c>      4.00000000</c><c>  PAW_PBE Hf 20Jan2003                  </c></rc>
    <rc><c>   7</c><c>Zr</c><c>     91.22400000</c><c>     12.00000000</c><c>  PAW_PBE Zr_sv 04Jan2005               </c></rc>
    <rc><c>   8</c><c>Nb</c><c>     92.91000000</c><c>     13.00000000</c><c>  PAW_PBE Nb_sv 25May2007               </c></rc>
    <rc><c>  13</c><c>Ta</c><c>    180.94800000</c><c>      5.00000000</c><c>  PAW_PBE Ta 17Jan2003                  </c></rc>
   </set>
  </array>
 </atominfo>
 <structure name="initialpos" >
  <crystal>
   <varray name="basis" >
    <v>       6.84591674       0.00071333      -0.00199034 </v>
    <v>       0.00158628      10.14705559      -0.00142167 </v>
    <v>      -0.00283336      -0.00164115      10.20916005 </v>
   </varray>
   <i name="volume">    709.18838255 </i>
   <varray name="rec_basis" >
    <v>       0.14607249      -0.00002283       0.00004054 </v>
    <v>      -0.00001026       0.09855076       0.00001584 </v>
    <v>       0.00002848       0.00001372       0.09795126 </v>
   </varray>
  </crystal>
  <varray name="positions" >
   <v>       0.22739300       0.83442700       0.17213100 </v>
   <v>       0.49250800       0.34033300       0.67084200 </v>
   <v>       0.50330100       0.98942100       0.00341600 </v>
   <v>       0.74364500       0.16474500       0.49418500 </v>
   <v>       0.01105100       0.33531000       0.66645800 </v>
   <v>       0.76249200       0.15193700       0.82951100 </v>
   <v>       0.50741100       0.66925500       0.66007800 </v>
   <v>       0.48160300       0.33982600       0.98057300 </v>
   <v>       0.75094900       0.16721800       0.17391000 </v>
   <v>       0.24010600       0.83260300       0.82706900 </v>
   <v>       0.75493300       0.48711000       0.17351800 </v>
   <v>       0.49754600       0.66803900       0.33682200 </v>
   <v>       0.02181300       0.33499700       0.98578600 </v>
   <v>       0.50210000       0.66842800       0.00258100 </v>
   <v>       0.25456700       0.16861100       0.17802900 </v>
   <v>       0.75800900       0.83413700       0.82734100 </v>
   <v>       0.23856800       0.50475400       0.49611900 </v>
   <v>       0.49806700       0.98726200       0.33354300 </v>
   <v>       0.00342700       0.99244800       0.33313900 </v>
   <v>       0.00368500       0.00015500       0.65906900 </v>
   <v>       0.99068400       0.66482900       0.66091300 </v>
   <v>       0.01921100       0.34228700       0.34908500 </v>
   <v>       0.22741400       0.52536700       0.83204000 </v>
   <v>       0.23715200       0.84166200       0.50045000 </v>
   <v>       0.76294200       0.84290800       0.49804700 </v>
   <v>       0.24078000       0.49793700       0.17421800 </v>
   <v>       0.99214900       0.66943200       0.00607300 </v>
   <v>       0.76028300       0.49531900       0.49436900 </v>
   <v>       0.76993400       0.83615500       0.17428000 </v>
   <v>       0.99813100       0.99085200       0.00547600 </v>
   <v>       0.76521800       0.51240800       0.83275500 </v>
   <v>       0.00046200       0.66832000       0.33501800 </v>
   <v>       0.25991600       0.15870000       0.49745500 </v>
   <v>       0.24063500       0.14391700       0.82230800 </v>
   <v>       0.49939900       0.99100100       0.66082500 </v>
   <v>       0.48251500       0.34790200       0.35256800 </v>
  </varray>
 </structure>
 <calculation>
  <scstep>
   <time name="dav">    1.09    1.09</time>
   <time name="total">    1.14    1.57</time>
   <energy>
    <i name="alphaZ">   1524.87024984 </i>
    <i name="ewald"> -18607.17038377 </i>
    <i name="hartreedc">  -6214.35949670 </i>
    <i name="XCdc">   -486.31328320 </i>
    <i name="pawpsdc">  20347.80458923 </i>
    <i name="pawaedc"> -18629.37954554 </i>
    <i name="eentropy">      0.00136352 </i>
    <i name="bandstr">     46.85521737 </i>
    <i name="atom">  23735.67433589 </i>
    <i name="e_fr_energy">   1717.98304663 </i>
    <i name="e_wo_entrp">   1717.98168312 </i>
    <i name="e_0_energy">   1717.98259213 </i>
   </energy>
  </scstep>
  <scstep>
   <time name="dav">    1.12    1.13</time>
   <time name="total">    1.12    1.40</time>
   <energy>
    <i name="e_fr_energy">   -118.27030208 </i>
    <i name="e_wo_entrp">   -118.27314430 </i>
    <i name="e_0_energy">   -118.27124949 </i>
   </energy>
  </scstep>
  <scstep>
   <time name="dav">    1.36    1.38</time>
   <time name="total">    1.36    1.42</time>
   <energy>
    <i name="e_fr_energy">   -356.24197071 </i>
    <i name="e_wo_entrp">   -356.23873027 </i>
    <i name="e_0_energy">   -356.24089056 </i>
   </energy>
  </scstep>
  <scstep>
   <time name="dav">    1.42    1.43</time>
   <time name="total">    1.42    1.49</time>
   <energy>
    <i name="e_fr_energy">   -384.29910708 </i>
    <i name="e_wo_entrp">   -384.31370302 </i>
    <i name="e_0_energy">   -384.30397239 </i>
   </energy>
  </scstep>
  <scstep>
   <time name="dav">    1.38    1.39</time>
   <time name="total">    1.42    1.46</time>
   <energy>
    <i name="e_fr_energy">   -386.97237887 </i>
    <i name="e_wo_entrp">   -386.98623131 </i>
    <i name="e_0_energy">   -386.97699635 </i>
   </energy>
  </scstep>
  <scstep>
   <time name="diag">    0.07    0.07</time>
   <time name="diis">    0.77    0.77</time>
   <time name="orth">    0.01    0.01</time>
   <time name="total">    0.92    0.99</time>
   <energy>
    <i name="e_fr_energy">   -376.53441750 </i>
    <i name="e_wo_entrp">   -376.54247161 </i>
    <i name="e_0_energy">   -376.53710220 </i>
   </energy>
  </scstep>
  <scstep>
   <time name="diag">    0.10    0.10</time>
   <time name="diis">    0.69    0.81</time>
   <time name="orth">    0.01    0.01</time>
   <time name="total">    0.90    1.10</time>
   <energy>
    <i name="e_fr_energy">   -378.41592522 </i>
    <i name="e_wo_entrp">   -378.41048752 </i>
    <i name="e_0_energy">   -378.41411265 </i>
   </energy>
  </scstep>
  <scstep>
   <time name="diag">    0.11    0.11</time>
   <time name="diis">    0.77    0.78</time>
   <time name="orth">    0.01    0.01</time>
   <time name="total">    0.96    1.03</time>
   <energy>
    <i name="e_fr_energy">   -372.01938894 </i>
    <i name="e_wo_entrp">   -372.03790045 </i>
    <i name="e_0_energy">   -372.02555944 </i>
   </energy>
  </scstep>
  <scstep>
   <time name="diag">    0.09    0.09</time>
   <time name="diis">    0.86    0.87</time>
   <time name="orth">    0.01    0.01</time>
   <time name="total">    1.03    1.10</time>
   <energy>
    <i name="e_fr_energy">   -371.76660813 </i>
    <i name="e_wo_entrp">   -371.78558408 </i>
    <i name="e_0_energy">   -371.77293345 </i>
   </energy>
  </scstep>
  <scstep>
   <time name="diag">    0.08    0.08</time>
   <time name="diis">    0.85    0.86</time>
   <time name="orth">    0.01    0.01</time>
   <time name="total">    1.01    1.09</time>
   <energy>
    <i name="e_fr_energy">   -371.70981098 </i>
    <i name="e_wo_entrp">   -371.72797745 </i>
    <i name="e_0_energy">   -371.71586647 </i>
   </energy>
  </scstep>
  <scstep>
   <time name="diag">    0.07    0.07</time>
   <time name="diis">    0.77    0.78</time>
   <time name="orth">    0.01    0.01</time>
   <time name="total">    0.92    0.99</time>
   <energy>
    <i name="e_fr_energy">   -371.68510713 </i>
    <i name="e_wo_entrp">   -371.70497132 </i>
    <i name="e_0_energy">   -371.69172853 </i>
   </energy>
  </scstep>
  <scstep>
   <time name="diag">    0.07    0.07</time>
   <time name="diis">    0.78    0.79</time>
   <time name="orth">    0.01    0.01</time>
   <time name="total">    0.93    1.00</time>
   <energy>
    <i name="e_fr_energy">   -371.67741282 </i>
    <i name="e_wo_entrp">   -371.69510509 </i>
    <i name="e_0_energy">   -371.68331024 </i>
   </energy>
  </scstep>
  <scstep>
   <time name="diag">    0.07    0.07</time>
   <time name="diis">    0.78    0.78</time>
   <time name="orth">    0.01    0.01</time>
   <time name="total">    0.93    1.00</time>
   <energy>
    <i name="e_fr_energy">   -371.67671055 </i>
    <i name="e_wo_entrp">   -371.69547111 </i>
    <i name="e_0_energy">   -371.68296407 </i>
   </energy>
  </scstep>
  <scstep>
   <time name="diag">    0.09    0.09</time>
   <time name="diis">    0.88    0.88</time>
   <time name="orth">    0.01    0.01</time>
   <time name="total">    1.07    1.15</time>
   <energy>
    <i name="e_fr_energy">   -371.67656737 </i>
    <i name="e_wo_entrp">   -371.69494475 </i>
    <i name="e_0_energy">   -371.68269317 </i>
   </energy>
  </scstep>
  <scstep>
   <time name="diag">    0.07    0.07</time>
   <time name="diis">    0.79    0.79</time>
   <time name="orth">    0.01    0.01</time>
   <time name="total">    0.94    0.99</time>
   <energy>
    <i name="e_fr_energy">   -371.67674872 </i>
    <i name="e_wo_entrp">   -371.69518629 </i>
    <i name="e_0_energy">   -371.68289457 </i>
   </energy>
  </scstep>
  <scstep>
   <time name="diag">    0.07    0.07</time>
   <time name="diis">    0.72    0.72</time>
   <time name="orth">    0.01    0.01</time>
   <time name="total">    0.87    0.92</time>
   <energy>
    <i name="e_fr_energy">   -371.67678401 </i>
    <i name="e_wo_entrp">   -371.69521736 </i>
    <i name="e_0_energy">   -371.68292846 </i>
   </energy>
  </scstep>
  <scstep>
   <time name="diag">    0.07    0.07</time>
   <time name="diis">    0.63    0.63</time>
   <time name="orth">    0.01    0.01</time>
   <time name="total">    0.78    0.82</time>
   <energy>
    <i name="e_fr_energy">   -371.67680397 </i>
    <i name="e_wo_entrp">   -371.69526811 </i>
    <i name="e_0_energy">   -371.68295868 </i>
   </energy>
  </scstep>
  <scstep>
   <time name="diag">    0.08    0.08</time>
   <time name="diis">    0.58    0.58</time>
   <time name="orth">    0.01    0.01</time>
   <time name="total">    0.73    0.80</time>
   <energy>
    <i name="e_fr_energy">   -371.67681544 </i>
    <i name="e_wo_entrp">   -371.69527520 </i>
    <i name="e_0_energy">   -371.68296870 </i>
   </energy>
  </scstep>
  <scstep>
   <time name="diag">    0.08    0.08</time>
   <time name="diis">    0.45    0.46</time>
   <time name="orth">    0.01    0.01</time>
   <time name="total">    0.75    0.80</time>
   <energy>
    <i name="alphaZ">   1524.87024984 </i>
    <i name="ewald"> -18607.17038377 </i>
    <i name="hartreedc">  -5997.81614360 </i>
    <i name="XCdc">   -483.91278893 </i>
    <i name="pawpsdc">  33221.43103182 </i>
    <i name="pawaedc"> -31487.71254691 </i>
    <i name="eentropy">      0.01845451 </i>
    <i name="bandstr">  -2277.05902848 </i>
    <i name="atom">  23735.67433589 </i>
    <i name="e_fr_energy">   -371.67681963 </i>
    <i name="e_wo_entrp">   -371.69527414 </i>
    <i name="e_0_energy">   -371.68297114 </i>
   </energy>
  </scstep>
  <structure>
   <crystal>
    <varray name="basis" >
     <v>       6.84591674       0.00071333      -0.00199034 </v>
     <v>       0.00158628      10.14705559      -0.00142167 </v>
     <v>      -0.00283336      -0.00164115      10.20916005 </v>
    </varray>
    <i name="volume">    709.18838255 </i>
    <varray name="rec_basis" >
     <v>       0.14607249      -0.00002283       0.00004054 </v>
     <v>      -0.00001026       0.09855076       0.00001584 </v>
     <v>       0.00002848       0.00001372       0.09795126 </v>
    </varray>
   </crystal>
   <varray name="positions" >
    <v>       0.22739300       0.83442700       0.17213100 </v>
    <v>       0.49250800       0.34033300       0.67084200 </v>
    <v>       0.50330100       0.98942100       0.00341600 </v>
    <v>       0.74364500       0.16474500       0.49418500 </v>
    <v>       0.01105100       0.33531000       0.66645800 </v>
    <v>       0.76249200       0.15193700       0.82951100 </v>
    <v>       0.50741100       0.66925500       0.66007800 </v>
    <v>       0.48160300       0.33982600       0.98057300 </v>
    <v>       0.75094900       0.16721800       0.17391000 </v>
    <v>       0.24010600       0.83260300       0.82706900 </v>
    <v>       0.75493300       0.48711000       0.17351800 </v>
    <v>       0.49754600       0.66803900       0.33682200 </v>
    <v>       0.02181300       0.33499700       0.98578600 </v>
    <v>       0.50210000       0.66842800       0.00258100 </v>
    <v>       0.25456700       0.16861100       0.17802900 </v>
    <v>       0.75800900       0.83413700       0.82734100 </v>
    <v>       0.23856800       0.50475400       0.49611900 </v>
    <v>       0.49806700       0.98726200       0.33354300 </v>
    <v>       0.00342700       0.99244800       0.33313900 </v>
    <v>       0.00368500       0.00015500       0.65906900 </v>
    <v>       0.99068400       0.66482900       0.66091300 </v>
    <v>       0.01921100       0.34228700       0.34908500 </v>
    <v>       0.22741400       0.52536700       0.83204000 </v>
    <v>       0.23715200       0.84166200       0.50045000 </v>
    <v>       0.76294200       0.84290800       0.49804700 </v>
    <v>       0.24078000       0.49793700       0.17421800 </v>
    <v>       0.99214900       0.66943200       0.00607300 </v>
    <v>       0.76028300       0.49531900       0.49436900 </v>
    <v>       0.76993400       0.83615500       0.17428000 </v>
    <v>       0.99813100       0.99085200       0.00547600 </v>
    <v>       0.76521800       0.51240800       0.83275500 </v>
    <v>       0.00046200       0.66832000       0.33501800 </v>
    <v>       0.25991600       0.15870000       0.49745500 </v>
    <v>       0.24063500       0.14391700       0.82230800 </v>
    <v>       0.49939900       0.99100100       0.66082500 </v>
    <v>       0.48251500       0.34790200       0.35256800 </v>
   </varray>
  </structure>
  <varray name="forces" >
   <v>       0.15294729      -0.17556295      -0.00955187 </v>
   <v>      -0.01112064       0.00057529       0.00688400 </v>
   <v>       0.30210019       0.18708456      -0.24546050 </v>
   <v>       0.00671767      -0.03386542      -0.00168142 </v>
   <v>       0.00123191      -0.01292151      -0.00057433 </v>
   <v>      -0.03115926       0.00237957       0.02288724 </v>
   <v>       0.02449078       0.00597078       0.01331234 </v>
   <v>       0.01678934      -0.00007011      -0.01277036 </v>
   <v>       0.00162751      -0.01751035      -0.00434489 </v>
   <v>       0.02048784      -0.00176080      -0.01602032 </v>
   <v>       0.00955685       0.00324780       0.00395154 </v>
   <v>       0.21216147      -0.15080626       0.16053941 </v>
   <v>      -0.00186413       0.00238180      -0.01438609 </v>
   <v>       0.24018500      -0.18972801      -0.21900822 </v>
   <v>       0.00166510       0.04244649      -0.02346259 </v>
   <v>       0.01000197       0.02594395       0.01938618 </v>
   <v>       0.00461378       0.00681292      -0.03281367 </v>
   <v>       0.29674459       0.15900850       0.28080682 </v>
   <v>      -0.35433675       0.26965337       0.35480695 </v>
   <v>      -0.03872016       0.04919913       0.01747287 </v>
   <v>      -0.04236455      -0.03089857       0.00367258 </v>
   <v>      -0.02151322      -0.01079609       0.04169528 </v>
   <v>       0.00292780       0.04803480       0.01848374 </v>
   <v>       0.03192707       0.00418604      -0.08416456 </v>
   <v>       0.00834436       0.01825413      -0.02063727 </v>
   <v>      -0.02422073       0.05148701       0.00489999 </v>
   <v>      -0.34383143      -0.30397648      -0.25918105 </v>
   <v>       0.02741225       0.03444018      -0.03124733 </v>
   <v>       0.15404593      -0.00735264      -0.00114899 </v>
   <v>      -0.41713867       0.34016297      -0.37036281 </v>
   <v>       0.00539705       0.02052508       0.03539025 </v>
   <v>      -0.31810063      -0.30733877       0.30747658 </v>
   <v>       0.00241577      -0.00931636       0.01658600 </v>
   <v>       0.02130067      -0.03976213       0.00959272 </v>
   <v>       0.02592013       0.02729997       0.01430564 </v>
   <v>       0.02335790      -0.00742790       0.01466614 </v>
  </varray>
  <varray name="stress" >
   <v>       8.71248059      -0.08681547       0.06412258 </v>
   <v>      -0.08681549       5.77451126      -0.16356403 </v>
   <v>       0.06412253      -0.16356406       7.65608986 </v>
  </varray>
  <energy>
   <i name="e_fr_energy">   -371.67681963 </i>
   <i name="e_wo_entrp">   -371.68297114 </i>
   <i name="e_0_energy">      0.01845451 </i>
  </energy>
  <time name="totalsc">   21.03   23.05</time>
 </calculation>
 <calculation>
  <scstep>
   <time name="dav">    1.17    1.19</time>
   <time name="total">    1.26    1.48</time>
   <energy>
    <i name="alphaZ">   1518.87752639 </i>
    <i name="ewald"> -18583.41798233 </i>
    <i name="hartreedc">  -5989.29538826 </i>
    <i name="XCdc">   -484.96056890 </i>
    <i name="pawpsdc">  33221.64047419 </i>
    <i name="pawaedc"> -31487.91615922 </i>
    <i name="eentropy">      0.01641224 </i>
    <i name="bandstr">  -2302.35746765 </i>
    <i name="atom">  23735.67433589 </i>
    <i name="e_fr_energy">   -371.73881764 </i>
    <i name="e_wo_entrp">   -371.75522988 </i>
    <i name="e_0_energy">   -371.74428839 </i>
   </energy>
  </scstep>
  <scstep>
   <time name="diag">    0.07    0.07</time>
   <time name="diis">    0.72    0.72</time>
   <time name="orth">    0.01    0.01</time>
   <time name="total">    0.87    0.91</time>
   <energy>
    <i name="e_fr_energy">   -371.72536922 </i>
    <i name="e_wo_entrp">   -371.74373145 </i>
    <i name="e_0_energy">   -371.73148996 </i>
   </energy>
  </scstep>
  <scstep>
   <time name="diag">    0.07    0.07</time>
   <time name="diis">    0.76    0.76</time>
   <time name="orth">    0.01    0.01</time>
   <time name="total">    0.91    0.99</time>
   <energy>
    <i name="e_fr_energy">   -371.71688409 </i>
    <i name="e_wo_entrp">   -371.73433379 </i>
    <i name="e_0_energy">   -371.72270066 </i>
   </energy>
  </scstep>
  <scstep>
   <time name="diag">    0.12    0.12</time>
   <time name="diis">    0.82    0.83</time>
   <time name="orth">    0.01    0.01</time>
   <time name="total">    1.02    1.11</time>
   <energy>
    <i name="e_fr_energy">   -371.71307586 </i>
    <i name="e_wo_entrp">   -371.73107276 </i>
    <i name="e_0_energy">   -371.71907482 </i>
   </energy>
  </scstep>
  <scstep>
   <time name="diag">    0.07    0.07</time>
   <time name="diis">    0.79    0.79</time>
   <time name="orth">    0.01    0.01</time>
   <time name="total">    0.93    0.98</time>
   <energy>
    <i name="e_fr_energy">   -371.71251530 </i>
    <i name="e_wo_entrp">   -371.73040683 </i>
    <i name="e_0_energy">   -371.71847914 </i>
   </energy>
  </scstep>
  <scstep>
   <time name="diag">    0.07    0.07</time>
   <time name="diis">    0.82    0.83</time>
   <time name="orth">    0.01    0.01</time>
   <time name="total">    0.97    1.03</time>
   <energy>
    <i name="e_fr_energy">   -371.71252174 </i>
    <i name="e_wo_entrp">   -371.73029233 </i>
    <i name="e_0_energy">   -371.71844527 </i>
   </energy>
  </scstep>
  <scstep>
   <time name="diag">    0.07    0.08</time>
   <time name="diis">    0.76    0.76</time>
   <time name="orth">    0.01    0.01</time>
   <time name="total">    0.91    0.96</time>
   <energy>
    <i name="e_fr_energy">   -371.71251913 </i>
    <i name="e_wo_entrp">   -371.73040327 </i>
    <i name="e_0_energy">   -371.71848051 </i>
   </energy>
  </scstep>
  <scstep>
   <time name="diag">    0.08    0.08</time>
   <time name="diis">    0.75    0.76</time>
   <time name="orth">    0.01    0.01</time>
   <time name="total">    0.91    0.96</time>
   <energy>
    <i name="e_fr_energy">   -371.71254074 </i>
    <i name="e_wo_entrp">   -371.73032967 </i>
    <i name="e_0_energy">   -371.71847038 </i>
   </energy>
  </scstep>
  <scstep>
   <time name="diag">    0.12    0.12</time>
   <time name="diis">    0.61    0.61</time>
   <time name="orth">    0.01    0.01</time>
   <time name="total">    0.84    0.90</time>
   <energy>
    <i name="e_fr_energy">   -371.71254886 </i>
    <i name="e_wo_entrp">   -371.73037174 </i>
    <i name="e_0_energy">   -371.71848982 </i>
   </energy>
  </scstep>
  <scstep>
   <time name="diag">    0.07    0.07</time>
   <time name="diis">    0.52    0.52</time>
   <time name="orth">    0.01    0.01</time>
   <time name="total">    0.63    0.71</time>
   <energy>
    <i name="alphaZ">   1518.87752639 </i>
    <i name="ewald"> -18583.41798233 </i>
    <i name="hartreedc">  -6004.16062946 </i>
    <i name="XCdc">   -484.34717506 </i>
    <i name="pawpsdc">  33043.35728697 </i>
    <i name="pawaedc"> -31309.65185928 </i>
    <i name="eentropy">      0.01781781 </i>
    <i name="bandstr">  -2288.06187629 </i>
    <i name="atom">  23735.67433589 </i>
    <i name="e_fr_energy">   -371.71255537 </i>
    <i name="e_wo_entrp">   -371.73037317 </i>
    <i name="e_0_energy">   -371.71849464 </i>
   </energy>
  </scstep>
  <structure>
   <crystal>
    <varray name="basis" >
     <v>       6.85653059       0.00060836      -0.00191495 </v>
     <v>       0.00143196      10.15748253      -0.00171893 </v>
     <v>      -0.00272123      -0.00193995      10.22306913 </v>
    </varray>
    <i name="volume">    711.98648166 </i>
    <varray name="rec_basis" >
     <v>       0.14584637      -0.00002055       0.00003882 </v>
     <v>      -0.00000873       0.09844960       0.00001868 </v>
     <v>       0.00002732       0.00001655       0.09781799 </v>
    </varray>
   </crystal>
   <varray name="positions" >
    <v>       0.22771639       0.83417657       0.17211749 </v>
    <v>       0.49248449       0.34033382       0.67085175 </v>
    <v>       0.50393946       0.98968774       0.00306819 </v>
    <v>       0.74365921       0.16469670       0.49418261 </v>
    <v>       0.01105361       0.33529157       0.66645718 </v>
    <v>       0.76242614       0.15194040       0.82954343 </v>
    <v>       0.50746278       0.66926352       0.66009688 </v>
    <v>       0.48163849       0.33982589       0.98055490 </v>
    <v>       0.75095244       0.16719302       0.17390384 </v>
    <v>       0.24014930       0.83260048       0.82704630 </v>
    <v>       0.75495321       0.48711463       0.17352361 </v>
    <v>       0.49799467       0.66782391       0.33704964 </v>
    <v>       0.02180905       0.33500039       0.98576561 </v>
    <v>       0.50260770       0.66815730       0.00227059 </v>
    <v>       0.25457049       0.16867154       0.17799575 </v>
    <v>       0.75803015       0.83417401       0.82736849 </v>
    <v>       0.23857773       0.50476371       0.49607249 </v>
    <v>       0.49869445       0.98748881       0.33394123 </v>
    <v>       0.00267802       0.99283274       0.33364189 </v>
    <v>       0.00360314       0.00022518       0.65909376 </v>
    <v>       0.99059445       0.66478494       0.66091818 </v>
    <v>       0.01916555       0.34227161       0.34914410 </v>
    <v>       0.22742018       0.52543552       0.83206621 </v>
    <v>       0.23721945       0.84166795       0.50033070 </v>
    <v>       0.76295962       0.84293403       0.49801775 </v>
    <v>       0.24072878       0.49801044       0.17422495 </v>
    <v>       0.99142206       0.66899843       0.00570538 </v>
    <v>       0.76034092       0.49536811       0.49432472 </v>
    <v>       0.77025967       0.83614449       0.17427843 </v>
    <v>       0.99724881       0.99133715       0.00495086 </v>
    <v>       0.76522942       0.51243728       0.83280518 </v>
    <v>      -0.00021021       0.66788176       0.33545370 </v>
    <v>       0.25992112       0.15868672       0.49747851 </v>
    <v>       0.24068005       0.14386029       0.82232160 </v>
    <v>       0.49945380       0.99103994       0.66084530 </v>
    <v>       0.48256439       0.34789141       0.35258880 </v>
   </varray>
  </structure>
  <varray name="forces" >
   <v>       0.08183000      -0.15287197      -0.00845499 </v>
   <v>      -0.02186045       0.00534139      -0.00044743 </v>
   <v>       0.28359361       0.15684117      -0.22055031 </v>
   <v>      -0.00088177      -0.02333006       0.01247820 </v>
   <v>       0.01282786      -0.00540874      -0.00052551 </v>
   <v>      -0.02835120       0.01270333      -0.00015387 </v>
   <v>       0.02326360       0.01295683       0.01343401 </v>
   <v>      -0.00226775       0.00624084      -0.01195953 </v>
   <v>       0.00247518      -0.00948026       0.00084247 </v>
   <v>       0.00441135       0.00461073      -0.00412885 </v>
   <v>       0.01188532      -0.00888461       0.00857171 </v>
   <v>       0.18678720      -0.13239803       0.13892329 </v>
   <v>       0.01344059       0.00426194      -0.01441670 </v>
   <v>       0.22006983      -0.16772557      -0.19536816 </v>
   <v>      -0.00407780       0.03452828      -0.00620516 </v>
   <v>       0.01899141       0.02397170       0.00948518 </v>
   <v>      -0.00296478      -0.00553777      -0.03362016 </v>
   <v>       0.25142900       0.12483626       0.25338112 </v>
   <v>      -0.28609594       0.20745311       0.30554363 </v>
   <v>      -0.01846990       0.03797187       0.01372081 </v>
   <v>      -0.03607423      -0.02672440       0.00483687 </v>
   <v>       0.00111714      -0.00105467       0.03922194 </v>
   <v>      -0.00931438       0.05072558       0.01328472 </v>
   <v>       0.01556937       0.02246195      -0.07971760 </v>
   <v>       0.01790972       0.02609281      -0.01128061 </v>
   <v>      -0.02914038       0.04691962       0.01868330 </v>
   <v>      -0.30380198      -0.26622102      -0.23232698 </v>
   <v>       0.02957340       0.01583976      -0.02480662 </v>
   <v>       0.16939511       0.00114865      -0.00136022 </v>
   <v>      -0.37104571       0.27798363      -0.31430880 </v>
   <v>       0.01294420       0.01629442       0.02127061 </v>
   <v>      -0.26861584      -0.25182975       0.26820553 </v>
   <v>       0.00408870      -0.00914922       0.01263620 </v>
   <v>       0.01031452      -0.04201252       0.00000987 </v>
   <v>       0.01030526       0.01366406       0.00723124 </v>
   <v>       0.00073973      -0.00021934       0.01787082 </v>
  </varray>
  <varray name="stress" >
   <v>       2.74357707      -0.17404316       0.01297143 </v>
   <v>      -0.17404319       0.21977499      -0.14523788 </v>
   <v>       0.01297143      -0.14523787       1.99373226 </v>
  </varray>
  <energy>
   <i name="e_fr_energy">   -371.71255537 </i>
   <i name="e_wo_entrp">   -371.71849464 </i>
   <i name="e_0_energy">      0.01781781 </i>
  </energy>
  <time name="totalsc">   10.97   12.14</time>
 </calculation>
 <calculation>
  <scstep>
   <time name="dav">    0.94    0.94</time>
   <time name="total">    1.01    1.23</time>
   <energy>
    <i name="alphaZ">   1503.79307328 </i>
    <i name="ewald"> -18522.80517713 </i>
    <i name="hartreedc">  -5982.91398591 </i>
    <i name="XCdc">   -487.00312935 </i>
    <i name="pawpsdc">  33042.68381711 </i>
    <i name="pawaedc"> -31309.12124188 </i>
    <i name="eentropy">      0.01241198 </i>
    <i name="bandstr">  -2352.22862613 </i>
    <i name="atom">  23735.67433589 </i>
    <i name="e_fr_energy">   -371.90852214 </i>
    <i name="e_wo_entrp">   -371.92093412 </i>
    <i name="e_0_energy">   -371.91265947 </i>
   </energy>
  </scstep>
  <scstep>
   <time name="diag">    0.12    0.12</time>
   <time name="diis">    0.73    0.74</time>
   <time name="orth">    0.01    0.01</time>
   <time name="total">    0.93    0.99</time>
   <energy>
    <i name="e_fr_energy">   -371.82272055 </i>
    <i name="e_wo_entrp">   -371.84008838 </i>
    <i name="e_0_energy">   -371.82850983 </i>
   </energy>
  </scstep>
  <scstep>
   <time name="diag">    0.08    0.08</time>
   <time name="diis">    0.76    0.76</time>
   <time name="orth">    0.01    0.01</time>
   <time name="total">    0.91    0.98</time>
   <energy>
    <i name="e_fr_energy">   -371.76636185 </i>
    <i name="e_wo_entrp">   -371.78140025 </i>
    <i name="e_0_energy">   -371.77137465 </i>
   </energy>
  </scstep>
  <scstep>
   <time name="diag">    0.07    0.08</time>
   <time name="diis">    0.78    0.79</time>
   <time name="orth">    0.01    0.01</time>
   <time name="total">    0.95    1.04</time>
   <energy>
    <i name="e_fr_energy">   -371.74238256 </i>
    <i name="e_wo_entrp">   -371.75866583 </i>
    <i name="e_0_energy">   -371.74781032 </i>
   </energy>
  </scstep>
  <scstep>
   <time name="diag">    0.07    0.07</time>
   <time name="diis">    0.78    0.79</time>
   <time name="orth">    0.01    0.01</time>
   <time name="total">    0.93    1.00</time>
   <energy>
    <i name="e_fr_energy">   -371.73858118 </i>
    <i name="e_wo_entrp">   -371.75466225 </i>
    <i name="e_0_energy">   -371.74394154 </i>
   </energy>
  </scstep>
  <scstep>
   <time name="diag">    0.08    0.08</time>
   <time name="diis">    0.91    0.91</time>
   <time name="orth">    0.01    0.01</time>
   <time name="total">    1.06    1.13</time>
   <energy>
    <i name="e_fr_energy">   -371.73873461 </i>
    <i name="e_wo_entrp">   -371.75451128 </i>
    <i name="e_0_energy">   -371.74399350 </i>
   </energy>
  </scstep>
  <scstep>
   <time name="diag">    0.10    0.11</time>
   <time name="diis">    0.89    0.90</time>
   <time name="orth">    0.01    0.01</time>
   <time name="total">    1.07    1.14</time>
   <energy>
    <i name="e_fr_energy">   -371.73884713 </i>
    <i name="e_wo_entrp">   -371.75488965 </i>
    <i name="e_0_energy">   -371.74419464 </i>
   </energy>
  </scstep>
  <scstep>
   <time name="diag">    0.07    0.07</time>
   <time name="diis">    0.84    0.85</time>
   <time name="orth">    0.01    0.01</time>
   <time name="total">    0.99    1.06</time>
   <energy>
    <i name="e_fr_energy">   -371.73906696 </i>
    <i name="e_wo_entrp">   -371.75489503 </i>
    <i name="e_0_energy">   -371.74434298 </i>
   </energy>
  </scstep>
  <scstep>
   <time name="diag">    0.07    0.07</time>
   <time name="diis">    0.77    0.77</time>
   <time name="orth">    0.01    0.01</time>
   <time name="total">    0.92    0.97</time>
   <energy>
    <i name="e_fr_energy">   -371.73915164 </i>
    <i name="e_wo_entrp">   -371.75504656 </i>
    <i name="e_0_energy">   -371.74444995 </i>
   </energy>
  </scstep>
  <scstep>
   <time name="diag">    0.07    0.07</time>
   <time name="diis">    0.73    0.73</time>
   <time name="orth">    0.01    0.01</time>
   <time name="total">    0.88    0.92</time>
   <energy>
    <i name="e_fr_energy">   -371.73924523 </i>
    <i name="e_wo_entrp">   -371.75512641 </i>
    <i name="e_0_energy">   -371.74453896 </i>
   </energy>
  </scstep>
  <scstep>
   <time name="diag">    0.09    0.09</time>
   <time name="diis">    0.63    0.63</time>
   <time name="orth">    0.03    0.03</time>
   <time name="total">    0.84    0.89</time>
   <energy>
    <i name="e_fr_energy">   -371.73927402 </i>
    <i name="e_wo_entrp">   -371.75517857 </i>
    <i name="e_0_energy">   -371.74457554 </i>
   </energy>
  </scstep>
  <scstep>
   <time name="diag">    0.12    0.12</time>
   <time name="diis">    0.59    0.60</time>
   <time name="orth">    0.01    0.01</time>
   <time name="total">    0.79    0.84</time>
   <energy>
    <i name="e_fr_energy">   -371.73927177 </i>
    <i name="e_wo_entrp">   -371.75515546 </i>
    <i name="e_0_energy">   -371.74456633 </i>
   </energy>
  </scstep>
  <scstep>
   <time name="diag">    0.07    0.07</time>
   <time name="diis">    0.48    0.49</time>
   <time name="orth">    0.01    0.01</time>
   <time name="total">    0.60    0.67</time>
   <energy>
    <i name="alphaZ">   1503.79307328 </i>
    <i name="ewald"> -18522.80517713 </i>
    <i name="hartreedc">  -6019.89757945 </i>
    <i name="XCdc">   -485.47736123 </i>
    <i name="pawpsdc">  32599.86024969 </i>
    <i name="pawaedc"> -30867.04995891 </i>
    <i name="eentropy">      0.01587904 </i>
    <i name="bandstr">  -2315.85273272 </i>
    <i name="atom">  23735.67433589 </i>
    <i name="e_fr_energy">   -371.73927154 </i>
    <i name="e_wo_entrp">   -371.75515057 </i>
    <i name="e_0_energy">   -371.74456455 </i>
   </energy>
  </scstep>
  <structure>
   <crystal>
    <varray name="basis" >
     <v>       6.88349771       0.00034165      -0.00172342 </v>
     <v>       0.00103988      10.18397476      -0.00247420 </v>
     <v>      -0.00243635      -0.00269911      10.25840860 </v>
    </varray>
    <i name="volume">    719.12837298 </i>
    <varray name="rec_basis" >
     <v>       0.14527499      -0.00001483       0.00003450 </v>
     <v>      -0.00000487       0.09819349       0.00002583 </v>
     <v>       0.00002441       0.00002368       0.09748102 </v>
    </varray>
   </crystal>
   <varray name="positions" >
    <v>       0.22853677       0.83354095       0.17208318 </v>
    <v>       0.49242486       0.34033591       0.67087650 </v>
    <v>       0.50555914       0.99036475       0.00218570 </v>
    <v>       0.74369526       0.16457409       0.49417655 </v>
    <v>       0.01106022       0.33524479       0.66645511 </v>
    <v>       0.76225906       0.15194904       0.82962573 </v>
    <v>       0.50759414       0.66928513       0.66014480 </v>
    <v>       0.48172851       0.33982563       0.98050899 </v>
    <v>       0.75096118       0.16712963       0.17388820 </v>
    <v>       0.24025916       0.83259409       0.82698869 </v>
    <v>       0.75500446       0.48712639       0.17353783 </v>
    <v>       0.49913284       0.66727801       0.33762721 </v>
    <v>       0.02179903       0.33500901       0.98571386 </v>
    <v>       0.50389565       0.66747023       0.00148296 </v>
    <v>       0.25457936       0.16882518       0.17791138 </v>
    <v>       0.75808380       0.83426794       0.82743825 </v>
    <v>       0.23860242       0.50478835       0.49595447 </v>
    <v>       0.50028618       0.98806455       0.33495167 </v>
    <v>       0.00077801       0.99380929       0.33491792 </v>
    <v>       0.00339547       0.00040332       0.65915660 </v>
    <v>       0.99036728       0.66467309       0.66093133 </v>
    <v>       0.01905024       0.34223257       0.34929404 </v>
    <v>       0.22743588       0.52560942       0.83213273 </v>
    <v>       0.23739055       0.84168303       0.50002800 </v>
    <v>       0.76300433       0.84300010       0.49794354 </v>
    <v>       0.24059885       0.49819684       0.17424258 </v>
    <v>       0.98957795       0.66789792       0.00477259 </v>
    <v>       0.76048786       0.49549276       0.49421237 </v>
    <v>       0.77108582       0.83611782       0.17427445 </v>
    <v>       0.99501090       0.99256848       0.00361848 </v>
    <v>       0.76525840       0.51251161       0.83293249 </v>
    <v>      -0.00191552       0.66676946       0.33655916 </v>
    <v>       0.25993411       0.15865300       0.49753817 </v>
    <v>       0.24079433       0.14371634       0.82235610 </v>
    <v>       0.49959281       0.99113877       0.66089680 </v>
    <v>       0.48268969       0.34786452       0.35264157 </v>
   </varray>
  </structure>
  <varray name="forces" >
   <v>      -0.08214872      -0.10237829      -0.00384924 </v>
   <v>      -0.04895675       0.01628457      -0.01885956 </v>
   <v>       0.24008145       0.08177151      -0.16001298 </v>
   <v>      -0.01962340      -0.00058963       0.04615576 </v>
   <v>       0.04096456       0.01391978      -0.00027772 </v>
   <v>      -0.02083948       0.04138774      -0.05999235 </v>
   <v>       0.02130934       0.02923128       0.01391928 </v>
   <v>      -0.05044223       0.02256065      -0.00927480 </v>
   <v>       0.00759867       0.00547090       0.01474211 </v>
   <v>      -0.03537828       0.02142880       0.02175610 </v>
   <v>       0.01878581      -0.03618368       0.01909030 </v>
   <v>       0.12345131      -0.08840524       0.08607285 </v>
   <v>       0.05169597       0.00975055      -0.01335571 </v>
   <v>       0.17117013      -0.11413400      -0.13743174 </v>
   <v>      -0.01832789       0.01565919       0.03643817 </v>
   <v>       0.04376881       0.02249497      -0.01630616 </v>
   <v>      -0.02292186      -0.03618453      -0.03878585 </v>
   <v>       0.14212210       0.04522154       0.19318467 </v>
   <v>      -0.12525583       0.05986953       0.19501821 </v>
   <v>       0.03178053       0.00770086       0.00426988 </v>
   <v>      -0.02075217      -0.01563295       0.00788228 </v>
   <v>       0.05607922       0.02317211       0.03458916 </v>
   <v>      -0.03959910       0.05826154       0.00185789 </v>
   <v>      -0.02165139       0.06983542      -0.06776413 </v>
   <v>       0.04026681       0.04839681       0.00869660 </v>
   <v>      -0.03981788       0.03367071       0.04914398 </v>
   <v>      -0.20770183      -0.17543577      -0.16811183 </v>
   <v>       0.03647794      -0.03078917      -0.00830351 </v>
   <v>       0.20133932       0.02179551      -0.00273714 </v>
   <v>      -0.26162808       0.12795059      -0.17961681 </v>
   <v>       0.03096675       0.00284282      -0.01402005 </v>
   <v>      -0.14903236      -0.11639171       0.17229277 </v>
   <v>       0.00813444      -0.01256933       0.00116056 </v>
   <v>      -0.01771018      -0.04623980      -0.02317166 </v>
   <v>      -0.02947986      -0.02077653      -0.01162238 </v>
   <v>      -0.05472588       0.01703327       0.02722307 </v>
  </varray>
  <varray name="stress" >
   <v>     -12.47810613      -0.37335363      -0.10157203 </v>
   <v>      -0.37335361     -13.92508366      -0.05566439 </v>
   <v>      -0.10157200      -0.05566438     -12.45192712 </v>
  </varray>
  <energy>
   <i name="e_fr_energy">   -371.73927154 </i>
   <i name="e_wo_entrp">   -371.74456455 </i>
   <i name="e_0_energy">      0.01587904 </i>
  </energy>
  <time name="totalsc">   13.44   14.60</time>
 </calculation>
 <calculation>
  <scstep>
   <time name="dav">    0.92    0.93</time>
   <time name="total">    1.02    1.23</time>
   <energy>
    <i name="alphaZ">   1505.24422412 </i>
    <i name="ewald"> -18528.43530388 </i>
    <i name="hartreedc">  -6022.02998530 </i>
    <i name="XCdc">   -485.21170587 </i>
    <i name="pawpsdc">  32599.29387027 </i>
    <i name="pawaedc"> -30866.51096751 </i>
    <i name="eentropy">      0.01471460 </i>
    <i name="bandstr">  -2309.79853952 </i>
    <i name="atom">  23735.67433589 </i>
    <i name="e_fr_energy">   -371.75935719 </i>
    <i name="e_wo_entrp">   -371.77407179 </i>
    <i name="e_0_energy">   -371.76426205 </i>
   </energy>
  </scstep>
  <scstep>
   <time name="diag">    0.15    0.15</time>
   <time name="diis">    0.73    0.74</time>
   <time name="orth">    0.01    0.01</time>
   <time name="total">    0.96    1.00</time>
   <energy>
    <i name="e_fr_energy">   -371.76383371 </i>
    <i name="e_wo_entrp">   -371.77857540 </i>
    <i name="e_0_energy">   -371.76874761 </i>
   </energy>
  </scstep>
  <scstep>
   <time name="diag">    0.13    0.13</time>
   <time name="diis">    0.79    0.80</time>
   <time name="orth">    0.01    0.01</time>
   <time name="total">    1.00    1.07</time>
   <energy>
    <i name="e_fr_energy">   -371.76157547 </i>
    <i name="e_wo_entrp">   -371.77654313 </i>
    <i name="e_0_energy">   -371.76656469 </i>
   </energy>
  </scstep>
  <scstep>
   <time name="diag">    0.08    0.08</time>
   <time name="diis">    0.75    0.80</time>
   <time name="orth">    0.01    0.01</time>
   <time name="total">    0.90    1.01</time>
   <energy>
    <i name="e_fr_energy">   -371.76111483 </i>
    <i name="e_wo_entrp">   -371.77606542 </i>
    <i name="e_0_energy">   -371.76609836 </i>
   </energy>
  </scstep>
  <scstep>
   <time name="diag">    0.07    0.08</time>
   <time name="diis">    0.78    0.78</time>
   <time name="orth">    0.01    0.01</time>
   <time name="total">    0.93    1.00</time>
   <energy>
    <i name="e_fr_energy">   -371.76102400 </i>
    <i name="e_wo_entrp">   -371.77586992 </i>
    <i name="e_0_energy">   -371.76597264 </i>
   </energy>
  </scstep>
  <scstep>
   <time name="diag">    0.09    0.09</time>
   <time name="diis">    0.78    0.78</time>
   <time name="orth">    0.01    0.01</time>
   <time name="total">    0.94    0.98</time>
   <energy>
    <i name="e_fr_energy">   -371.76102480 </i>
    <i name="e_wo_entrp">   -371.77601577 </i>
    <i name="e_0_energy">   -371.76602179 </i>
   </energy>
  </scstep>
  <scstep>
   <time name="diag">    0.07    0.07</time>
   <time name="diis">    0.77    0.77</time>
   <time name="orth">    0.01    0.01</time>
   <time name="total">    0.92    0.96</time>
   <energy>
    <i name="e_fr_energy">   -371.76100918 </i>
    <i name="e_wo_entrp">   -371.77593112 </i>
    <i name="e_0_energy">   -371.76598316 </i>
   </energy>
  </scstep>
  <scstep>
   <time name="diag">    0.07    0.08</time>
   <time name="diis">    0.48    0.49</time>
   <time name="orth">    0.01    0.01</time>
   <time name="total">    0.61    0.65</time>
   <energy>
    <i name="alphaZ">   1505.24422412 </i>
    <i name="ewald"> -18528.43530388 </i>
    <i name="hartreedc">  -6018.47540148 </i>
    <i name="XCdc">   -485.36077253 </i>
    <i name="pawpsdc">  32640.71487496 </i>
    <i name="pawaedc"> -30908.05901724 </i>
    <i name="eentropy">      0.01492114 </i>
    <i name="bandstr">  -2313.07888008 </i>
    <i name="atom">  23735.67433589 </i>
    <i name="e_fr_energy">   -371.76101909 </i>
    <i name="e_wo_entrp">   -371.77594023 </i>
    <i name="e_0_energy">   -371.76599280 </i>
   </energy>
  </scstep>
  <structure>
   <crystal>
    <varray name="basis" >
     <v>       6.88291802      -0.00001265      -0.00173434 </v>
     <v>       0.00051588      10.17735647      -0.00276771 </v>
     <v>      -0.00245286      -0.00299346      10.25604723 </v>
    </varray>
    <i name="volume">    718.43508765 </i>
    <varray name="rec_basis" >
     <v>       0.14528723      -0.00000735       0.00003475 </v>
     <v>       0.00000019       0.09825735       0.00002868 </v>
     <v>       0.00002457       0.00002651       0.09750346 </v>
    </varray>
   </crystal>
   <varray name="positions" >
    <v>       0.22869069       0.83325883       0.17206931 </v>
    <v>       0.49234643       0.34035004       0.67086869 </v>
    <v>       0.50635538       0.99064263       0.00178048 </v>
    <v>       0.74368243       0.16453554       0.49421257 </v>
    <v>       0.01111242       0.33524178       0.66645425 </v>
    <v>       0.76218171       0.15198596       0.82960199 </v>
    <v>       0.50766097       0.66931604       0.66017111 </v>
    <v>       0.48169468       0.33984421       0.98048711 </v>
    <v>       0.75097319       0.16711447       0.17389546 </v>
    <v>       0.24024993       0.83260984       0.82698868 </v>
    <v>       0.75504337       0.48710011       0.17355792 </v>
    <v>       0.49963702       0.66703535       0.33787714 </v>
    <v>       0.02185920       0.33501974       0.98568684 </v>
    <v>       0.50450465       0.66716235       0.00112564 </v>
    <v>       0.25455968       0.16888587       0.17791513 </v>
    <v>       0.75815401       0.83431572       0.82744652 </v>
    <v>       0.23858202       0.50476605       0.49588597 </v>
    <v>       0.50095393       0.98828086       0.33542396 </v>
    <v>       0.00003538       0.99416219       0.33547411 </v>
    <v>       0.00336996       0.00046501       0.65917963 </v>
    <v>       0.99027141       0.66462542       0.66094188 </v>
    <v>       0.01908312       0.34223962       0.34936900 </v>
    <v>       0.22739227       0.52571164       0.83215491 </v>
    <v>       0.23741709       0.84174548       0.49987841 </v>
    <v>       0.76306749       0.84306066       0.49792767 </v>
    <v>       0.24050982       0.49828261       0.17428842 </v>
    <v>       0.98875165       0.66741089       0.00434494 </v>
    <v>       0.76057810       0.49550600       0.49417069 </v>
    <v>       0.77158854       0.83612757       0.17427101 </v>
    <v>       0.99399645       0.99305671       0.00305748 </v>
    <v>       0.76530529       0.51253705       0.83296049 </v>
    <v>      -0.00262688       0.66632774       0.33704367 </v>
    <v>       0.25994809       0.15863213       0.49755763 </v>
    <v>       0.24080809       0.14363337       0.82234776 </v>
    <v>       0.49959984       0.99115228       0.66090322 </v>
    <v>       0.48266157       0.34787027       0.35268030 </v>
   </varray>
  </structure>
  <varray name="forces" >
   <v>      -0.11126505      -0.08918162      -0.00876840 </v>
   <v>      -0.05290832       0.01754613      -0.01802121 </v>
   <v>       0.21588141       0.05711110      -0.13217243 </v>
   <v>      -0.02235214       0.01660754       0.06389995 </v>
   <v>       0.04520326       0.01583527       0.00171725 </v>
   <v>      -0.02815681       0.06986181      -0.08149695 </v>
   <v>       0.01370527       0.03155580       0.01360131 </v>
   <v>      -0.05750632       0.02003206      -0.00042015 </v>
   <v>       0.00752546       0.01967188       0.01493197 </v>
   <v>      -0.03963875       0.02260076       0.03524751 </v>
   <v>       0.01408075      -0.04859702       0.01327247 </v>
   <v>       0.09821977      -0.06421171       0.05724577 </v>
   <v>       0.05413749       0.00211684      -0.00362367 </v>
   <v>       0.14369560      -0.08791612      -0.10626697 </v>
   <v>      -0.02006924       0.01175459       0.03864760 </v>
   <v>       0.04489034       0.01843855      -0.02414349 </v>
   <v>      -0.01853326      -0.03506901      -0.02036479 </v>
   <v>       0.09611292       0.02126130       0.15606606 </v>
   <v>      -0.06144072       0.02686196       0.14262760 </v>
   <v>       0.04045019      -0.00207783       0.00608334 </v>
   <v>      -0.01038313      -0.00513195       0.00671248 </v>
   <v>       0.05882036       0.01158516       0.01743938 </v>
   <v>      -0.03070229       0.04921584      -0.00313688 </v>
   <v>      -0.02040417       0.06681047      -0.05861286 </v>
   <v>       0.03565320       0.04099428       0.02164174 </v>
   <v>      -0.03474875       0.03298539       0.04416206 </v>
   <v>      -0.16319082      -0.13566287      -0.13821382 </v>
   <v>       0.02698521      -0.04349042       0.01323807 </v>
   <v>       0.17872609       0.02111134      -0.00903023 </v>
   <v>      -0.21310925       0.08495310      -0.12819881 </v>
   <v>       0.01698747      -0.02003686      -0.03056662 </v>
   <v>      -0.10299342      -0.06686857       0.13313068 </v>
   <v>       0.00581727      -0.00754347       0.00302097 </v>
   <v>      -0.01536401      -0.03295331      -0.02062015 </v>
   <v>      -0.03650177      -0.02515953      -0.01204444 </v>
   <v>      -0.05762382       0.00498913       0.01301565 </v>
  </varray>
  <varray name="stress" >
   <v>     -11.28760977      -0.41328913      -0.13613465 </v>
   <v>      -0.41328918     -12.31683141       0.00453408 </v>
   <v>      -0.13613465       0.00453407     -11.09938396 </v>
  </varray>
  <energy>
   <i name="e_fr_energy">   -371.76101909 </i>
   <i name="e_wo_entrp">   -371.76599280 </i>
   <i name="e_0_energy">      0.01492114 </i>
  </energy>
  <time name="totalsc">    8.86    9.67</time>
 </calculation>
 <calculation>
  <scstep>
   <time name="dav">    0.87    0.87</time>
   <time name="total">    0.94    1.16</time>
   <energy>
    <i name="alphaZ">   1509.61052580 </i>
    <i name="ewald"> -18544.52357927 </i>
    <i name="hartreedc">  -6025.71031022 </i>
    <i name="XCdc">   -484.55477621 </i>
    <i name="pawpsdc">  32640.39164033 </i>
    <i name="pawaedc"> -30907.69669167 </i>
    <i name="eentropy">      0.01167658 </i>
    <i name="bandstr">  -2294.98411092 </i>
    <i name="atom">  23735.67433589 </i>
    <i name="e_fr_energy">   -371.78128969 </i>
    <i name="e_wo_entrp">   -371.79296627 </i>
    <i name="e_0_energy">   -371.78518188 </i>
   </energy>
  </scstep>
  <scstep>
   <time name="diag">    0.08    0.08</time>
   <time name="diis">    0.81    0.81</time>
   <time name="orth">    0.01    0.01</time>
   <time name="total">    0.96    1.00</time>
   <energy>
    <i name="e_fr_energy">   -371.82249687 </i>
    <i name="e_wo_entrp">   -371.83396236 </i>
    <i name="e_0_energy">   -371.82631870 </i>
   </energy>
  </scstep>
  <scstep>
   <time name="diag">    0.08    0.08</time>
   <time name="diis">    0.84    0.85</time>
   <time name="orth">    0.01    0.01</time>
   <time name="total">    0.99    1.04</time>
   <energy>
    <i name="e_fr_energy">   -371.80001264 </i>
    <i name="e_wo_entrp">   -371.81224289 </i>
    <i name="e_0_energy">   -371.80408939 </i>
   </energy>
  </scstep>
  <scstep>
   <time name="diag">    0.07    0.07</time>
   <time name="diis">    0.77    0.79</time>
   <time name="orth">    0.01    0.01</time>
   <time name="total">    0.94    1.01</time>
   <energy>
    <i name="e_fr_energy">   -371.79624850 </i>
    <i name="e_wo_entrp">   -371.80848708 </i>
    <i name="e_0_energy">   -371.80032802 </i>
   </energy>
  </scstep>
  <scstep>
   <time name="diag">    0.13    0.13</time>
   <time name="diis">    0.84    0.85</time>
   <time name="orth">    0.01    0.01</time>
   <time name="total">    1.07    1.12</time>
   <energy>
    <i name="e_fr_energy">   -371.79549733 </i>
    <i name="e_wo_entrp">   -371.80744051 </i>
    <i name="e_0_energy">   -371.79947839 </i>
   </energy>
  </scstep>
  <scstep>
   <time name="diag">    0.08    0.09</time>
   <time name="diis">    0.82    0.83</time>
   <time name="orth">    0.01    0.01</time>
   <time name="total">    0.99    1.03</time>
   <energy>
    <i name="e_fr_energy">   -371.79550919 </i>
    <i name="e_wo_entrp">   -371.80780913 </i>
    <i name="e_0_energy">   -371.79960917 </i>
   </energy>
  </scstep>
  <scstep>
   <time name="diag">    0.07    0.07</time>
   <time name="diis">    0.89    0.89</time>
   <time name="orth">    0.01    0.01</time>
   <time name="total">    1.04    1.09</time>
   <energy>
    <i name="e_fr_energy">   -371.79536822 </i>
    <i name="e_wo_entrp">   -371.80750848 </i>
    <i name="e_0_energy">   -371.79941497 </i>
   </energy>
  </scstep>
  <scstep>
   <time name="diag">    0.08    0.08</time>
   <time name="diis">    0.75    0.75</time>
   <time name="orth">    0.01    0.01</time>
   <time name="total">    0.90    0.95</time>
   <energy>
    <i name="e_fr_energy">   -371.79543881 </i>
    <i name="e_wo_entrp">   -371.80758289 </i>
    <i name="e_0_energy">   -371.79948684 </i>
   </energy>
  </scstep>
  <scstep>
   <time name="diag">    0.07    0.07</time>
   <time name="diis">    0.70    0.70</time>
   <time name="orth">    0.01    0.01</time>
   <time name="total">    0.84    0.89</time>
   <energy>
    <i name="e_fr_energy">   -371.79546465 </i>
    <i name="e_wo_entrp">   -371.80762230 </i>
    <i name="e_0_energy">   -371.79951720 </i>
   </energy>
  </scstep>
  <scstep>
   <time name="diag">    0.08    0.08</time>
   <time name="diis">    0.59    0.59</time>
   <time name="orth">    0.01    0.01</time>
   <time name="total">    0.76    0.82</time>
   <energy>
    <i name="e_fr_energy">   -371.79547719 </i>
    <i name="e_wo_entrp">   -371.80763450 </i>
    <i name="e_0_energy">   -371.79952963 </i>
   </energy>
  </scstep>
  <scstep>
   <time name="diag">    0.07    0.07</time>
   <time name="diis">    0.44    0.44</time>
   <time name="orth">    0.01    0.01</time>
   <time name="total">    0.56    0.60</time>
   <energy>
    <i name="alphaZ">   1509.61052580 </i>
    <i name="ewald"> -18544.52357927 </i>
    <i name="hartreedc">  -6015.61277900 </i>
    <i name="XCdc">   -484.98089988 </i>
    <i name="pawpsdc">  32776.75449434 </i>
    <i name="pawaedc"> -31043.82372784 </i>
    <i name="eentropy">      0.01215973 </i>
    <i name="bandstr">  -2304.90601213 </i>
    <i name="atom">  23735.67433589 </i>
    <i name="e_fr_energy">   -371.79548236 </i>
    <i name="e_wo_entrp">   -371.80764209 </i>
    <i name="e_0_energy">   -371.79953561 </i>
   </energy>
  </scstep>
  <structure>
   <crystal>
    <varray name="basis" >
     <v>       6.88117895      -0.00107554      -0.00176710 </v>
     <v>      -0.00105614      10.15750160      -0.00364825 </v>
     <v>      -0.00250237      -0.00387651      10.24896313 </v>
    </varray>
    <i name="volume">    716.35713160 </i>
    <varray name="rec_basis" >
     <v>       0.14532395       0.00001512       0.00003549 </v>
     <v>       0.00001540       0.09844942       0.00003724 </v>
     <v>       0.00002506       0.00003505       0.09757087 </v>
    </varray>
   </crystal>
   <varray name="positions" >
    <v>       0.22915239       0.83241194       0.17202768 </v>
    <v>       0.49211112       0.34039242       0.67084524 </v>
    <v>       0.50874438       0.99147686       0.00056456 </v>
    <v>       0.74364394       0.16441980       0.49432066 </v>
    <v>       0.01126901       0.33523273       0.66645167 </v>
    <v>       0.76194962       0.15209677       0.82953078 </v>
    <v>       0.50786148       0.66940882       0.66025006 </v>
    <v>       0.48159320       0.33989999       0.98042148 </v>
    <v>       0.75100923       0.16706896       0.17391723 </v>
    <v>       0.24022225       0.83265712       0.82698865 </v>
    <v>       0.75516008       0.48702122       0.17361821 </v>
    <v>       0.50114962       0.66630696       0.33862707 </v>
    <v>       0.02203972       0.33505198       0.98560578 </v>
    <v>       0.50633174       0.66623815       0.00005340 </v>
    <v>       0.25450067       0.16906804       0.17792639 </v>
    <v>       0.75836467       0.83445917       0.82747134 </v>
    <v>       0.23852080       0.50469912       0.49568044 </v>
    <v>       0.50295739       0.98893031       0.33684118 </v>
    <v>      -0.00219260       0.99522157       0.33714310 </v>
    <v>       0.00329343       0.00065023       0.65924871 </v>
    <v>       0.98998378       0.66448231       0.66097352 </v>
    <v>       0.01918178       0.34226080       0.34959394 </v>
    <v>       0.22726145       0.52601851       0.83222146 </v>
    <v>       0.23749675       0.84193293       0.49942955 </v>
    <v>       0.76325699       0.84324246       0.49788006 </v>
    <v>       0.24024273       0.49854007       0.17442598 </v>
    <v>       0.98627245       0.66594873       0.00306166 </v>
    <v>       0.76084883       0.49554574       0.49404562 </v>
    <v>       0.77309681       0.83615689       0.17426067 </v>
    <v>       0.99095296       0.99452219       0.00137413 </v>
    <v>       0.76544598       0.51261341       0.83304452 </v>
    <v>      -0.00476123       0.66500169       0.33849749 </v>
    <v>       0.25999005       0.15856948       0.49761604 </v>
    <v>       0.24084937       0.14338430       0.82232272 </v>
    <v>       0.49962094       0.99119283       0.66092251 </v>
    <v>       0.48257720       0.34788754       0.35279651 </v>
   </varray>
  </structure>
  <varray name="forces" >
   <v>      -0.18664887      -0.05728864      -0.02325108 </v>
   <v>      -0.06459422       0.02006271      -0.01698509 </v>
   <v>       0.13451388      -0.01840112      -0.04785294 </v>
   <v>      -0.03043350       0.07228881       0.11911184 </v>
   <v>       0.05873403       0.02027697       0.00603952 </v>
   <v>      -0.05085030       0.16044904      -0.15011931 </v>
   <v>      -0.01007392       0.03968401       0.01265870 </v>
   <v>      -0.07975022       0.01192521       0.03140115 </v>
   <v>       0.00775801       0.06113522       0.01618744 </v>
   <v>      -0.05011321       0.02264598       0.07499140 </v>
   <v>      -0.00284251      -0.08309552      -0.00468248 </v>
   <v>       0.01753752       0.00967971      -0.03283329 </v>
   <v>       0.06252487      -0.02210542       0.02825133 </v>
   <v>       0.05527853      -0.00761296      -0.01009199 </v>
   <v>      -0.02398935       0.00108377       0.04391732 </v>
   <v>       0.04763753       0.00510587      -0.05179957 </v>
   <v>      -0.00457457      -0.03261507       0.03792758 </v>
   <v>      -0.04092298      -0.04643138       0.04692267 </v>
   <v>       0.12622453      -0.06386261      -0.01101175 </v>
   <v>       0.06844334      -0.03455839       0.01370963 </v>
   <v>       0.02268521       0.02723801       0.00479107 </v>
   <v>       0.06777769      -0.02476821      -0.03850206 </v>
   <v>      -0.00596161       0.02595364      -0.01976994 </v>
   <v>      -0.01455330       0.05747289      -0.02802274 </v>
   <v>       0.02012565       0.01809557       0.06243636 </v>
   <v>      -0.01468533       0.03088002       0.02733188 </v>
   <v>      -0.02660320      -0.01366351      -0.04287598 </v>
   <v>      -0.00302977      -0.08297922       0.07903888 </v>
   <v>       0.10868636       0.01535047      -0.02979219 </v>
   <v>      -0.06302371      -0.04249477       0.02575309 </v>
   <v>      -0.02589225      -0.09363371      -0.08498130 </v>
   <v>       0.03662532       0.08228607       0.00981680 </v>
   <v>      -0.00038039       0.00502595       0.00760972 </v>
   <v>      -0.00764786       0.00645477      -0.01259438 </v>
   <v>      -0.06018090      -0.04077863      -0.01040754 </v>
   <v>      -0.06780048      -0.02880553      -0.03232276 </v>
  </varray>
  <varray name="stress" >
   <v>      -6.98405880      -0.49387395      -0.21172482 </v>
   <v>      -0.49387399      -6.69546251       0.14828819 </v>
   <v>      -0.21172485       0.14828818      -6.37145715 </v>
  </varray>
  <energy>
   <i name="e_fr_energy">   -371.79548236 </i>
   <i name="e_wo_entrp">   -371.79953561 </i>
   <i name="e_0_energy">      0.01215973 </i>
  </energy>
  <time name="totalsc">   11.69   12.59</time>
 </calculation>
 <calculation>
  <scstep>
   <time name="dav">    0.92    0.92</time>
   <time name="total">    1.03    1.24</time>
   <energy>
    <i name="alphaZ">   1510.61660136 </i>
    <i name="ewald"> -18548.05089844 </i>
    <i name="hartreedc">  -6017.46151190 </i>
    <i name="XCdc">   -484.79340466 </i>
    <i name="pawpsdc">  32777.18456885 </i>
    <i name="pawaedc"> -31044.22202687 </i>
    <i name="eentropy">      0.01147184 </i>
    <i name="bandstr">  -2300.75502144 </i>
    <i name="atom">  23735.67433589 </i>
    <i name="e_fr_energy">   -371.79588538 </i>
    <i name="e_wo_entrp">   -371.80735723 </i>
    <i name="e_0_energy">   -371.79970933 </i>
   </energy>
  </scstep>
  <scstep>
   <time name="diag">    0.08    0.08</time>
   <time name="diis">    0.73    0.74</time>
   <time name="orth">    0.01    0.01</time>
   <time name="total">    0.90    0.96</time>
   <energy>
    <i name="e_fr_energy">   -371.79804485 </i>
    <i name="e_wo_entrp">   -371.80950393 </i>
    <i name="e_0_energy">   -371.80186454 </i>
   </energy>
  </scstep>
  <scstep>
   <time name="diag">    0.08    0.08</time>
   <time name="diis">    0.76    0.76</time>
   <time name="orth">    0.01    0.01</time>
   <time name="total">    0.91    0.96</time>
   <energy>
    <i name="e_fr_energy">   -371.79698647 </i>
    <i name="e_wo_entrp">   -371.80857786 </i>
    <i name="e_0_energy">   -371.80085026 </i>
   </energy>
  </scstep>
  <scstep>
   <time name="diag">    0.08    0.08</time>
   <time name="diis">    0.77    0.77</time>
   <time name="orth">    0.01    0.01</time>
   <time name="total">    0.92    0.96</time>
   <energy>
    <i name="e_fr_energy">   -371.79679014 </i>
    <i name="e_wo_entrp">   -371.80837745 </i>
    <i name="e_0_energy">   -371.80065257 </i>
   </energy>
  </scstep>
  <scstep>
   <time name="diag">    0.08    0.08</time>
   <time name="diis">    0.85    0.85</time>
   <time name="orth">    0.01    0.01</time>
   <time name="total">    1.00    1.04</time>
   <energy>
    <i name="e_fr_energy">   -371.79675796 </i>
    <i name="e_wo_entrp">   -371.80827835 </i>
    <i name="e_0_energy">   -371.80059809 </i>
   </energy>
  </scstep>
  <scstep>
   <time name="diag">    0.07    0.07</time>
   <time name="diis">    0.70    0.71</time>
   <time name="orth">    0.01    0.01</time>
   <time name="total">    0.85    0.90</time>
   <energy>
    <i name="e_fr_energy">   -371.79676344 </i>
    <i name="e_wo_entrp">   -371.80836586 </i>
    <i name="e_0_energy">   -371.80063092 </i>
   </energy>
  </scstep>
  <scstep>
   <time name="diag">    0.07    0.07</time>
   <time name="diis">    0.53    0.54</time>
   <time name="orth">    0.01    0.01</time>
   <time name="total">    0.65    0.70</time>
   <energy>
    <i name="alphaZ">   1510.61660136 </i>
    <i name="ewald"> -18548.05089844 </i>
    <i name="hartreedc">  -6015.09481418 </i>
    <i name="XCdc">   -484.89411425 </i>
    <i name="pawpsdc">  32810.67260012 </i>
    <i name="pawaedc"> -31077.70874910 </i>
    <i name="eentropy">      0.01156716 </i>
    <i name="bandstr">  -2303.02328775 </i>
    <i name="atom">  23735.67433589 </i>
    <i name="e_fr_energy">   -371.79675921 </i>
    <i name="e_wo_entrp">   -371.80832636 </i>
    <i name="e_0_energy">   -371.80061493 </i>
   </energy>
  </scstep>
  <structure>
   <crystal>
    <varray name="basis" >
     <v>       6.88077932      -0.00131979      -0.00177462 </v>
     <v>      -0.00141738      10.15293910      -0.00385059 </v>
     <v>      -0.00251375      -0.00407943      10.24733526 </v>
    </varray>
    <i name="volume">    715.88003542 </i>
    <varray name="rec_basis" >
     <v>       0.14533239       0.00002030       0.00003566 </v>
     <v>       0.00001890       0.09849366       0.00003921 </v>
     <v>       0.00002518       0.00003701       0.09758637 </v>
    </varray>
   </crystal>
   <varray name="positions" >
    <v>       0.22925847       0.83221696       0.17201809 </v>
    <v>       0.49205704       0.34040217       0.67083984 </v>
    <v>       0.50929354       0.99166897       0.00028497 </v>
    <v>       0.74363509       0.16439315       0.49434552 </v>
    <v>       0.01130500       0.33523066       0.66645107 </v>
    <v>       0.76189628       0.15212227       0.82951441 </v>
    <v>       0.50790758       0.66943018       0.66026822 </v>
    <v>       0.48156987       0.33991283       0.98040638 </v>
[...]
       <r>    6.6584    1.0000 </r>
       <r>    6.7190    1.0000 </r>
       <r>    6.7559    1.0000 </r>
       <r>    6.7872    1.0000 </r>
       <r>    6.8429    1.0000 </r>
       <r>    6.8822    1.0000 </r>
       <r>    6.9157    1.0000 </r>
       <r>    6.9495    1.0000 </r>
       <r>    6.9973    1.0001 </r>
       <r>    7.0295    1.0004 </r>
       <r>    7.0868    1.0024 </r>
       <r>    7.1086    1.0042 </r>
       <r>    7.1481    1.0102 </r>
       <r>    7.1871    1.0202 </r>
       <r>    7.2318    1.0330 </r>
       <r>    7.2541    1.0354 </r>
       <r>    7.2697    1.0332 </r>
       <r>    7.3199    0.9840 </r>
       <r>    7.3659    0.8537 </r>
       <r>    7.3896    0.7510 </r>
       <r>    7.4258    0.5603 </r>
       <r>    7.4543    0.4004 </r>
       <r>    7.5145    0.1191 </r>
       <r>    7.5372    0.0505 </r>
       <r>    7.5490    0.0238 </r>
       <r>    7.5810   -0.0209 </r>
       <r>    7.6152   -0.0353 </r>
       <r>    7.6416   -0.0329 </r>
       <r>    7.6881   -0.0196 </r>
       <r>    7.7212   -0.0110 </r>
       <r>    7.7597   -0.0047 </r>
       <r>    7.7782   -0.0029 </r>
       <r>    7.8310   -0.0006 </r>
       <r>    7.8628   -0.0002 </r>
       <r>    7.9258   -0.0000 </r>
       <r>    7.9997   -0.0000 </r>
       <r>    8.0430   -0.0000 </r>
       <r>    8.0848   -0.0000 </r>
       <r>    8.1298   -0.0000 </r>
       <r>    8.2300   -0.0000 </r>
       <r>    8.3163   -0.0000 </r>
       <r>    8.5172   -0.0000 </r>
       <r>    8.6391   -0.0000 </r>
       <r>    8.7146   -0.0000 </r>
       <r>    9.2884   -0.0000 </r>
       <r>    9.3673   -0.0000 </r>
       <r>    9.4728   -0.0000 </r>
       <r>    9.5162   -0.0000 </r>
       <r>    9.5295   -0.0000 </r>
      </set>
     </set>
    </set>
   </array>
  </eigenvalues>
  <separator name="orbital magnetization" >
   <v name="MAGDIPOLOUT">      0.00000000      0.00000000      0.00000000</v>
  </separator>
  <dos>
   <i name="efermi">      7.43650108 </i>
   <total>
    <array>
     <dimension dim="1">gridpoints</dimension>
     <dimension dim="2">spin</dimension>
     <field>energy</field>
     <field>total</field>
     <field>integrated</field>
     <set>
      <set comment="spin 1">
       <r>   -49.5975     0.0000     0.0000 </r>
       <r>   -49.3910     0.0000     0.0000 </r>
       <r>   -49.1845     0.0000     0.0000 </r>
       <r>   -48.9780     0.0000     0.0000 </r>
       <r>   -48.7715     0.0000     0.0000 </r>
       <r>   -48.5650     0.0000     0.0000 </r>
       <r>   -48.3584     0.0000     0.0000 </r>
       <r>   -48.1519    -0.0000    -0.0000 </r>
       <r>   -47.9454    -0.0000    -0.0000 </r>
       <r>   -47.7389    -0.0000    -0.0000 </r>
       <r>   -47.5324    -0.0000    -0.0000 </r>
       <r>   -47.3259    -0.0000    -0.0000 </r>
       <r>   -47.1194    -0.0710    -0.0147 </r>
       <r>   -46.9129    -1.2737    -0.2777 </r>
       <r>   -46.7064    34.5959     6.8664 </r>
       <r>   -46.4999    44.6443    16.0855 </r>
       <r>   -46.2934    -0.2478    16.0343 </r>
       <r>   -46.0869    -0.1661    16.0000 </r>
       <r>   -45.8804    -0.0001    16.0000 </r>
       <r>   -45.6739    -0.0000    16.0000 </r>
       <r>   -45.4674     0.0000    16.0000 </r>
       <r>   -45.2609     0.0000    16.0000 </r>
       <r>   -45.0544     0.0000    16.0000 </r>
       <r>   -44.8479     0.0000    16.0000 </r>
       <r>   -44.6414     0.0000    16.0000 </r>
       <r>   -44.4349     0.0000    16.0000 </r>
       <r>   -44.2284     0.0000    16.0000 </r>
       <r>   -44.0219     0.0000    16.0000 </r>
       <r>   -43.8154     0.0000    16.0000 </r>
       <r>   -43.6089     0.0000    16.0000 </r>
       <r>   -43.4024     0.0000    16.0000 </r>
       <r>   -43.1959     0.0000    16.0000 </r>
       <r>   -42.9894     0.0000    16.0000 </r>
       <r>   -42.7829     0.0000    16.0000 </r>
       <r>   -42.5764     0.0000    16.0000 </r>
       <r>   -42.3699     0.0000    16.0000 </r>
       <r>   -42.1634    -0.0000    16.0000 </r>
       <r>   -41.9569    -0.0000    16.0000 </r>
       <r>   -41.7504    -0.0000    16.0000 </r>
       <r>   -41.5439    -0.0000    16.0000 </r>
       <r>   -41.3374    -0.0000    16.0000 </r>
       <r>   -41.1309    -0.0432    15.9911 </r>
       <r>   -40.9244    -1.5581    15.6693 </r>
       <r>   -40.7179    31.8659    22.2497 </r>
       <r>   -40.5114    38.7951    30.2609 </r>
       <r>   -40.3049    -1.1732    30.0186 </r>
       <r>   -40.0984    -0.0902    30.0000 </r>
       <r>   -39.8919    -0.0000    30.0000 </r>
       <r>   -39.6854    -0.0000    30.0000 </r>
       <r>   -39.4789     0.0000    30.0000 </r>
       <r>   -39.2724     0.0000    30.0000 </r>
       <r>   -39.0659     0.0000    30.0000 </r>
       <r>   -38.8594     0.0000    30.0000 </r>
       <r>   -38.6529     0.0000    30.0000 </r>
       <r>   -38.4464     0.0000    30.0000 </r>
       <r>   -38.2399     0.0000    30.0000 </r>
       <r>   -38.0334     0.0000    30.0000 </r>
       <r>   -37.8269     0.0000    30.0000 </r>
       <r>   -37.6204     0.0000    30.0000 </r>
       <r>   -37.4139     0.0000    30.0000 </r>
       <r>   -37.2074     0.0000    30.0000 </r>
       <r>   -37.0009     0.0000    30.0000 </r>
       <r>   -36.7944     0.0000    30.0000 </r>
       <r>   -36.5879     0.0000    30.0000 </r>
       <r>   -36.3814     0.0000    30.0000 </r>
       <r>   -36.1749     0.0000    30.0000 </r>
       <r>   -35.9684     0.0000    30.0000 </r>
       <r>   -35.7619     0.0000    30.0000 </r>
       <r>   -35.5554     0.0000    30.0000 </r>
       <r>   -35.3489     0.0000    30.0000 </r>
       <r>   -35.1424     0.0000    30.0000 </r>
       <r>   -34.9359     0.0000    30.0000 </r>
       <r>   -34.7294     0.0000    30.0000 </r>
       <r>   -34.5229     0.0000    30.0000 </r>
       <r>   -34.3164     0.0000    30.0000 </r>
       <r>   -34.1099     0.0000    30.0000 </r>
       <r>   -33.9034     0.0000    30.0000 </r>
       <r>   -33.6969     0.0000    30.0000 </r>
       <r>   -33.4904     0.0000    30.0000 </r>
       <r>   -33.2839     0.0000    30.0000 </r>
       <r>   -33.0774     0.0000    30.0000 </r>
       <r>   -32.8709     0.0000    30.0000 </r>
       <r>   -32.6644     0.0000    30.0000 </r>
       <r>   -32.4579     0.0000    30.0000 </r>
       <r>   -32.2514     0.0000    30.0000 </r>
       <r>   -32.0449     0.0000    30.0000 </r>
       <r>   -31.8384     0.0000    30.0000 </r>
       <r>   -31.6319     0.0000    30.0000 </r>
       <r>   -31.4253     0.0000    30.0000 </r>
       <r>   -31.2188     0.0000    30.0000 </r>
       <r>   -31.0123     0.0000    30.0000 </r>
       <r>   -30.8058     0.0000    30.0000 </r>
       <r>   -30.5993     0.0000    30.0000 </r>
       <r>   -30.3928     0.0000    30.0000 </r>
       <r>   -30.1863     0.0000    30.0000 </r>
       <r>   -29.9798     0.0000    30.0000 </r>
       <r>   -29.7733     0.0000    30.0000 </r>
       <r>   -29.5668     0.0000    30.0000 </r>
       <r>   -29.3603     0.0000    30.0000 </r>
       <r>   -29.1538     0.0000    30.0000 </r>
       <r>   -28.9473     0.0000    30.0000 </r>
       <r>   -28.7408     0.0000    30.0000 </r>
       <r>   -28.5343     0.0000    30.0000 </r>
       <r>   -28.3278     0.0000    30.0000 </r>
       <r>   -28.1213     0.0000    30.0000 </r>
       <r>   -27.9148     0.0000    30.0000 </r>
       <r>   -27.7083     0.0000    30.0000 </r>
       <r>   -27.5018     0.0000    30.0000 </r>
       <r>   -27.2953     0.0000    30.0000 </r>
       <r>   -27.0888     0.0000    30.0000 </r>
       <r>   -26.8823     0.0000    30.0000 </r>
       <r>   -26.6758     0.0000    30.0000 </r>
       <r>   -26.4693     0.0000    30.0000 </r>
       <r>   -26.2628     0.0000    30.0000 </r>
       <r>   -26.0563     0.0000    30.0000 </r>
       <r>   -25.8498     0.0000    30.0000 </r>
       <r>   -25.6433     0.0000    30.0000 </r>
       <r>   -25.4368     0.0000    30.0000 </r>
       <r>   -25.2303     0.0000    30.0000 </r>
       <r>   -25.0238     0.0000    30.0000 </r>
       <r>   -24.8173     0.0000    30.0000 </r>
       <r>   -24.6108    -0.0000    30.0000 </r>
       <r>   -24.4043    -0.0000    30.0000 </r>
       <r>   -24.1978    -0.0000    30.0000 </r>
       <r>   -23.9913    -0.0000    30.0000 </r>
       <r>   -23.7848    -0.0000    30.0000 </r>
       <r>   -23.5783    -0.0357    29.9926 </r>
       <r>   -23.3718    -0.6017    29.8684 </r>
       <r>   -23.1653    15.6171    33.0933 </r>
       <r>   -22.9588    31.4456    39.5869 </r>
       <r>   -22.7523   115.1751    63.3707 </r>
       <r>   -22.5458    53.0969    74.3353 </r>
       <r>   -22.3393    17.4003    77.9285 </r>
       <r>   -22.1328     0.4548    78.0224 </r>
       <r>   -21.9263    -0.1082    78.0000 </r>
       <r>   -21.7198    -0.0002    78.0000 </r>
       <r>   -21.5133    -0.0000    78.0000 </r>
       <r>   -21.3068    -0.0000    78.0000 </r>
       <r>   -21.1003     0.0000    78.0000 </r>
       <r>   -20.8938     0.0000    78.0000 </r>
       <r>   -20.6873     0.0000    78.0000 </r>
       <r>   -20.4808    -0.0000    78.0000 </r>
       <r>   -20.2743    -0.0000    78.0000 </r>
       <r>   -20.0678    -0.0000    78.0000 </r>
       <r>   -19.8613    -0.0000    78.0000 </r>
       <r>   -19.6548    -0.0004    77.9999 </r>
       <r>   -19.4483    -0.1605    77.9668 </r>
       <r>   -19.2418     1.0907    78.1920 </r>
       <r>   -19.0353    19.7760    82.2758 </r>
       <r>   -18.8288    69.4547    96.6183 </r>
       <r>   -18.6223    89.8415   115.1707 </r>
       <r>   -18.4158    23.8991   120.1058 </r>
       <r>   -18.2093    -0.4214   120.0188 </r>
       <r>   -18.0028    -0.0911   120.0000 </r>
       <r>   -17.7963    -0.0001   120.0000 </r>
       <r>   -17.5898    -0.0000   120.0000 </r>
       <r>   -17.3833     0.0000   120.0000 </r>
       <r>   -17.1768     0.0000   120.0000 </r>
       <r>   -16.9703     0.0000   120.0000 </r>
       <r>   -16.7638     0.0000   120.0000 </r>
       <r>   -16.5573     0.0000   120.0000 </r>
       <r>   -16.3508     0.0000   120.0000 </r>
       <r>   -16.1443     0.0000   120.0000 </r>
       <r>   -15.9378     0.0000   120.0000 </r>
       <r>   -15.7313     0.0000   120.0000 </r>
       <r>   -15.5248     0.0000   120.0000 </r>
       <r>   -15.3183     0.0000   120.0000 </r>
       <r>   -15.1118     0.0000   120.0000 </r>
       <r>   -14.9053     0.0000   120.0000 </r>
       <r>   -14.6987     0.0000   120.0000 </r>
       <r>   -14.4922     0.0000   120.0000 </r>
       <r>   -14.2857     0.0000   120.0000 </r>
       <r>   -14.0792     0.0000   120.0000 </r>
       <r>   -13.8727     0.0000   120.0000 </r>
       <r>   -13.6662     0.0000   120.0000 </r>
       <r>   -13.4597     0.0000   120.0000 </r>
       <r>   -13.2532     0.0000   120.0000 </r>
       <r>   -13.0467     0.0000   120.0000 </r>
       <r>   -12.8402     0.0000   120.0000 </r>
       <r>   -12.6337     0.0000   120.0000 </r>
       <r>   -12.4272     0.0000   120.0000 </r>
       <r>   -12.2207     0.0000   120.0000 </r>
       <r>   -12.0142     0.0000   120.0000 </r>
       <r>   -11.8077     0.0000   120.0000 </r>
       <r>   -11.6012     0.0000   120.0000 </r>
       <r>   -11.3947     0.0000   120.0000 </r>
       <r>   -11.1882     0.0000   120.0000 </r>
       <r>   -10.9817     0.0000   120.0000 </r>
       <r>   -10.7752     0.0000   120.0000 </r>
       <r>   -10.5687     0.0000   120.0000 </r>
       <r>   -10.3622     0.0000   120.0000 </r>
       <r>   -10.1557     0.0000   120.0000 </r>
       <r>    -9.9492     0.0000   120.0000 </r>
       <r>    -9.7427     0.0000   120.0000 </r>
       <r>    -9.5362     0.0000   120.0000 </r>
       <r>    -9.3297     0.0000   120.0000 </r>
       <r>    -9.1232     0.0000   120.0000 </r>
       <r>    -8.9167     0.0000   120.0000 </r>
       <r>    -8.7102     0.0000   120.0000 </r>
       <r>    -8.5037     0.0000   120.0000 </r>
       <r>    -8.2972     0.0000   120.0000 </r>
       <r>    -8.0907     0.0000   120.0000 </r>
       <r>    -7.8842     0.0000   120.0000 </r>
       <r>    -7.6777     0.0000   120.0000 </r>
       <r>    -7.4712     0.0000   120.0000 </r>
       <r>    -7.2647     0.0000   120.0000 </r>
       <r>    -7.0582     0.0000   120.0000 </r>
       <r>    -6.8517     0.0000   120.0000 </r>
       <r>    -6.6452     0.0000   120.0000 </r>
       <r>    -6.4387     0.0000   120.0000 </r>
       <r>    -6.2322     0.0000   120.0000 </r>
       <r>    -6.0257     0.0000   120.0000 </r>
       <r>    -5.8192     0.0000   120.0000 </r>
       <r>    -5.6127     0.0000   120.0000 </r>
       <r>    -5.4062     0.0000   120.0000 </r>
       <r>    -5.1997     0.0000   120.0000 </r>
       <r>    -4.9932     0.0000   120.0000 </r>
       <r>    -4.7867     0.0000   120.0000 </r>
       <r>    -4.5802     0.0000   120.0000 </r>
       <r>    -4.3737     0.0000   120.0000 </r>
       <r>    -4.1672     0.0000   120.0000 </r>
       <r>    -3.9607     0.0000   120.0000 </r>
       <r>    -3.7542     0.0000   120.0000 </r>
       <r>    -3.5477     0.0000   120.0000 </r>
       <r>    -3.3412     0.0000   120.0000 </r>
       <r>    -3.1347     0.0000   120.0000 </r>
       <r>    -2.9282     0.0000   120.0000 </r>
       <r>    -2.7217     0.0000   120.0000 </r>
       <r>    -2.5152     0.0000   120.0000 </r>
       <r>    -2.3087     0.0000   120.0000 </r>
       <r>    -2.1022     0.0000   120.0000 </r>
       <r>    -1.8957     0.0000   120.0000 </r>
       <r>    -1.6892     0.0000   120.0000 </r>
       <r>    -1.4827     0.0000   120.0000 </r>
       <r>    -1.2762     0.0000   120.0000 </r>
       <r>    -1.0697     0.0000   120.0000 </r>
       <r>    -0.8632    -0.0000   120.0000 </r>
       <r>    -0.6567    -0.0000   120.0000 </r>
       <r>    -0.4502    -0.0000   120.0000 </r>
       <r>    -0.2437    -0.0000   120.0000 </r>
       <r>    -0.0372    -0.0000   120.0000 </r>
       <r>     0.1693    -0.0008   119.9998 </r>
       <r>     0.3758    -0.0090   119.9980 </r>
       <r>     0.5823     0.2476   120.0491 </r>
       <r>     0.7888     1.0109   120.2579 </r>
       <r>     0.9953     1.5277   120.5733 </r>
       <r>     1.2018     1.7786   120.9406 </r>
       <r>     1.4083     3.3517   121.6328 </r>
       <r>     1.6148     4.4806   122.5580 </r>
       <r>     1.8213     1.8045   122.9306 </r>
       <r>     2.0278     5.2286   124.0104 </r>
       <r>     2.2344     2.6849   124.5648 </r>
       <r>     2.4409     3.6938   125.3276 </r>
       <r>     2.6474     6.9143   126.7554 </r>
       <r>     2.8539     8.4106   128.4922 </r>
       <r>     3.0604     8.2918   130.2045 </r>
       <r>     3.2669     7.9197   131.8399 </r>
       <r>     3.4734     8.5488   133.6052 </r>
       <r>     3.6799    15.0319   136.7093 </r>
       <r>     3.8864    21.2230   141.0919 </r>
       <r>     4.0929    22.2051   145.6773 </r>
       <r>     4.2994    26.6021   151.1706 </r>
       <r>     4.5059    31.5639   157.6886 </r>
       <r>     4.7124    36.0450   165.1320 </r>
       <r>     4.9189    39.3230   173.2522 </r>
       <r>     5.1254    38.7254   181.2490 </r>
       <r>     5.3319    32.9171   188.0465 </r>
       <r>     5.5384    33.5690   194.9785 </r>
       <r>     5.7449    24.1236   199.9601 </r>
       <r>     5.9514    16.7754   203.4242 </r>
       <r>     6.1579    55.2539   214.8342 </r>
       <r>     6.3644    65.2427   228.3069 </r>
       <r>     6.5709    56.8556   240.0477 </r>
       <r>     6.7774    51.9276   250.7708 </r>
       <r>     6.9839    52.5855   261.6297 </r>
       <r>     7.1904    56.0163   273.1972 </r>
       <r>     7.3969    48.0101   283.1113 </r>
       <r>     7.6034    49.6321   293.3604 </r>
       <r>     7.8099    51.4237   303.9795 </r>
       <r>     8.0164    42.8072   312.8192 </r>
       <r>     8.2229    29.4738   318.9056 </r>
       <r>     8.4294    24.8557   324.0383 </r>
       <r>     8.6359    20.3534   328.2413 </r>
       <r>     8.8424    13.8119   331.0935 </r>
       <r>     9.0489    12.6769   333.7113 </r>
       <r>     9.2554    23.0215   338.4653 </r>
       <r>     9.4619    19.4355   342.4787 </r>
       <r>     9.6684     7.7342   344.0758 </r>
       <r>     9.8749    -0.3524   344.0031 </r>
       <r>    10.0814    -0.0149   344.0000 </r>
       <r>    10.2879    -0.0000   344.0000 </r>
       <r>    10.4944    -0.0000   344.0000 </r>
       <r>    10.7009     0.0000   344.0000 </r>
       <r>    10.9074     0.0000   344.0000 </r>
       <r>    11.1139     0.0000   344.0000 </r>
       <r>    11.3204     0.0000   344.0000 </r>
       <r>    11.5269     0.0000   344.0000 </r>
       <r>    11.7334     0.0000   344.0000 </r>
       <r>    11.9399     0.0000   344.0000 </r>
       <r>    12.1464     0.0000   344.0000 </r>
       <r>    12.3529     0.0000   344.0000 </r>
      </set>
     </set>
    </array>
   </total>
  </dos>
 </calculation>
 <structure name="finalpos" >
  <crystal>
   <varray name="basis" >
    <v>       6.88585085      -0.01573137      -0.00630633 </v>
    <v>      -0.02267050      10.12718487      -0.01050286 </v>
    <v>      -0.00927344      -0.01078559      10.23040223 </v>
   </varray>
   <i name="volume">    713.40475567 </i>
   <varray name="rec_basis" >
    <v>       0.14522620       0.00032524       0.00013198 </v>
    <v>       0.00022569       0.09874474       0.00010431 </v>
    <v>       0.00008975       0.00010158       0.09774806 </v>
   </varray>
  </crystal>
  <varray name="positions" >
   <v>       0.22702432       0.83067905       0.16794054 </v>
   <v>       0.48089509       0.34323988       0.66881393 </v>
   <v>       0.52400732       0.99011103      -0.00092620 </v>
   <v>       0.74439360       0.16621153       0.49932480 </v>
   <v>       0.02221967       0.33496593       0.66646931 </v>
   <v>       0.75254566       0.16750225       0.82423681 </v>
   <v>       0.50714131       0.67029805       0.66043792 </v>
   <v>       0.47454137       0.34130572       0.98383325 </v>
   <v>       0.75106383       0.16834428       0.17717984 </v>
   <v>       0.23944688       0.83387186       0.83121116 </v>
   <v>       0.75583525       0.48627449       0.17446417 </v>
   <v>       0.50286628       0.66667751       0.33746398 </v>
   <v>       0.02464751       0.33418139       0.98850894 </v>
   <v>       0.50901626       0.66346241      -0.00080853 </v>
   <v>       0.25461882       0.16539625       0.17656259 </v>
   <v>       0.76156383       0.83204723       0.82536052 </v>
   <v>       0.23745101       0.50568794       0.49359104 </v>
   <v>       0.50291479       0.98903126       0.33918850 </v>
   <v>       0.00234975       0.99576689       0.33868955 </v>
   <v>       0.00516884       0.00267532       0.66184993 </v>
   <v>       0.99026634       0.66504934       0.66110218 </v>
   <v>       0.01959538       0.34104436       0.34736241 </v>
   <v>       0.22564014       0.52937654       0.83231771 </v>
   <v>       0.23947279       0.84354261       0.49866183 </v>
   <v>       0.76524954       0.84429984       0.50023000 </v>
   <v>       0.23567110       0.50244197       0.17534869 </v>
   <v>       0.98144235       0.66315780      -0.00024858 </v>
   <v>       0.76054035       0.49336266       0.49596923 </v>
   <v>       0.77686059       0.83436000       0.17343097 </v>
   <v>       0.97875513       0.99620451      -0.00077944 </v>
   <v>       0.76111367       0.49906067       0.82720466 </v>
   <v>      -0.00462242       0.66593289       0.33968708 </v>
   <v>       0.26107724       0.15739335       0.49585646 </v>
   <v>       0.24662585       0.14090185       0.82759315 </v>
   <v>       0.50008886       0.98999961       0.66228015 </v>
   <v>       0.48251070       0.34615373       0.35059145 </v>
  </varray>
 </structure>
</modeling>
