       N       E                     dE             d eps       ncg     rms          rms(c)
DAV:   1     0.143258711274E+04    0.14326E+04   -0.94598E+04  4880   0.101E+03
DAV:   2    -0.132200386080E+03   -0.15648E+04   -0.15048E+04  5016   0.346E+02
DAV:   3    -0.349535661133E+03   -0.21734E+03   -0.20569E+03  7672   0.964E+01
DAV:   4    -0.375364081413E+03   -0.25828E+02   -0.24523E+02  7616   0.287E+01
DAV:   5    -0.377919995912E+03   -0.25559E+01   -0.24833E+01  7248   0.949E+00    0.657E+01
RMM:   6    -0.367772315815E+03    0.10148E+02   -0.21787E+01  6404   0.928E+00    0.319E+01
RMM:   7    -0.367711237585E+03    0.61078E-01   -0.22967E+01  6674   0.822E+00    0.989E+00
RMM:   8    -0.363478715831E+03    0.42325E+01   -0.51670E+00  7061   0.350E+00    0.393E+00
RMM:   9    -0.363295225864E+03    0.18349E+00   -0.19020E+00  6981   0.184E+00    0.262E+00
RMM:  10    -0.363263625919E+03    0.31600E-01   -0.38655E-01  7038   0.107E+00    0.148E+00
RMM:  11    -0.363233994465E+03    0.29631E-01   -0.13909E-01  6984   0.586E-01    0.665E-01
RMM:  12    -0.363229783154E+03    0.42113E-02   -0.50132E-02  7104   0.346E-01    0.390E-01
RMM:  13    -0.363229139610E+03    0.64354E-03   -0.15414E-02  7093   0.161E-01    0.228E-01
RMM:  14    -0.363229545835E+03   -0.40622E-03   -0.72482E-03  7125   0.104E-01    0.115E-01
RMM:  15    -0.363229717974E+03   -0.17214E-03   -0.31003E-03  7068   0.604E-02    0.440E-02
RMM:  16    -0.363229802240E+03   -0.84266E-04   -0.13935E-03  6081   0.364E-02    0.267E-02
RMM:  17    -0.363229836473E+03   -0.34233E-04   -0.58334E-04  5533   0.243E-02    0.148E-02
RMM:  18    -0.363229854181E+03   -0.17708E-04   -0.26587E-04  5282   0.178E-02    0.827E-03
RMM:  19    -0.363229858085E+03   -0.39043E-05   -0.87799E-05  3865   0.129E-02
   1 F= -.36322986E+03 E0= -.36323588E+03  d E =-.363230E+03
       N       E                     dE             d eps       ncg     rms          rms(c)
DAV:   1    -0.363283789384E+03   -0.53935E-01   -0.21326E+00  5104   0.459E+00    0.142E+00
RMM:   2    -0.363278664435E+03    0.51249E-02   -0.17828E-01  6627   0.108E+00    0.525E-01
RMM:   3    -0.363269935769E+03    0.87287E-02   -0.36251E-02  7007   0.353E-01    0.394E-01
RMM:   4    -0.363266204121E+03    0.37316E-02   -0.94741E-03  7098   0.197E-01    0.220E-01
RMM:   5    -0.363265481226E+03    0.72289E-03   -0.27020E-03  7059   0.110E-01    0.155E-01
RMM:   6    -0.363265541906E+03   -0.60679E-04   -0.12383E-03  7189   0.556E-02    0.101E-01
RMM:   7    -0.363265485625E+03    0.56281E-04   -0.49761E-04  6426   0.420E-02    0.554E-02
RMM:   8    -0.363265499451E+03   -0.13826E-04   -0.33217E-04  6267   0.274E-02    0.346E-02
RMM:   9    -0.363265505445E+03   -0.59938E-05   -0.10884E-04  4896   0.201E-02    0.225E-02
RMM:  10    -0.363265508218E+03   -0.27727E-05   -0.56568E-05  4161   0.151E-02
   2 F= -.36326551E+03 E0= -.36327167E+03  d E =-.356501E-01
       N       E                     dE             d eps       ncg     rms          rms(c)
DAV:   1    -0.363466571202E+03   -0.20107E+00   -0.19149E+01  4672   0.138E+01    0.417E+00
RMM:   2    -0.363423511474E+03    0.43060E-01   -0.15606E+00  6638   0.322E+00    0.158E+00
RMM:   3    -0.363340806286E+03    0.82705E-01   -0.31976E-01  7066   0.105E+00    0.116E+00
RMM:   4    -0.363309114843E+03    0.31691E-01   -0.84229E-02  7109   0.585E-01    0.664E-01
RMM:   5    -0.363302303733E+03    0.68111E-02   -0.23750E-02  7069   0.327E-01    0.463E-01
RMM:   6    -0.363302970917E+03   -0.66718E-03   -0.11134E-02  7340   0.167E-01    0.299E-01
RMM:   7    -0.363302611725E+03    0.35919E-03   -0.45604E-03  7433   0.123E-01    0.163E-01
RMM:   8    -0.363302818377E+03   -0.20665E-03   -0.29253E-03  7501   0.760E-02    0.106E-01
RMM:   9    -0.363302928444E+03   -0.11007E-03   -0.87964E-04  6896   0.519E-02    0.717E-02
RMM:  10    -0.363303031212E+03   -0.10277E-03   -0.52411E-04  6461   0.343E-02    0.416E-02
RMM:  11    -0.363303051057E+03   -0.19845E-04   -0.23489E-04  5540   0.260E-02    0.168E-02
RMM:  12    -0.363303051309E+03   -0.25196E-06   -0.11018E-04  5119   0.180E-02    0.103E-02
RMM:  13    -0.363303049714E+03    0.15945E-05   -0.38417E-05  4203   0.142E-02
   3 F= -.36330305E+03 E0= -.36330956E+03  d E =-.731916E-01
       N       E                     dE             d eps       ncg     rms          rms(c)
DAV:   1    -0.363325433670E+03   -0.22382E-01   -0.18471E+00  4800   0.368E+00    0.568E-01
RMM:   2    -0.363329717869E+03   -0.42842E-02   -0.74904E-02  6605   0.699E-01    0.262E-01
RMM:   3    -0.363327563526E+03    0.21543E-02   -0.95621E-03  6858   0.196E-01    0.189E-01
RMM:   4    -0.363327105255E+03    0.45827E-03   -0.22862E-03  7134   0.808E-02    0.110E-01
RMM:   5    -0.363327027794E+03    0.77461E-04   -0.93791E-04  7119   0.567E-02    0.632E-02
RMM:   6    -0.363327036418E+03   -0.86241E-05   -0.36526E-04  6810   0.306E-02    0.398E-02
RMM:   7    -0.363327039302E+03   -0.28834E-05   -0.13493E-04  5651   0.185E-02    0.255E-02
RMM:   8    -0.363327049360E+03   -0.10059E-04   -0.57733E-05  4069   0.128E-02    0.139E-02
RMM:   9    -0.363327053904E+03   -0.45437E-05   -0.23526E-05  3269   0.111E-02
   4 F= -.36332705E+03 E0= -.36333361E+03  d E =-.240042E-01
       N       E                     dE             d eps       ncg     rms          rms(c)
DAV:   1    -0.363354942328E+03   -0.27893E-01   -0.16632E+01  4648   0.111E+01    0.172E+00
RMM:   2    -0.363393552690E+03   -0.38610E-01   -0.67435E-01  6617   0.211E+00    0.787E-01
RMM:   3    -0.363372904230E+03    0.20648E-01   -0.83499E-02  6859   0.580E-01    0.551E-01
RMM:   4    -0.363369089567E+03    0.38147E-02   -0.20902E-02  7166   0.243E-01    0.317E-01
RMM:   5    -0.363368413616E+03    0.67595E-03   -0.82549E-03  7208   0.165E-01    0.186E-01
RMM:   6    -0.363368488321E+03   -0.74704E-04   -0.31453E-03  7518   0.883E-02    0.121E-01
RMM:   7    -0.363368491792E+03   -0.34711E-05   -0.12164E-03  7346   0.517E-02    0.789E-02
RMM:   8    -0.363368559594E+03   -0.67802E-04   -0.54935E-04  6638   0.330E-02    0.448E-02
RMM:   9    -0.363368583024E+03   -0.23430E-04   -0.23927E-04  6339   0.266E-02    0.245E-02
RMM:  10    -0.363368597434E+03   -0.14410E-04   -0.87669E-05  4998   0.162E-02    0.156E-02
RMM:  11    -0.363368602374E+03   -0.49402E-05   -0.37181E-05  3759   0.127E-02
   5 F= -.36336860E+03 E0= -.36337529E+03  d E =-.655527E-01
       N       E                     dE             d eps       ncg     rms          rms(c)
DAV:   1    -0.363369702254E+03   -0.11048E-02   -0.24757E+00  4576   0.427E+00    0.658E-01
RMM:   2    -0.363375442280E+03   -0.57400E-02   -0.99450E-02  6573   0.814E-01    0.300E-01
RMM:   3    -0.363372708197E+03    0.27341E-02   -0.12453E-02  6797   0.226E-01    0.216E-01
RMM:   4    -0.363372126289E+03    0.58191E-03   -0.30257E-03  7140   0.920E-02    0.125E-01
RMM:   5    -0.363372037250E+03    0.89039E-04   -0.12510E-03  7148   0.638E-02    0.719E-02
RMM:   6    -0.363372052882E+03   -0.15633E-04   -0.48099E-04  7056   0.345E-02    0.459E-02
RMM:   7    -0.363372057158E+03   -0.42759E-05   -0.18249E-04  5857   0.205E-02    0.303E-02
RMM:   8    -0.363372071410E+03   -0.14252E-04   -0.80591E-05  4595   0.151E-02    0.163E-02
RMM:   9    -0.363372077844E+03   -0.64334E-05   -0.36743E-05  3795   0.127E-02
   6 F= -.36337208E+03 E0= -.36337882E+03  d E =-.690281E-01
       N       E                     dE             d eps       ncg     rms          rms(c)
DAV:   1    -0.363384351802E+03   -0.12280E-01   -0.46216E-01  4800   0.214E+00    0.648E-01
RMM:   2    -0.363382736964E+03    0.16148E-02   -0.39617E-02  6668   0.527E-01    0.227E-01
RMM:   3    -0.363381341910E+03    0.13951E-02   -0.70981E-03  7018   0.166E-01    0.169E-01
RMM:   4    -0.363380706187E+03    0.63572E-03   -0.19373E-03  7083   0.882E-02    0.965E-02
RMM:   5    -0.363380588220E+03    0.11797E-03   -0.57940E-04  7042   0.486E-02    0.690E-02
RMM:   6    -0.363380623417E+03   -0.35196E-04   -0.25127E-04  6432   0.261E-02    0.436E-02
RMM:   7    -0.363380634910E+03   -0.11494E-04   -0.10479E-04  5660   0.200E-02    0.245E-02
RMM:   8    -0.363380651168E+03   -0.16258E-04   -0.68067E-05  4232   0.151E-02    0.146E-02
RMM:   9    -0.363380659015E+03   -0.78467E-05   -0.25740E-05  3448   0.119E-02
   7 F= -.36338066E+03 E0= -.36338734E+03  d E =-.858117E-02
       N       E                     dE             d eps       ncg     rms          rms(c)
DAV:   1    -0.363410356415E+03   -0.29705E-01   -0.26467E+00  4592   0.512E+00    0.156E+00
RMM:   2    -0.363401102875E+03    0.92535E-02   -0.22907E-01  6695   0.126E+00    0.547E-01
RMM:   3    -0.363393055239E+03    0.80476E-02   -0.41382E-02  7035   0.398E-01    0.410E-01
RMM:   4    -0.363389320348E+03    0.37349E-02   -0.11370E-02  7109   0.212E-01    0.234E-01
RMM:   5    -0.363388623153E+03    0.69720E-03   -0.34134E-03  7084   0.116E-01    0.168E-01
RMM:   6    -0.363388779466E+03   -0.15631E-03   -0.15029E-03  7246   0.623E-02    0.105E-01
RMM:   7    -0.363388803555E+03   -0.24089E-04   -0.62370E-04  6718   0.459E-02    0.585E-02
RMM:   8    -0.363388870728E+03   -0.67173E-04   -0.40178E-04  6410   0.300E-02    0.370E-02
RMM:   9    -0.363388897409E+03   -0.26681E-04   -0.12786E-04  5484   0.220E-02    0.257E-02
RMM:  10    -0.363388926499E+03   -0.29090E-04   -0.69369E-05  4370   0.158E-02    0.132E-02
RMM:  11    -0.363388938271E+03   -0.11772E-04   -0.27899E-05  3589   0.133E-02    0.521E-03
RMM:  12    -0.363388940928E+03   -0.26568E-05   -0.16642E-05  3299   0.120E-02
   8 F= -.36338894E+03 E0= -.36339547E+03  d E =-.168631E-01
       N       E                     dE             d eps       ncg     rms          rms(c)
DAV:   1    -0.363396597658E+03   -0.76594E-02   -0.54769E-01  4560   0.220E+00    0.480E-01
RMM:   2    -0.363397198386E+03   -0.60073E-03   -0.32394E-02  6778   0.476E-01    0.203E-01
RMM:   3    -0.363396169216E+03    0.10292E-02   -0.48935E-03  6913   0.132E-01    0.144E-01
RMM:   4    -0.363395757571E+03    0.41164E-03   -0.13816E-03  7053   0.693E-02    0.793E-02
RMM:   5    -0.363395674523E+03    0.83048E-04   -0.49441E-04  7084   0.418E-02    0.527E-02
RMM:   6    -0.363395668236E+03    0.62872E-05   -0.19768E-04  6342   0.229E-02    0.336E-02
RMM:   7    -0.363395657158E+03    0.11078E-04   -0.81447E-05  5094   0.161E-02    0.201E-02
RMM:   8    -0.363395653842E+03    0.33162E-05   -0.42930E-05  3731   0.134E-02
   9 F= -.36339565E+03 E0= -.36340214E+03  d E =-.671291E-02
       N       E                     dE             d eps       ncg     rms          rms(c)
DAV:   1    -0.363406793586E+03   -0.11136E-01   -0.30859E+00  4480   0.522E+00    0.112E+00
RMM:   2    -0.363410386635E+03   -0.35930E-02   -0.17993E-01  6730   0.112E+00    0.472E-01
RMM:   3    -0.363404570568E+03    0.58161E-02   -0.26345E-02  6911   0.309E-01    0.335E-01
RMM:   4    -0.363402360566E+03    0.22100E-02   -0.72614E-03  7021   0.159E-01    0.185E-01
RMM:   5    -0.363401924178E+03    0.43639E-03   -0.26651E-03  7115   0.955E-02    0.124E-01
RMM:   6    -0.363401927119E+03   -0.29404E-05   -0.10814E-03  7220   0.531E-02    0.801E-02
RMM:   7    -0.363401897182E+03    0.29937E-04   -0.47961E-04  6647   0.344E-02    0.479E-02
RMM:   8    -0.363401903063E+03   -0.58813E-05   -0.23313E-04  5897   0.245E-02    0.274E-02
RMM:   9    -0.363401906081E+03   -0.30176E-05   -0.10591E-04  4934   0.194E-02    0.185E-02
RMM:  10    -0.363401906758E+03   -0.67738E-06   -0.50235E-05  4240   0.147E-02
  10 F= -.36340191E+03 E0= -.36340828E+03  d E =-.129658E-01
       N       E                     dE             d eps       ncg     rms          rms(c)
DAV:   1    -0.363405024126E+03   -0.31180E-02   -0.28143E-01  4704   0.144E+00    0.107E-01
RMM:   2    -0.363405672716E+03   -0.64859E-03   -0.77136E-03  6713   0.243E-01    0.700E-02
RMM:   3    -0.363405484862E+03    0.18785E-03   -0.95292E-04  6703   0.675E-02    0.436E-02
RMM:   4    -0.363405478811E+03    0.60504E-05   -0.26682E-04  6515   0.225E-02    0.289E-02
RMM:   5    -0.363405473660E+03    0.51511E-05   -0.97279E-05  5551   0.151E-02
  11 F= -.36340547E+03 E0= -.36341181E+03  d E =-.356690E-02
       N       E                     dE             d eps       ncg     rms          rms(c)
DAV:   1    -0.363410416930E+03   -0.49381E-02   -0.25303E+00  4480   0.433E+00    0.320E-01
RMM:   2    -0.363416334355E+03   -0.59174E-02   -0.69657E-02  6707   0.729E-01    0.210E-01
RMM:   3    -0.363414612107E+03    0.17222E-02   -0.85070E-03  6808   0.201E-01    0.130E-01
RMM:   4    -0.363414564074E+03    0.48033E-04   -0.23412E-03  7613   0.668E-02    0.865E-02
RMM:   5    -0.363414527252E+03    0.36822E-04   -0.87580E-04  7141   0.474E-02    0.439E-02
RMM:   6    -0.363414525957E+03    0.12941E-05   -0.33479E-04  6621   0.290E-02    0.188E-02
RMM:   7    -0.363414526051E+03   -0.93136E-07   -0.95316E-05  4530   0.149E-02
  12 F= -.36341453E+03 E0= -.36342078E+03  d E =-.126193E-01
       N       E                     dE             d eps       ncg     rms          rms(c)
DAV:   1    -0.363408143810E+03    0.63821E-02   -0.10123E+01  4480   0.866E+00    0.641E-01
RMM:   2    -0.363432045623E+03   -0.23902E-01   -0.28161E-01  6701   0.147E+00    0.420E-01
RMM:   3    -0.363425072772E+03    0.69729E-02   -0.33881E-02  6822   0.405E-01    0.258E-01
RMM:   4    -0.363424893073E+03    0.17970E-03   -0.92978E-03  7604   0.134E-01    0.174E-01
RMM:   5    -0.363424737437E+03    0.15564E-03   -0.34175E-03  7475   0.944E-02    0.910E-02
RMM:   6    -0.363424729862E+03    0.75748E-05   -0.13363E-03  7512   0.589E-02    0.380E-02
RMM:   7    -0.363424740387E+03   -0.10525E-04   -0.49342E-04  6455   0.282E-02    0.232E-02
RMM:   8    -0.363424752924E+03   -0.12537E-04   -0.21214E-04  5284   0.209E-02    0.156E-02
RMM:   9    -0.363424758365E+03   -0.54417E-05   -0.90321E-05  4542   0.153E-02
  13 F= -.36342476E+03 E0= -.36343091E+03  d E =-.228516E-01
       N       E                     dE             d eps       ncg     rms          rms(c)
DAV:   1    -0.363422918223E+03    0.18347E-02   -0.16901E+00  4496   0.354E+00    0.257E-01
RMM:   2    -0.363426880599E+03   -0.39624E-02   -0.46791E-02  6712   0.596E-01    0.170E-01
RMM:   3    -0.363425765555E+03    0.11150E-02   -0.57401E-03  6810   0.164E-01    0.105E-01
RMM:   4    -0.363425739601E+03    0.25954E-04   -0.15982E-03  7607   0.551E-02    0.699E-02
RMM:   5    -0.363425715704E+03    0.23898E-04   -0.60256E-04  7024   0.392E-02    0.357E-02
RMM:   6    -0.363425716195E+03   -0.49116E-06   -0.23237E-04  6332   0.241E-02    0.154E-02
RMM:   7    -0.363425715961E+03    0.23372E-06   -0.59150E-05  4036   0.134E-02
  14 F= -.36342572E+03 E0= -.36343183E+03  d E =-.238092E-01
       N       E                     dE             d eps       ncg     rms          rms(c)
DAV:   1    -0.363428562421E+03   -0.28462E-02   -0.12362E+00  4480   0.307E+00    0.300E-01
RMM:   2    -0.363430168513E+03   -0.16061E-02   -0.36983E-02  6820   0.568E-01    0.157E-01
RMM:   3    -0.363429933373E+03    0.23514E-03   -0.57001E-03  6815   0.144E-01    0.108E-01
RMM:   4    -0.363429822226E+03    0.11115E-03   -0.17394E-03  7182   0.678E-02    0.597E-02
RMM:   5    -0.363429808585E+03    0.13641E-04   -0.62493E-04  6751   0.377E-02    0.314E-02
RMM:   6    -0.363429810889E+03   -0.23039E-05   -0.24679E-04  5708   0.228E-02    0.185E-02
RMM:   7    -0.363429813644E+03   -0.27550E-05   -0.81546E-05  4545   0.149E-02
  15 F= -.36342981E+03 E0= -.36343564E+03  d E =-.409768E-02
       N       E                     dE             d eps       ncg     rms          rms(c)
DAV:   1    -0.363430487891E+03   -0.67700E-03   -0.72397E-01  4560   0.235E+00    0.229E-01
RMM:   2    -0.363431464155E+03   -0.97626E-03   -0.21943E-02  6855   0.435E-01    0.121E-01
RMM:   3    -0.363431342713E+03    0.12144E-03   -0.34893E-03  6804   0.111E-01    0.827E-02
RMM:   4    -0.363431286702E+03    0.56010E-04   -0.10920E-03  7211   0.529E-02    0.460E-02
RMM:   5    -0.363431280206E+03    0.64964E-05   -0.37589E-04  6165   0.296E-02    0.239E-02
RMM:   6    -0.363431283676E+03   -0.34697E-05   -0.15725E-04  4983   0.190E-02    0.138E-02
RMM:   7    -0.363431286443E+03   -0.27668E-05   -0.59283E-05  4180   0.137E-02
  16 F= -.36343129E+03 E0= -.36343691E+03  d E =-.557048E-02
       N       E                     dE             d eps       ncg     rms          rms(c)
DAV:   1    -0.363431286631E+03   -0.29555E-05   -0.16189E-01  4704   0.111E+00    0.108E-01
RMM:   2    -0.363431515441E+03   -0.22881E-03   -0.50061E-03  6862   0.206E-01    0.573E-02
RMM:   3    -0.363431491268E+03    0.24172E-04   -0.80797E-04  6618   0.532E-02    0.393E-02
RMM:   4    -0.363431483444E+03    0.78240E-05   -0.28152E-04  6149   0.261E-02    0.215E-02
RMM:   5    -0.363431483094E+03    0.35016E-06   -0.89972E-05  4274   0.144E-02
  17 F= -.36343148E+03 E0= -.36343701E+03  d E =-.576713E-02
       N       E                     dE             d eps       ncg     rms          rms(c)
DAV:   1    -0.363438477704E+03   -0.69943E-02   -0.20364E+00  4704   0.431E+00    0.939E-01
RMM:   2    -0.363439500443E+03   -0.10227E-02   -0.12209E-01  6638   0.919E-01    0.388E-01
RMM:   3    -0.363435492335E+03    0.40081E-02   -0.19099E-02  6951   0.270E-01    0.268E-01
RMM:   4    -0.363434081602E+03    0.14107E-02   -0.55223E-03  7106   0.136E-01    0.149E-01
RMM:   5    -0.363433737117E+03    0.34448E-03   -0.17949E-03  7067   0.845E-02    0.997E-02
RMM:   6    -0.363433757221E+03   -0.20104E-04   -0.75219E-04  7102   0.438E-02    0.645E-02
RMM:   7    -0.363433735331E+03    0.21890E-04   -0.28026E-04  6329   0.297E-02    0.387E-02
RMM:   8    -0.363433738436E+03   -0.31049E-05   -0.15419E-04  5567   0.202E-02    0.233E-02
RMM:   9    -0.363433738596E+03   -0.16011E-06   -0.67477E-05  4423   0.164E-02
  18 F= -.36343374E+03 E0= -.36343905E+03  d E =-.225550E-02
       N       E                     dE             d eps       ncg     rms          rms(c)
DAV:   1    -0.363433779429E+03   -0.40993E-04   -0.75704E-03  5056   0.262E-01    0.612E-02
RMM:   2    -0.363433778014E+03    0.14152E-05   -0.50652E-04  6835   0.587E-02    0.271E-02
RMM:   3    -0.363433761420E+03    0.16594E-04   -0.78915E-05  5257   0.179E-02    0.203E-02
RMM:   4    -0.363433754087E+03    0.73335E-05   -0.23748E-05  2911   0.132E-02
  19 F= -.36343375E+03 E0= -.36343908E+03  d E =-.227099E-02
       N       E                     dE             d eps       ncg     rms          rms(c)
DAV:   1    -0.363434679562E+03   -0.91814E-03   -0.29966E-01  4512   0.157E+00    0.174E-01
RMM:   2    -0.363435323063E+03   -0.64350E-03   -0.10462E-02  6728   0.296E-01    0.793E-02
RMM:   3    -0.363435241842E+03    0.81221E-04   -0.12464E-03  6888   0.713E-02    0.595E-02
RMM:   4    -0.363435204687E+03    0.37155E-04   -0.29263E-04  6632   0.278E-02    0.388E-02
RMM:   5    -0.363435200056E+03    0.46307E-05   -0.12409E-04  6230   0.195E-02    0.223E-02
RMM:   6    -0.363435198704E+03    0.13520E-05   -0.44904E-05  3865   0.132E-02
  20 F= -.36343520E+03 E0= -.36344044E+03  d E =-.144462E-02
       N       E                     dE             d eps       ncg     rms          rms(c)
DAV:   1    -0.363432686235E+03    0.25138E-02   -0.26990E+00  4480   0.471E+00    0.527E-01
RMM:   2    -0.363438518633E+03   -0.58324E-02   -0.94590E-02  6770   0.888E-01    0.240E-01
RMM:   3    -0.363437810535E+03    0.70810E-03   -0.11597E-02  6893   0.212E-01    0.177E-01
RMM:   4    -0.363437488709E+03    0.32183E-03   -0.27856E-03  7203   0.850E-02    0.113E-01
RMM:   5    -0.363437440018E+03    0.48691E-04   -0.11812E-03  7150   0.587E-02    0.655E-02
RMM:   6    -0.363437417765E+03    0.22253E-04   -0.46638E-04  7041   0.381E-02    0.363E-02
RMM:   7    -0.363437431128E+03   -0.13364E-04   -0.13152E-04  5099   0.188E-02    0.200E-02
RMM:   8    -0.363437442571E+03   -0.11443E-04   -0.88976E-05  4412   0.162E-02    0.117E-02
RMM:   9    -0.363437447191E+03   -0.46204E-05   -0.34701E-05  3649   0.134E-02
  21 F= -.36343745E+03 E0= -.36344244E+03  d E =-.369310E-02
       N       E                     dE             d eps       ncg     rms          rms(c)
DAV:   1    -0.363437376696E+03    0.65875E-04   -0.65236E-02  4704   0.732E-01    0.817E-02
RMM:   2    -0.363437526050E+03   -0.14935E-03   -0.23129E-03  6670   0.139E-01    0.364E-02
RMM:   3    -0.363437516973E+03    0.90774E-05   -0.32409E-04  6450   0.350E-02    0.268E-02
RMM:   4    -0.363437512349E+03    0.46234E-05   -0.84419E-05  4721   0.148E-02
  22 F= -.36343751E+03 E0= -.36344246E+03  d E =-.375826E-02
       N       E                     dE             d eps       ncg     rms          rms(c)
DAV:   1    -0.363438237121E+03   -0.72015E-03   -0.40103E-02  4800   0.619E-01    0.152E-01
RMM:   2    -0.363438179363E+03    0.57759E-04   -0.25905E-03  6782   0.138E-01    0.593E-02
RMM:   3    -0.363438089046E+03    0.90317E-04   -0.45950E-04  6866   0.418E-02    0.440E-02
RMM:   4    -0.363438052302E+03    0.36744E-04   -0.13375E-04  6564   0.225E-02    0.257E-02
RMM:   5    -0.363438045755E+03    0.65470E-05   -0.36181E-05  3513   0.139E-02
  23 F= -.36343805E+03 E0= -.36344296E+03  d E =-.533406E-03
       N       E                     dE             d eps       ncg     rms          rms(c)
DAV:   1    -0.363439753186E+03   -0.17009E-02   -0.25284E-01  4592   0.156E+00    0.385E-01
RMM:   2    -0.363439393097E+03    0.36009E-03   -0.16482E-02  6830   0.346E-01    0.148E-01
RMM:   3    -0.363438809303E+03    0.58379E-03   -0.29707E-03  6950   0.105E-01    0.111E-01
RMM:   4    -0.363438570562E+03    0.23874E-03   -0.86830E-04  7099   0.563E-02    0.644E-02
RMM:   5    -0.363438523119E+03    0.47444E-04   -0.29189E-04  7016   0.331E-02    0.451E-02
RMM:   6    -0.363438541914E+03   -0.18796E-04   -0.11941E-04  5534   0.183E-02    0.284E-02
RMM:   7    -0.363438549170E+03   -0.72558E-05   -0.54165E-05  4034   0.143E-02
  24 F= -.36343855E+03 E0= -.36344337E+03  d E =-.103682E-02
       N       E                     dE             d eps       ncg     rms          rms(c)
DAV:   1    -0.363438936701E+03   -0.39479E-03   -0.23328E-02  4816   0.456E-01    0.936E-02
RMM:   2    -0.363438973018E+03   -0.36317E-04   -0.13138E-03  6945   0.972E-02    0.419E-02
RMM:   3    -0.363438945111E+03    0.27907E-04   -0.22543E-04  6218   0.282E-02    0.302E-02
RMM:   4    -0.363438930290E+03    0.14821E-04   -0.71266E-05  5424   0.172E-02    0.167E-02
RMM:   5    -0.363438925680E+03    0.46094E-05   -0.20130E-05  2765   0.108E-02
  25 F= -.36343893E+03 E0= -.36344373E+03  d E =-.376510E-03
       N       E                     dE             d eps       ncg     rms          rms(c)
DAV:   1    -0.363439714771E+03   -0.78448E-03   -0.20879E-01  4480   0.137E+00    0.262E-01
RMM:   2    -0.363439973747E+03   -0.25898E-03   -0.10905E-02  6894   0.281E-01    0.113E-01
RMM:   3    -0.363439683735E+03    0.29001E-03   -0.15339E-03  6915   0.750E-02    0.780E-02
RMM:   4    -0.363439566647E+03    0.11709E-03   -0.43790E-04  6926   0.393E-02    0.443E-02
RMM:   5    -0.363439539460E+03    0.27187E-04   -0.16925E-04  6669   0.233E-02    0.296E-02
RMM:   6    -0.363439533750E+03    0.57107E-05   -0.55229E-05  4192   0.136E-02
  26 F= -.36343953E+03 E0= -.36344427E+03  d E =-.984579E-03
       N       E                     dE             d eps       ncg     rms          rms(c)
DAV:   1    -0.363439620344E+03   -0.80884E-04   -0.43076E-02  4512   0.623E-01    0.117E-01
RMM:   2    -0.363439675111E+03   -0.54767E-04   -0.22550E-03  6887   0.128E-01    0.511E-02
RMM:   3    -0.363439613297E+03    0.61814E-04   -0.32978E-04  6658   0.346E-02    0.350E-02
RMM:   4    -0.363439590890E+03    0.22406E-04   -0.10199E-04  6027   0.190E-02    0.203E-02
RMM:   5    -0.363439584461E+03    0.64294E-05   -0.34196E-05  3318   0.117E-02
  27 F= -.36343958E+03 E0= -.36344428E+03  d E =-.103529E-02
       N       E                     dE             d eps       ncg     rms          rms(c)
DAV:   1    -0.363439838058E+03   -0.24717E-03   -0.14652E-02  4688   0.341E-01    0.417E-02
RMM:   2    -0.363439858670E+03   -0.20612E-04   -0.51882E-04  6546   0.653E-02    0.219E-02
RMM:   3    -0.363439847659E+03    0.11012E-04   -0.73251E-05  4712   0.176E-02    0.165E-02
RMM:   4    -0.363439843546E+03    0.41127E-05   -0.22088E-05  3185   0.111E-02
  28 F= -.36343984E+03 E0= -.36344453E+03  d E =-.259085E-03
       N       E                     dE             d eps       ncg     rms          rms(c)
DAV:   1    -0.363440387972E+03   -0.54031E-03   -0.13156E-01  4480   0.102E+00    0.128E-01
RMM:   2    -0.363440551316E+03   -0.16334E-03   -0.45957E-03  6906   0.194E-01    0.657E-02
RMM:   3    -0.363440491696E+03    0.59620E-04   -0.71499E-04  6833   0.483E-02    0.453E-02
RMM:   4    -0.363440467401E+03    0.24295E-04   -0.21693E-04  6391   0.245E-02    0.276E-02
RMM:   5    -0.363440458912E+03    0.84885E-05   -0.81726E-05  4899   0.152E-02
  29 F= -.36344046E+03 E0= -.36344510E+03  d E =-.874451E-03
       N       E                     dE             d eps       ncg     rms          rms(c)
DAV:   1    -0.363440644246E+03   -0.17685E-03   -0.52657E-01  4480   0.204E+00    0.256E-01
RMM:   2    -0.363441308195E+03   -0.66395E-03   -0.18400E-02  6918   0.389E-01    0.132E-01
RMM:   3    -0.363441051621E+03    0.25657E-03   -0.28228E-03  6922   0.963E-02    0.907E-02
RMM:   4    -0.363440959185E+03    0.92436E-04   -0.84630E-04  7191   0.487E-02    0.553E-02
RMM:   5    -0.363440931483E+03    0.27702E-04   -0.34514E-04  6896   0.309E-02    0.290E-02
RMM:   6    -0.363440925228E+03    0.62550E-05   -0.11752E-04  4821   0.177E-02    0.182E-02
RMM:   7    -0.363440924769E+03    0.45899E-06   -0.60288E-05  4041   0.142E-02
  30 F= -.36344092E+03 E0= -.36344546E+03  d E =-.134031E-02
       N       E                     dE             d eps       ncg     rms          rms(c)
DAV:   1    -0.363441287069E+03   -0.36184E-03   -0.23597E-02  4928   0.461E-01    0.119E-01
RMM:   2    -0.363441264042E+03    0.23028E-04   -0.15105E-03  6916   0.998E-02    0.491E-02
RMM:   3    -0.363441210833E+03    0.53208E-04   -0.32252E-04  6607   0.310E-02    0.353E-02
RMM:   4    -0.363441187062E+03    0.23772E-04   -0.10071E-04  6271   0.200E-02    0.197E-02
RMM:   5    -0.363441183057E+03    0.40051E-05   -0.30248E-05  3072   0.122E-02
  31 F= -.36344118E+03 E0= -.36344568E+03  d E =-.258287E-03
       N       E                     dE             d eps       ncg     rms          rms(c)
DAV:   1    -0.363442451857E+03   -0.12648E-02   -0.21104E-01  4704   0.138E+00    0.346E-01
RMM:   2    -0.363442169692E+03    0.28216E-03   -0.12465E-02  6852   0.293E-01    0.137E-01
RMM:   3    -0.363441730150E+03    0.43954E-03   -0.23832E-03  7027   0.883E-02    0.988E-02
RMM:   4    -0.363441528812E+03    0.20134E-03   -0.73965E-04  7084   0.530E-02    0.549E-02
RMM:   5    -0.363441498774E+03    0.30038E-04   -0.24791E-04  6886   0.303E-02    0.390E-02
RMM:   6    -0.363441515548E+03   -0.16774E-04   -0.90193E-05  5008   0.162E-02    0.245E-02
RMM:   7    -0.363441522897E+03   -0.73486E-05   -0.38994E-05  3578   0.131E-02
  32 F= -.36344152E+03 E0= -.36344591E+03  d E =-.598128E-03
       N       E                     dE             d eps       ncg     rms          rms(c)
DAV:   1    -0.363441733518E+03   -0.21797E-03   -0.18852E-02  4704   0.375E-01    0.293E-02
RMM:   2    -0.363441776451E+03   -0.42932E-04   -0.52524E-04  6497   0.660E-02    0.163E-02
RMM:   3    -0.363441775493E+03    0.95732E-06   -0.65850E-05  4389   0.191E-02
  33 F= -.36344178E+03 E0= -.36344611E+03  d E =-.252596E-03
       N       E                     dE             d eps       ncg     rms          rms(c)
DAV:   1    -0.363442024215E+03   -0.24776E-03   -0.16945E-01  4480   0.113E+00    0.819E-02
RMM:   2    -0.363442369185E+03   -0.34497E-03   -0.45455E-03  6595   0.191E-01    0.437E-02
RMM:   3    -0.363442364904E+03    0.42812E-05   -0.67227E-04  6511   0.514E-02    0.316E-02
RMM:   4    -0.363442367010E+03   -0.21060E-05   -0.17425E-04  5913   0.194E-02    0.204E-02
RMM:   5    -0.363442365126E+03    0.18839E-05   -0.46007E-05  3759   0.110E-02
  34 F= -.36344237E+03 E0= -.36344656E+03  d E =-.842229E-03
       N       E                     dE             d eps       ncg     rms          rms(c)
DAV:   1    -0.363441597116E+03    0.76989E-03   -0.67679E-01  4480   0.225E+00    0.158E-01
RMM:   2    -0.363442962011E+03   -0.13649E-02   -0.17686E-02  6489   0.382E-01    0.817E-02
RMM:   3    -0.363442941132E+03    0.20878E-04   -0.25180E-03  6765   0.103E-01    0.615E-02
RMM:   4    -0.363442932366E+03    0.87662E-05   -0.58434E-04  7237   0.351E-02    0.414E-02
RMM:   5    -0.363442926353E+03    0.60132E-05   -0.19810E-04  6177   0.216E-02    0.205E-02
RMM:   6    -0.363442924754E+03    0.15991E-05   -0.76470E-05  4815   0.154E-02
  35 F= -.36344292E+03 E0= -.36344683E+03  d E =-.140186E-02
       N       E                     dE             d eps       ncg     rms          rms(c)
DAV:   1    -0.363443717589E+03   -0.79124E-03   -0.13744E-01  4704   0.109E+00    0.250E-01
RMM:   2    -0.363443680985E+03    0.36604E-04   -0.76768E-03  6744   0.228E-01    0.100E-01
RMM:   3    -0.363443440622E+03    0.24036E-03   -0.12910E-03  6945   0.674E-02    0.701E-02
RMM:   4    -0.363443340272E+03    0.10035E-03   -0.40303E-04  6972   0.378E-02    0.387E-02
RMM:   5    -0.363443316144E+03    0.24128E-04   -0.13120E-04  6268   0.225E-02    0.265E-02
RMM:   6    -0.363443312992E+03    0.31522E-05   -0.45913E-05  3647   0.124E-02
  36 F= -.36344331E+03 E0= -.36344712E+03  d E =-.388238E-03
       N       E                     dE             d eps       ncg     rms          rms(c)
DAV:   1    -0.363443629725E+03   -0.31358E-03   -0.85604E-02  4720   0.862E-01    0.194E-01
RMM:   2    -0.363443615637E+03    0.14088E-04   -0.47560E-03  6723   0.180E-01    0.788E-02
RMM:   3    -0.363443450779E+03    0.16486E-03   -0.79240E-04  6908   0.538E-02    0.552E-02
RMM:   4    -0.363443389492E+03    0.61287E-04   -0.25286E-04  6792   0.299E-02    0.314E-02
RMM:   5    -0.363443374456E+03    0.15036E-04   -0.83208E-05  5517   0.183E-02    0.221E-02
RMM:   6    -0.363443371751E+03    0.27055E-05   -0.28226E-05  3158   0.114E-02
  37 F= -.36344337E+03 E0= -.36344709E+03  d E =-.446997E-03
       N       E                     dE             d eps       ncg     rms          rms(c)
DAV:   1    -0.363443529659E+03   -0.15520E-03   -0.32163E-02  4688   0.477E-01    0.429E-02
RMM:   2    -0.363443586232E+03   -0.56573E-04   -0.83851E-04  6686   0.829E-02    0.228E-02
RMM:   3    -0.363443582629E+03    0.36026E-05   -0.12841E-04  4906   0.230E-02    0.179E-02
RMM:   4    -0.363443580678E+03    0.19515E-05   -0.47504E-05  3928   0.124E-02
  38 F= -.36344358E+03 E0= -.36344724E+03  d E =-.208927E-03
       N       E                     dE             d eps       ncg     rms          rms(c)
DAV:   1    -0.363443642804E+03   -0.60175E-04   -0.28897E-01  4480   0.143E+00    0.119E-01
RMM:   2    -0.363444147554E+03   -0.50475E-03   -0.71527E-03  6618   0.244E-01    0.593E-02
RMM:   3    -0.363444138761E+03    0.87937E-05   -0.11357E-03  6731   0.635E-02    0.447E-02
RMM:   4    -0.363444128141E+03    0.10620E-04   -0.27214E-04  6470   0.249E-02    0.283E-02
RMM:   5    -0.363444125437E+03    0.27033E-05   -0.96178E-05  5284   0.146E-02
  39 F= -.36344413E+03 E0= -.36344761E+03  d E =-.753687E-03
       N       E                     dE             d eps       ncg     rms          rms(c)
DAV:   1    -0.363442861907E+03    0.12662E-02   -0.11556E+00  4480   0.286E+00    0.236E-01
RMM:   2    -0.363444855647E+03   -0.19937E-02   -0.28381E-02  6550   0.485E-01    0.116E-01
RMM:   3    -0.363444792867E+03    0.62780E-04   -0.43763E-03  6846   0.127E-01    0.872E-02
RMM:   4    -0.363444752112E+03    0.40755E-04   -0.10024E-03  7486   0.484E-02    0.550E-02
RMM:   5    -0.363444745999E+03    0.61133E-05   -0.38799E-04  6628   0.296E-02    0.302E-02
RMM:   6    -0.363444741115E+03    0.48833E-05   -0.14730E-04  6142   0.200E-02    0.138E-02
RMM:   7    -0.363444742729E+03   -0.16132E-05   -0.30094E-05  3532   0.115E-02
  40 F= -.36344474E+03 E0= -.36344787E+03  d E =-.137098E-02
       N       E                     dE             d eps       ncg     rms          rms(c)
DAV:   1    -0.363446096470E+03   -0.13554E-02   -0.63423E-02  4936   0.838E-01    0.308E-01
RMM:   2    -0.363445591502E+03    0.50497E-03   -0.64798E-03  6927   0.212E-01    0.109E-01
RMM:   3    -0.363445261444E+03    0.33006E-03   -0.15592E-03  7020   0.693E-02    0.802E-02
RMM:   4    -0.363445110228E+03    0.15122E-03   -0.43775E-04  6911   0.440E-02    0.438E-02
RMM:   5    -0.363445085690E+03    0.24538E-04   -0.12980E-04  6146   0.243E-02    0.308E-02
RMM:   6    -0.363445099351E+03   -0.13661E-04   -0.53681E-05  3875   0.144E-02    0.204E-02
RMM:   7    -0.363445104999E+03   -0.56478E-05   -0.17033E-05  2864   0.122E-02
  41 F= -.36344510E+03 E0= -.36344817E+03  d E =-.362270E-03
       N       E                     dE             d eps       ncg     rms          rms(c)
DAV:   1    -0.363445281634E+03   -0.18228E-03   -0.10389E-02  5000   0.341E-01    0.123E-01
RMM:   2    -0.363445196381E+03    0.85253E-04   -0.10192E-03  6765   0.858E-02    0.421E-02
RMM:   3    -0.363445145862E+03    0.50518E-04   -0.23195E-04  6165   0.272E-02    0.304E-02
RMM:   4    -0.363445125801E+03    0.20062E-04   -0.62291E-05  4100   0.180E-02    0.179E-02
RMM:   5    -0.363445124670E+03    0.11309E-05   -0.15206E-05  2573   0.133E-02
  42 F= -.36344512E+03 E0= -.36344816E+03  d E =-.381941E-03
       N       E                     dE             d eps       ncg     rms          rms(c)
DAV:   1    -0.363445317261E+03   -0.19146E-03   -0.29438E-02  4576   0.466E-01    0.541E-02
RMM:   2    -0.363445377637E+03   -0.60376E-04   -0.87065E-04  6700   0.845E-02    0.289E-02
RMM:   3    -0.363445369180E+03    0.84579E-05   -0.13504E-04  5249   0.232E-02    0.221E-02
RMM:   4    -0.363445366458E+03    0.27219E-05   -0.35603E-05  3479   0.123E-02
  43 F= -.36344537E+03 E0= -.36344837E+03  d E =-.241788E-03
       N       E                     dE             d eps       ncg     rms          rms(c)
DAV:   1    -0.363445307630E+03    0.61549E-04   -0.22683E-01  4480   0.129E+00    0.142E-01
RMM:   2    -0.363445722219E+03   -0.41459E-03   -0.64319E-03  6806   0.233E-01    0.733E-02
RMM:   3    -0.363445682024E+03    0.40195E-04   -0.10217E-03  6839   0.591E-02    0.543E-02
RMM:   4    -0.363445657840E+03    0.24184E-04   -0.25216E-04  6553   0.243E-02    0.351E-02
RMM:   5    -0.363445654262E+03    0.35781E-05   -0.10453E-04  6000   0.159E-02    0.182E-02
RMM:   6    -0.363445648911E+03    0.53514E-05   -0.32913E-05  3399   0.110E-02
  44 F= -.36344565E+03 E0= -.36344857E+03  d E =-.524241E-03
       N       E                     dE             d eps       ncg     rms          rms(c)
DAV:   1    -0.363446335555E+03   -0.68129E-03   -0.50300E-02  4736   0.700E-01    0.220E-01
RMM:   2    -0.363446150624E+03    0.18493E-03   -0.40132E-03  6863   0.164E-01    0.828E-02
RMM:   3    -0.363445946280E+03    0.20434E-03   -0.87270E-04  6949   0.535E-02    0.599E-02
RMM:   4    -0.363445860685E+03    0.85595E-04   -0.26498E-04  6725   0.323E-02    0.325E-02
RMM:   5    -0.363445840574E+03    0.20110E-04   -0.77213E-05  5250   0.195E-02    0.223E-02
RMM:   6    -0.363445837810E+03    0.27647E-05   -0.28459E-05  3111   0.121E-02
  45 F= -.36344584E+03 E0= -.36344873E+03  d E =-.188899E-03
       N       E                     dE             d eps       ncg     rms          rms(c)
DAV:   1    -0.363445893952E+03   -0.53377E-04   -0.57960E-03  4928   0.240E-01    0.712E-02
RMM:   2    -0.363445874614E+03    0.19338E-04   -0.44425E-04  6694   0.555E-02    0.264E-02
RMM:   3    -0.363445850449E+03    0.24165E-04   -0.88217E-05  5637   0.183E-02    0.195E-02
RMM:   4    -0.363445840092E+03    0.10356E-04   -0.23527E-05  2818   0.128E-02    0.128E-02
RMM:   5    -0.363445837875E+03    0.22175E-05   -0.98045E-06  2531   0.107E-02
  46 F= -.36344584E+03 E0= -.36344872E+03  d E =-.188964E-03
       N       E                     dE             d eps       ncg     rms          rms(c)
DAV:   1    -0.363445999462E+03   -0.15937E-03   -0.21639E-02  4512   0.385E-01    0.569E-02
RMM:   2    -0.363446027308E+03   -0.27846E-04   -0.67237E-04  6757   0.731E-02    0.298E-02
RMM:   3    -0.363446016323E+03    0.10985E-04   -0.12986E-04  5313   0.194E-02    0.216E-02
RMM:   4    -0.363446010441E+03    0.58828E-05   -0.32832E-05  3457   0.128E-02
  47 F= -.36344601E+03 E0= -.36344886E+03  d E =-.172566E-03
       N       E                     dE             d eps       ncg     rms          rms(c)
DAV:   1    -0.363446180489E+03   -0.16417E-03   -0.19406E-01  4480   0.115E+00    0.162E-01
RMM:   2    -0.363446418928E+03   -0.23844E-03   -0.56198E-03  6889   0.213E-01    0.826E-02
RMM:   3    -0.363446338886E+03    0.80043E-04   -0.10468E-03  6898   0.518E-02    0.593E-02
RMM:   4    -0.363446298528E+03    0.40358E-04   -0.27730E-04  6559   0.289E-02    0.352E-02
RMM:   5    -0.363446293736E+03    0.47923E-05   -0.11865E-04  6201   0.184E-02    0.193E-02
RMM:   6    -0.363446292424E+03    0.13112E-05   -0.36134E-05  3440   0.111E-02
  48 F= -.36344629E+03 E0= -.36344906E+03  d E =-.454550E-03
       N       E                     dE             d eps       ncg     rms          rms(c)
DAV:   1    -0.363446299764E+03   -0.60281E-05   -0.96266E-03  4704   0.256E-01    0.361E-02
RMM:   2    -0.363446314626E+03   -0.14863E-04   -0.31125E-04  6531   0.479E-02    0.189E-02
RMM:   3    -0.363446309398E+03    0.52285E-05   -0.58208E-05  4032   0.135E-02
  49 F= -.36344631E+03 E0= -.36344906E+03  d E =-.471523E-03
       N       E                     dE             d eps       ncg     rms          rms(c)
DAV:   1    -0.363446619466E+03   -0.30484E-03   -0.31559E-02  4752   0.530E-01    0.147E-01
RMM:   2    -0.363446531583E+03    0.87883E-04   -0.20847E-03  6831   0.116E-01    0.560E-02
RMM:   3    -0.363446455039E+03    0.76544E-04   -0.42398E-04  6718   0.365E-02    0.405E-02
RMM:   4    -0.363446425810E+03    0.29229E-04   -0.12885E-04  6319   0.228E-02    0.234E-02
RMM:   5    -0.363446420540E+03    0.52706E-05   -0.35098E-05  3343   0.143E-02
  50 F= -.36344642E+03 E0= -.36344912E+03  d E =-.111142E-03
       N       E                     dE             d eps       ncg     rms          rms(c)
DAV:   1    -0.363446507290E+03   -0.81479E-04   -0.12733E-02  4848   0.339E-01    0.885E-02
RMM:   2    -0.363446482852E+03    0.24438E-04   -0.82254E-04  6745   0.735E-02    0.344E-02
RMM:   3    -0.363446451143E+03    0.31709E-04   -0.15426E-04  6117   0.232E-02    0.253E-02
RMM:   4    -0.363446442445E+03    0.86983E-05   -0.44265E-05  3554   0.152E-02
  51 F= -.36344644E+03 E0= -.36344911E+03  d E =-.133047E-03
       N       E                     dE             d eps       ncg     rms          rms(c)
DAV:   1    -0.363446569570E+03   -0.11843E-03   -0.18520E-02  4568   0.373E-01    0.586E-02
RMM:   2    -0.363446608338E+03   -0.38767E-04   -0.69234E-04  6723   0.731E-02    0.292E-02
RMM:   3    -0.363446603234E+03    0.51038E-05   -0.11449E-04  5124   0.206E-02    0.209E-02
RMM:   4    -0.363446599281E+03    0.39522E-05   -0.33453E-05  3446   0.131E-02
  52 F= -.36344660E+03 E0= -.36344924E+03  d E =-.156837E-03
       N       E                     dE             d eps       ncg     rms          rms(c)
DAV:   1    -0.363446676808E+03   -0.73575E-04   -0.16534E-01  4480   0.111E+00    0.155E-01
RMM:   2    -0.363446965631E+03   -0.28882E-03   -0.58026E-03  6890   0.211E-01    0.770E-02
RMM:   3    -0.363446900840E+03    0.64791E-04   -0.85136E-04  6900   0.514E-02    0.554E-02
RMM:   4    -0.363446858233E+03    0.42607E-04   -0.23222E-04  6620   0.270E-02    0.329E-02
RMM:   5    -0.363446849343E+03    0.88903E-05   -0.95324E-05  5981   0.173E-02
  53 F= -.36344685E+03 E0= -.36344942E+03  d E =-.406898E-03
       N       E                     dE             d eps       ncg     rms          rms(c)
DAV:   1    -0.363446842688E+03    0.15545E-04   -0.17378E-02  4592   0.362E-01    0.489E-02
RMM:   2    -0.363446876329E+03   -0.33641E-04   -0.63652E-04  6655   0.686E-02    0.262E-02
RMM:   3    -0.363446864677E+03    0.11652E-04   -0.98929E-05  4976   0.186E-02    0.199E-02
RMM:   4    -0.363446860730E+03    0.39475E-05   -0.34441E-05  3546   0.121E-02
  54 F= -.36344686E+03 E0= -.36344940E+03  d E =-.418285E-03
       N       E                     dE             d eps       ncg     rms          rms(c)
DAV:   1    -0.363446963744E+03   -0.99067E-04   -0.32082E-02  4496   0.500E-01    0.779E-02
RMM:   2    -0.363447017253E+03   -0.53509E-04   -0.13082E-03  6795   0.973E-02    0.367E-02
RMM:   3    -0.363446991181E+03    0.26072E-04   -0.18530E-04  6237   0.253E-02    0.264E-02
RMM:   4    -0.363446979184E+03    0.11996E-04   -0.46309E-05  3888   0.147E-02    0.163E-02
RMM:   5    -0.363446975516E+03    0.36683E-05   -0.17909E-05  2771   0.116E-02
  55 F= -.36344698E+03 E0= -.36344948E+03  d E =-.114786E-03
       N       E                     dE             d eps       ncg     rms          rms(c)
DAV:   1    -0.363447049676E+03   -0.70492E-04   -0.12745E-01  4480   0.999E-01    0.158E-01
RMM:   2    -0.363447252640E+03   -0.20296E-03   -0.52182E-03  6778   0.193E-01    0.726E-02
RMM:   3    -0.363447143573E+03    0.10907E-03   -0.69744E-04  6858   0.487E-02    0.515E-02
RMM:   4    -0.363447102586E+03    0.40987E-04   -0.20073E-04  6452   0.252E-02    0.312E-02
RMM:   5    -0.363447091438E+03    0.11148E-04   -0.79967E-05  5295   0.168E-02    0.195E-02
RMM:   6    -0.363447087251E+03    0.41871E-05   -0.24696E-05  2988   0.108E-02
  56 F= -.36344709E+03 E0= -.36344953E+03  d E =-.226521E-03
       N       E                     dE             d eps       ncg     rms          rms(c)
DAV:   1    -0.363447146012E+03   -0.54574E-04   -0.57256E-03  4832   0.205E-01    0.294E-02
RMM:   2    -0.363447156466E+03   -0.10455E-04   -0.21065E-04  6414   0.403E-02    0.145E-02
RMM:   3    -0.363447153478E+03    0.29888E-05   -0.24726E-05  3424   0.118E-02
  57 F= -.36344715E+03 E0= -.36344958E+03  d E =-.662267E-04
       N       E                     dE             d eps       ncg     rms          rms(c)
DAV:   1    -0.363447267543E+03   -0.11108E-03   -0.51189E-02  4480   0.612E-01    0.753E-02
RMM:   2    -0.363447359846E+03   -0.92303E-04   -0.16763E-03  6807   0.114E-01    0.378E-02
RMM:   3    -0.363447348638E+03    0.11208E-04   -0.26376E-04  6139   0.280E-02    0.280E-02
RMM:   4    -0.363447342517E+03    0.61206E-05   -0.58340E-05  4318   0.155E-02
  58 F= -.36344734E+03 E0= -.36344973E+03  d E =-.255266E-03
       N       E                     dE             d eps       ncg     rms          rms(c)
DAV:   1    -0.363447306912E+03    0.41726E-04   -0.20384E-01  4480   0.122E+00    0.145E-01
RMM:   2    -0.363447679985E+03   -0.37307E-03   -0.63474E-03  6783   0.225E-01    0.721E-02
RMM:   3    -0.363447637353E+03    0.42632E-04   -0.93390E-04  6856   0.545E-02    0.537E-02
RMM:   4    -0.363447612310E+03    0.25043E-04   -0.23284E-04  6237   0.258E-02    0.354E-02
RMM:   5    -0.363447609170E+03    0.31398E-05   -0.98248E-05  5914   0.168E-02
  59 F= -.36344761E+03 E0= -.36344991E+03  d E =-.521919E-03
       N       E                     dE             d eps       ncg     rms          rms(c)
DAV:   1    -0.363446539296E+03    0.10730E-02   -0.81619E-01  4480   0.245E+00    0.291E-01
RMM:   2    -0.363448035963E+03   -0.14967E-02   -0.25429E-02  6735   0.449E-01    0.140E-01
RMM:   3    -0.363447802797E+03    0.23317E-03   -0.34993E-03  6893   0.108E-01    0.104E-01
RMM:   4    -0.363447718060E+03    0.84737E-04   -0.88662E-04  7046   0.505E-02    0.670E-02
RMM:   5    -0.363447701491E+03    0.16570E-04   -0.36660E-04  7016   0.321E-02    0.389E-02
RMM:   6    -0.363447696358E+03    0.51323E-05   -0.14542E-04  6305   0.202E-02    0.226E-02
RMM:   7    -0.363447701634E+03   -0.52756E-05   -0.44216E-05  3779   0.122E-02
  60 F= -.36344770E+03 E0= -.36344985E+03  d E =-.614383E-03
       N       E                     dE             d eps       ncg     rms          rms(c)
DAV:   1    -0.363447593968E+03    0.10239E-03   -0.12212E-01  4480   0.949E-01    0.114E-01
RMM:   2    -0.363447824495E+03   -0.23053E-03   -0.37774E-03  6601   0.175E-01    0.525E-02
RMM:   3    -0.363447779649E+03    0.44847E-04   -0.47089E-04  6821   0.445E-02    0.405E-02
RMM:   4    -0.363447760074E+03    0.19575E-04   -0.10154E-04  5544   0.190E-02    0.262E-02
RMM:   5    -0.363447753405E+03    0.66687E-05   -0.37923E-05  3550   0.124E-02
  61 F= -.36344775E+03 E0= -.36344996E+03  d E =-.666154E-03
       N       E                     dE             d eps       ncg     rms          rms(c)
DAV:   1    -0.363447751609E+03    0.84643E-05   -0.74225E-02  4528   0.731E-01    0.443E-02
RMM:   2    -0.363447896328E+03   -0.14472E-03   -0.18487E-03  5772   0.121E-01    0.229E-02
RMM:   3    -0.363447882974E+03    0.13355E-04   -0.19360E-04  5706   0.357E-02    0.176E-02
RMM:   4    -0.363447881418E+03    0.15554E-05   -0.48169E-05  3896   0.115E-02
  62 F= -.36344788E+03 E0= -.36345004E+03  d E =-.128013E-03
       N       E                     dE             d eps       ncg     rms          rms(c)
DAV:   1    -0.363446964033E+03    0.91894E-03   -0.66775E-01  4480   0.219E+00    0.140E-01
RMM:   2    -0.363448295437E+03   -0.13314E-02   -0.17120E-02  6297   0.364E-01    0.772E-02
RMM:   3    -0.363448250257E+03    0.45180E-04   -0.23354E-03  6748   0.101E-01    0.576E-02
RMM:   4    -0.363448247086E+03    0.31712E-05   -0.51580E-04  7112   0.341E-02    0.365E-02
RMM:   5    -0.363448244232E+03    0.28540E-05   -0.16898E-04  5926   0.201E-02    0.180E-02
RMM:   6    -0.363448243076E+03    0.11563E-05   -0.64799E-05  4324   0.139E-02
  63 F= -.36344824E+03 E0= -.36345028E+03  d E =-.489671E-03
       N       E                     dE             d eps       ncg     rms          rms(c)
DAV:   1    -0.363443650000E+03    0.45942E-02   -0.26719E+00  4480   0.438E+00    0.276E-01
RMM:   2    -0.363448977061E+03   -0.53271E-02   -0.68418E-02  6275   0.727E-01    0.151E-01
RMM:   3    -0.363448768728E+03    0.20833E-03   -0.89853E-03  6771   0.202E-01    0.113E-01
RMM:   4    -0.363448757082E+03    0.11646E-04   -0.19767E-03  7553   0.661E-02    0.716E-02
RMM:   5    -0.363448756328E+03    0.75390E-06   -0.67334E-04  7045   0.405E-02    0.352E-02
RMM:   6    -0.363448750649E+03    0.56798E-05   -0.26336E-04  6323   0.235E-02    0.165E-02
RMM:   7    -0.363448751847E+03   -0.11980E-05   -0.72138E-05  4193   0.148E-02
  64 F= -.36344875E+03 E0= -.36345063E+03  d E =-.998442E-03
       N       E                     dE             d eps       ncg     rms          rms(c)
DAV:   1    -0.363449319425E+03   -0.56878E-03   -0.12396E-01  4752   0.103E+00    0.225E-01
RMM:   2    -0.363449330677E+03   -0.11251E-04   -0.63984E-03  6911   0.213E-01    0.926E-02
RMM:   3    -0.363449175149E+03    0.15553E-03   -0.11034E-03  6985   0.597E-02    0.665E-02
RMM:   4    -0.363449082787E+03    0.92362E-04   -0.35131E-04  6989   0.351E-02    0.350E-02
RMM:   5    -0.363449065016E+03    0.17770E-04   -0.12854E-04  6392   0.204E-02    0.241E-02
RMM:   6    -0.363449060966E+03    0.40505E-05   -0.31691E-05  3280   0.111E-02
  65 F= -.36344906E+03 E0= -.36345093E+03  d E =-.309119E-03
       N       E                     dE             d eps       ncg     rms          rms(c)
DAV:   1    -0.363449077915E+03   -0.12899E-04   -0.76439E-03  4832   0.255E-01    0.535E-02
RMM:   2    -0.363449080532E+03   -0.26164E-05   -0.40450E-04  6879   0.523E-02    0.230E-02
RMM:   3    -0.363449068283E+03    0.12249E-04   -0.74061E-05  5657   0.151E-02    0.166E-02
RMM:   4    -0.363449062183E+03    0.61002E-05   -0.21096E-05  2926   0.110E-02
  66 F= -.36344906E+03 E0= -.36345092E+03  d E =-.310336E-03
       N       E                     dE             d eps       ncg     rms          rms(c)
DAV:   1    -0.363449628028E+03   -0.55974E-03   -0.12257E-01  4528   0.104E+00    0.236E-01
RMM:   2    -0.363449583529E+03    0.44499E-04   -0.70670E-03  6905   0.219E-01    0.102E-01
RMM:   3    -0.363449327296E+03    0.25623E-03   -0.12762E-03  6985   0.631E-02    0.728E-02
RMM:   4    -0.363449230028E+03    0.97268E-04   -0.36973E-04  6834   0.353E-02    0.427E-02
RMM:   5    -0.363449202145E+03    0.27883E-04   -0.12788E-04  6571   0.213E-02    0.277E-02
RMM:   6    -0.363449205618E+03   -0.34732E-05   -0.39266E-05  3463   0.118E-02
  67 F= -.36344921E+03 E0= -.36345102E+03  d E =-.143435E-03
       N       E                     dE             d eps       ncg     rms          rms(c)
DAV:   1    -0.363449225204E+03   -0.23059E-04   -0.24207E-03  4960   0.146E-01    0.366E-02
RMM:   2    -0.363449229713E+03   -0.45092E-05   -0.15663E-04  6561   0.320E-02    0.165E-02
RMM:   3    -0.363449223245E+03    0.64687E-05   -0.23347E-05  3132   0.105E-02
  68 F= -.36344922E+03 E0= -.36345105E+03  d E =-.161062E-03
       N       E                     dE             d eps       ncg     rms          rms(c)
DAV:   1    -0.363449229630E+03    0.83011E-07   -0.11660E-03  4672   0.996E-02    0.257E-02
RMM:   2    -0.363449227101E+03    0.25297E-05   -0.84055E-05  6278   0.232E-02
  69 F= -.36344923E+03 E0= -.36345106E+03  d E =-.164918E-03
       N       E                     dE             d eps       ncg     rms          rms(c)
DAV:   1    -0.363449222097E+03    0.75337E-05   -0.38537E-04  4880   0.581E-02    0.120E-02
RMM:   2    -0.363449221556E+03    0.54073E-06   -0.14668E-05  2447   0.118E-02
  70 F= -.36344922E+03 E0= -.36345105E+03  d E =-.159373E-03
       N       E                     dE             d eps       ncg     rms          rms(c)
DAV:   1    -0.363449323020E+03   -0.10092E-03   -0.12746E-02  4560   0.318E-01    0.734E-02
RMM:   2    -0.363449317346E+03    0.56741E-05   -0.62623E-04  6905   0.656E-02    0.309E-02
RMM:   3    -0.363449300039E+03    0.17307E-04   -0.11835E-04  6125   0.190E-02    0.222E-02
RMM:   4    -0.363449289711E+03    0.10328E-04   -0.27774E-05  3200   0.136E-02    0.122E-02
RMM:   5    -0.363449288311E+03    0.14005E-05   -0.89091E-06  2513   0.977E-03
  71 F= -.36344929E+03 E0= -.36345112E+03  d E =-.667548E-04
