       N       E                     dE             d eps       ncg     rms          rms(c)
DAV:   1     0.169296805852E+04    0.16930E+04   -0.10558E+05  5368   0.104E+03
DAV:   2    -0.115393289726E+03   -0.18084E+04   -0.17422E+04  5496   0.375E+02
DAV:   3    -0.354827140509E+03   -0.23943E+03   -0.22729E+03  8216   0.952E+01
DAV:   4    -0.382724228592E+03   -0.27897E+02   -0.26507E+02  8160   0.294E+01
DAV:   5    -0.385454386499E+03   -0.27302E+01   -0.26731E+01  7712   0.967E+00    0.650E+01
RMM:   6    -0.374997983314E+03    0.10456E+02   -0.26477E+01  6914   0.100E+01    0.314E+01
RMM:   7    -0.377412523126E+03   -0.24145E+01   -0.28738E+01  7305   0.857E+00    0.132E+01
RMM:   8    -0.370128079200E+03    0.72844E+01   -0.84966E+00  7123   0.398E+00    0.398E+00
RMM:   9    -0.369940486617E+03    0.18759E+00   -0.24764E+00  7444   0.212E+00    0.278E+00
RMM:  10    -0.369868954717E+03    0.71532E-01   -0.42567E-01  7423   0.114E+00    0.147E+00
RMM:  11    -0.369845894568E+03    0.23060E-01   -0.13280E-01  7380   0.572E-01    0.783E-01
RMM:  12    -0.369842724982E+03    0.31696E-02   -0.54207E-02  7486   0.354E-01    0.410E-01
RMM:  13    -0.369841031418E+03    0.16936E-02   -0.17058E-02  7471   0.196E-01    0.225E-01
RMM:  14    -0.369841323877E+03   -0.29246E-03   -0.79569E-03  7665   0.106E-01    0.127E-01
RMM:  15    -0.369841457364E+03   -0.13349E-03   -0.34888E-03  7470   0.688E-02    0.594E-02
RMM:  16    -0.369841507137E+03   -0.49773E-04   -0.13641E-03  6625   0.351E-02    0.337E-02
RMM:  17    -0.369841533589E+03   -0.26452E-04   -0.59081E-04  6178   0.253E-02    0.191E-02
RMM:  18    -0.369841550416E+03   -0.16827E-04   -0.25953E-04  5586   0.179E-02    0.111E-02
RMM:  19    -0.369841555458E+03   -0.50419E-05   -0.11221E-04  4206   0.130E-02    0.662E-03
RMM:  20    -0.369841556067E+03   -0.60888E-06   -0.44528E-05  3776   0.110E-02
   1 F= -.36984156E+03 E0= -.36984472E+03  d E =-.369842E+03
       N       E                     dE             d eps       ncg     rms          rms(c)
DAV:   1    -0.369920012534E+03   -0.78457E-01   -0.28541E+00  5840   0.565E+00    0.189E+00
RMM:   2    -0.369902131056E+03    0.17881E-01   -0.31483E-01  7179   0.149E+00    0.710E-01
RMM:   3    -0.369889351150E+03    0.12780E-01   -0.62744E-02  7465   0.429E-01    0.508E-01
RMM:   4    -0.369881468786E+03    0.78824E-02   -0.16430E-02  7523   0.267E-01    0.253E-01
RMM:   5    -0.369880673134E+03    0.79565E-03   -0.48789E-03  7413   0.145E-01    0.182E-01
RMM:   6    -0.369880771054E+03   -0.97920E-04   -0.22969E-03  7620   0.780E-02    0.124E-01
RMM:   7    -0.369880890141E+03   -0.11909E-03   -0.86114E-04  7238   0.540E-02    0.653E-02
RMM:   8    -0.369880989129E+03   -0.98988E-04   -0.46383E-04  6785   0.306E-02    0.494E-02
RMM:   9    -0.369881045732E+03   -0.56603E-04   -0.16498E-04  5463   0.231E-02    0.346E-02
RMM:  10    -0.369881091270E+03   -0.45539E-04   -0.98891E-05  5044   0.175E-02    0.206E-02
RMM:  11    -0.369881118209E+03   -0.26939E-04   -0.55278E-05  4339   0.157E-02    0.658E-03
RMM:  12    -0.369881125855E+03   -0.76460E-05   -0.30017E-05  3816   0.139E-02
   2 F= -.36988113E+03 E0= -.36988415E+03  d E =-.395698E-01
       N       E                     dE             d eps       ncg     rms          rms(c)
DAV:   1    -0.370053900975E+03   -0.17278E+00   -0.10433E+01  5616   0.108E+01    0.367E+00
RMM:   2    -0.369985999463E+03    0.67902E-01   -0.11386E+00  7140   0.285E+00    0.135E+00
RMM:   3    -0.369940931888E+03    0.45068E-01   -0.22919E-01  7467   0.816E-01    0.976E-01
RMM:   4    -0.369911505950E+03    0.29426E-01   -0.60061E-02  7513   0.510E-01    0.485E-01
RMM:   5    -0.369908682899E+03    0.28231E-02   -0.18187E-02  7448   0.277E-01    0.352E-01
RMM:   6    -0.369908986224E+03   -0.30333E-03   -0.81603E-03  7658   0.148E-01    0.238E-01
RMM:   7    -0.369909368841E+03   -0.38262E-03   -0.31813E-03  7934   0.103E-01    0.127E-01
RMM:   8    -0.369909695814E+03   -0.32697E-03   -0.16893E-03  7809   0.571E-02    0.970E-02
RMM:   9    -0.369909887342E+03   -0.19153E-03   -0.63949E-04  6880   0.409E-02    0.667E-02
RMM:  10    -0.369910019329E+03   -0.13199E-03   -0.34368E-04  6222   0.285E-02    0.421E-02
RMM:  11    -0.369910099305E+03   -0.79976E-04   -0.20254E-04  6369   0.257E-02    0.140E-02
RMM:  12    -0.369910121646E+03   -0.22341E-04   -0.10443E-04  5107   0.183E-02    0.764E-03
RMM:  13    -0.369910124163E+03   -0.25175E-05   -0.38512E-05  3958   0.143E-02
   3 F= -.36991012E+03 E0= -.36991286E+03  d E =-.685681E-01
       N       E                     dE             d eps       ncg     rms          rms(c)
DAV:   1    -0.369934988847E+03   -0.24867E-01   -0.27591E+00  5008   0.457E+00    0.600E-01
RMM:   2    -0.369943764039E+03   -0.87752E-02   -0.12549E-01  6721   0.920E-01    0.291E-01
RMM:   3    -0.369941679782E+03    0.20843E-02   -0.14146E-02  7174   0.273E-01    0.232E-01
RMM:   4    -0.369940977849E+03    0.70193E-03   -0.28131E-03  7577   0.875E-02    0.143E-01
RMM:   5    -0.369940889981E+03    0.87868E-04   -0.12324E-03  7462   0.616E-02    0.821E-02
RMM:   6    -0.369940855627E+03    0.34354E-04   -0.54202E-04  7474   0.410E-02    0.461E-02
RMM:   7    -0.369940833089E+03    0.22538E-04   -0.19728E-04  6792   0.224E-02    0.279E-02
RMM:   8    -0.369940830984E+03    0.21050E-05   -0.61642E-05  4709   0.131E-02
   4 F= -.36994083E+03 E0= -.36994362E+03  d E =-.307068E-01
       N       E                     dE             d eps       ncg     rms          rms(c)
DAV:   1    -0.369932665149E+03    0.81679E-02   -0.24848E+01  4816   0.138E+01    0.180E+00
RMM:   2    -0.370012472276E+03   -0.79807E-01   -0.11473E+00  6560   0.278E+00    0.828E-01
RMM:   3    -0.369998358611E+03    0.14114E-01   -0.13215E-01  7172   0.853E-01    0.711E-01
RMM:   4    -0.369991641790E+03    0.67168E-02   -0.25694E-02  7599   0.266E-01    0.437E-01
RMM:   5    -0.369990939327E+03    0.70246E-03   -0.11064E-02  7487   0.185E-01    0.255E-01
RMM:   6    -0.369990709702E+03    0.22962E-03   -0.49367E-03  7591   0.126E-01    0.142E-01
RMM:   7    -0.369990547942E+03    0.16176E-03   -0.18783E-03  7957   0.672E-02    0.871E-02
RMM:   8    -0.369990571905E+03   -0.23963E-04   -0.69544E-04  7336   0.342E-02    0.592E-02
RMM:   9    -0.369990579220E+03   -0.73147E-05   -0.30093E-04  6546   0.265E-02    0.357E-02
RMM:  10    -0.369990575977E+03    0.32430E-05   -0.11679E-04  5664   0.176E-02    0.153E-02
RMM:  11    -0.369990574974E+03    0.10025E-05   -0.58010E-05  4564   0.140E-02
   5 F= -.36999057E+03 E0= -.36999348E+03  d E =-.804508E-01
       N       E                     dE             d eps       ncg     rms          rms(c)
DAV:   1    -0.369988951268E+03    0.16247E-02   -0.21370E+00  4976   0.406E+00    0.526E-01
RMM:   2    -0.369995566424E+03   -0.66152E-02   -0.96202E-02  6683   0.801E-01    0.248E-01
RMM:   3    -0.369994042261E+03    0.15242E-02   -0.10711E-02  7164   0.233E-01    0.201E-01
RMM:   4    -0.369993492981E+03    0.54928E-03   -0.21925E-03  7636   0.772E-02    0.122E-01
RMM:   5    -0.369993435039E+03    0.57942E-04   -0.96074E-04  7544   0.536E-02    0.699E-02
RMM:   6    -0.369993415985E+03    0.19054E-04   -0.41679E-04  7364   0.354E-02    0.416E-02
RMM:   7    -0.369993399802E+03    0.16183E-04   -0.15851E-04  6502   0.197E-02    0.255E-02
RMM:   8    -0.369993398007E+03    0.17949E-05   -0.51414E-05  4410   0.128E-02
   6 F= -.36999340E+03 E0= -.36999634E+03  d E =-.832738E-01
       N       E                     dE             d eps       ncg     rms          rms(c)
DAV:   1    -0.370000951462E+03   -0.75517E-02   -0.47556E-01  5072   0.205E+00    0.409E-01
RMM:   2    -0.370001076059E+03   -0.12460E-03   -0.26534E-02  7089   0.434E-01    0.172E-01
RMM:   3    -0.370000520794E+03    0.55526E-03   -0.38615E-03  7337   0.131E-01    0.126E-01
RMM:   4    -0.370000121031E+03    0.39976E-03   -0.10355E-03  7349   0.585E-02    0.651E-02
RMM:   5    -0.370000062291E+03    0.58741E-04   -0.38952E-04  7529   0.362E-02    0.410E-02
RMM:   6    -0.370000057337E+03    0.49535E-05   -0.16144E-04  6449   0.203E-02    0.293E-02
RMM:   7    -0.370000049234E+03    0.81033E-05   -0.63016E-05  4762   0.145E-02
   7 F= -.37000005E+03 E0= -.37000310E+03  d E =-.665123E-02
       N       E                     dE             d eps       ncg     rms          rms(c)
DAV:   1    -0.370018002753E+03   -0.17945E-01   -0.42769E+00  4816   0.613E+00    0.122E+00
RMM:   2    -0.370019084007E+03   -0.10813E-02   -0.23905E-01  7099   0.130E+00    0.516E-01
RMM:   3    -0.370014114129E+03    0.49699E-02   -0.35468E-02  7443   0.392E-01    0.383E-01
RMM:   4    -0.370010566213E+03    0.35479E-02   -0.95316E-03  7357   0.177E-01    0.200E-01
RMM:   5    -0.370010040990E+03    0.52522E-03   -0.35928E-03  7544   0.110E-01    0.126E-01
RMM:   6    -0.370010041383E+03   -0.39260E-06   -0.15594E-03  7766   0.616E-02    0.884E-02
RMM:   7    -0.370010011489E+03    0.29893E-04   -0.66723E-04  7187   0.405E-02    0.487E-02
RMM:   8    -0.370010018452E+03   -0.69623E-05   -0.27790E-04  6211   0.260E-02    0.328E-02
RMM:   9    -0.370010025392E+03   -0.69401E-05   -0.13815E-04  5468   0.204E-02    0.225E-02
RMM:  10    -0.370010027310E+03   -0.19187E-05   -0.63726E-05  4893   0.149E-02
   8 F= -.37001003E+03 E0= -.37001337E+03  d E =-.166293E-01
       N       E                     dE             d eps       ncg     rms          rms(c)
DAV:   1    -0.370017853796E+03   -0.78284E-02   -0.45359E-01  5120   0.210E+00    0.555E-01
RMM:   2    -0.370017324714E+03    0.52908E-03   -0.35017E-02  7149   0.501E-01    0.229E-01
RMM:   3    -0.370015874790E+03    0.14499E-02   -0.63082E-03  7421   0.154E-01    0.167E-01
RMM:   4    -0.370015178010E+03    0.69678E-03   -0.16403E-03  7497   0.794E-02    0.849E-02
RMM:   5    -0.370015099763E+03    0.78247E-04   -0.54585E-04  7541   0.465E-02    0.578E-02
RMM:   6    -0.370015109612E+03   -0.98490E-05   -0.23188E-04  6873   0.249E-02    0.388E-02
RMM:   7    -0.370015119877E+03   -0.10265E-04   -0.92667E-05  5813   0.173E-02    0.207E-02
RMM:   8    -0.370015130789E+03   -0.10911E-04   -0.52431E-05  4076   0.134E-02    0.133E-02
RMM:   9    -0.370015138423E+03   -0.76348E-05   -0.27005E-05  3653   0.112E-02
   9 F= -.37001514E+03 E0= -.37001850E+03  d E =-.511111E-02
       N       E                     dE             d eps       ncg     rms          rms(c)
DAV:   1    -0.370036466205E+03   -0.21335E-01   -0.28441E+00  4936   0.525E+00    0.139E+00
RMM:   2    -0.370032736836E+03    0.37294E-02   -0.21462E-01  6994   0.125E+00    0.558E-01
RMM:   3    -0.370024185028E+03    0.85518E-02   -0.37628E-02  7392   0.386E-01    0.404E-01
RMM:   4    -0.370019892010E+03    0.42930E-02   -0.98210E-03  7507   0.195E-01    0.204E-01
RMM:   5    -0.370019468782E+03    0.42323E-03   -0.32005E-03  7546   0.113E-01    0.143E-01
RMM:   6    -0.370019525293E+03   -0.56511E-04   -0.14114E-03  7660   0.604E-02    0.977E-02
RMM:   7    -0.370019578393E+03   -0.53100E-04   -0.57605E-04  7021   0.421E-02    0.524E-02
RMM:   8    -0.370019635004E+03   -0.56611E-04   -0.33247E-04  6493   0.274E-02    0.375E-02
RMM:   9    -0.370019668943E+03   -0.33939E-04   -0.13335E-04  5236   0.213E-02    0.267E-02
RMM:  10    -0.370019697159E+03   -0.28216E-04   -0.67676E-05  4728   0.155E-02    0.144E-02
RMM:  11    -0.370019711748E+03   -0.14589E-04   -0.33085E-05  3947   0.137E-02    0.608E-03
RMM:  12    -0.370019715900E+03   -0.41516E-05   -0.17551E-05  3473   0.131E-02
  10 F= -.37001972E+03 E0= -.37002312E+03  d E =-.968859E-02
       N       E                     dE             d eps       ncg     rms          rms(c)
DAV:   1    -0.370020050454E+03   -0.33871E-03   -0.39019E-02  5248   0.615E-01    0.163E-01
RMM:   2    -0.370020016999E+03    0.33455E-04   -0.30254E-03  7091   0.148E-01    0.673E-02
RMM:   3    -0.370019894366E+03    0.12263E-03   -0.54359E-04  7196   0.458E-02    0.500E-02
RMM:   4    -0.370019828097E+03    0.66269E-04   -0.13403E-04  6581   0.237E-02    0.263E-02
RMM:   5    -0.370019815857E+03    0.12240E-04   -0.36279E-05  3377   0.152E-02    0.188E-02
RMM:   6    -0.370019811705E+03    0.41522E-05   -0.15255E-05  2751   0.106E-02
  11 F= -.37001981E+03 E0= -.37002321E+03  d E =-.978439E-02
       N       E                     dE             d eps       ncg     rms          rms(c)
DAV:   1    -0.370021481950E+03   -0.16661E-02   -0.35442E-01  4872   0.163E+00    0.139E-01
RMM:   2    -0.370022642764E+03   -0.11608E-02   -0.12720E-02  6200   0.311E-01    0.843E-02
RMM:   3    -0.370022318637E+03    0.32413E-03   -0.13781E-03  7115   0.891E-02    0.590E-02
RMM:   4    -0.370022296463E+03    0.22174E-04   -0.28685E-04  6882   0.247E-02    0.380E-02
RMM:   5    -0.370022290364E+03    0.60990E-05   -0.10003E-04  6327   0.169E-02    0.203E-02
RMM:   6    -0.370022285668E+03    0.46960E-05   -0.40608E-05  4012   0.123E-02
  12 F= -.37002229E+03 E0= -.37002574E+03  d E =-.247396E-02
       N       E                     dE             d eps       ncg     rms          rms(c)
DAV:   1    -0.370020258865E+03    0.20315E-02   -0.31890E+00  4816   0.490E+00    0.430E-01
RMM:   2    -0.370030705799E+03   -0.10447E-01   -0.11562E-01  6297   0.933E-01    0.252E-01
RMM:   3    -0.370028163407E+03    0.25424E-02   -0.13349E-02  7290   0.265E-01    0.189E-01
RMM:   4    -0.370027968659E+03    0.19475E-03   -0.27514E-03  8005   0.745E-02    0.123E-01
RMM:   5    -0.370027929866E+03    0.38793E-04   -0.99033E-04  7467   0.556E-02    0.655E-02
RMM:   6    -0.370027905272E+03    0.24594E-04   -0.46636E-04  7440   0.371E-02    0.313E-02
RMM:   7    -0.370027890592E+03    0.14680E-04   -0.16909E-04  6195   0.177E-02    0.187E-02
RMM:   8    -0.370027889362E+03    0.12298E-05   -0.43731E-05  3815   0.133E-02
  13 F= -.37002789E+03 E0= -.37003150E+03  d E =-.807766E-02
       N       E                     dE             d eps       ncg     rms          rms(c)
DAV:   1    -0.369999468316E+03    0.28422E-01   -0.12764E+01  4856   0.981E+00    0.886E-01
RMM:   2    -0.370041501797E+03   -0.42033E-01   -0.46466E-01  6238   0.188E+00    0.502E-01
RMM:   3    -0.370031905067E+03    0.95967E-02   -0.54655E-02  7354   0.534E-01    0.393E-01
RMM:   4    -0.370031056978E+03    0.84809E-03   -0.11072E-02  8146   0.149E-01    0.260E-01
RMM:   5    -0.370030874382E+03    0.18260E-03   -0.39389E-03  7577   0.112E-01    0.139E-01
RMM:   6    -0.370030762948E+03    0.11143E-03   -0.19079E-03  7723   0.773E-02    0.629E-02
RMM:   7    -0.370030714515E+03    0.48433E-04   -0.71029E-04  7640   0.356E-02    0.385E-02
RMM:   8    -0.370030715244E+03   -0.72912E-06   -0.20974E-04  6066   0.213E-02    0.229E-02
RMM:   9    -0.370030719978E+03   -0.47341E-05   -0.11905E-04  5569   0.170E-02    0.114E-02
RMM:  10    -0.370030718161E+03    0.18167E-05   -0.29692E-05  3670   0.121E-02
  14 F= -.37003072E+03 E0= -.37003461E+03  d E =-.109065E-01
       N       E                     dE             d eps       ncg     rms          rms(c)
DAV:   1    -0.370028706261E+03    0.20137E-02   -0.10459E+00  4824   0.279E+00    0.238E-01
RMM:   2    -0.370032055216E+03   -0.33490E-02   -0.37510E-02  6229   0.534E-01    0.143E-01
RMM:   3    -0.370031153204E+03    0.90201E-03   -0.40217E-03  7243   0.152E-01    0.103E-01
RMM:   4    -0.370031082194E+03    0.71010E-04   -0.81047E-04  7731   0.416E-02    0.662E-02
RMM:   5    -0.370031067431E+03    0.14764E-04   -0.29085E-04  7033   0.311E-02    0.339E-02
RMM:   6    -0.370031065551E+03    0.18796E-05   -0.12856E-04  6596   0.198E-02    0.166E-02
RMM:   7    -0.370031062289E+03    0.32622E-05   -0.34721E-05  3591   0.113E-02
  15 F= -.37003106E+03 E0= -.37003488E+03  d E =-.112506E-01
       N       E                     dE             d eps       ncg     rms          rms(c)
DAV:   1    -0.370033380410E+03   -0.23149E-02   -0.89046E-01  4896   0.267E+00    0.219E-01
RMM:   2    -0.370035720384E+03   -0.23400E-02   -0.31756E-02  6393   0.510E-01    0.110E-01
RMM:   3    -0.370035510756E+03    0.20963E-03   -0.35453E-03  7251   0.140E-01    0.905E-02
RMM:   4    -0.370035467765E+03    0.42991E-04   -0.76547E-04  7893   0.393E-02    0.632E-02
RMM:   5    -0.370035460536E+03    0.72282E-05   -0.28525E-04  6922   0.276E-02    0.351E-02
RMM:   6    -0.370035451950E+03    0.85865E-05   -0.11678E-04  6623   0.206E-02    0.137E-02
RMM:   7    -0.370035449337E+03    0.26133E-05   -0.30940E-05  3494   0.113E-02
  16 F= -.37003545E+03 E0= -.37003927E+03  d E =-.438705E-02
       N       E                     dE             d eps       ncg     rms          rms(c)
DAV:   1    -0.370030935799E+03    0.45162E-02   -0.34000E+00  4856   0.522E+00    0.433E-01
RMM:   2    -0.370040028825E+03   -0.90930E-02   -0.12284E-01  6439   0.100E+00    0.218E-01
RMM:   3    -0.370039379194E+03    0.64963E-03   -0.14271E-02  7285   0.276E-01    0.181E-01
RMM:   4    -0.370039228624E+03    0.15057E-03   -0.30619E-03  8355   0.770E-02    0.128E-01
RMM:   5    -0.370039208999E+03    0.19624E-04   -0.11384E-03  7733   0.541E-02    0.717E-02
RMM:   6    -0.370039180370E+03    0.28630E-04   -0.48558E-04  7496   0.402E-02    0.271E-02
RMM:   7    -0.370039175312E+03    0.50584E-05   -0.17651E-04  6564   0.184E-02    0.165E-02
RMM:   8    -0.370039173254E+03    0.20580E-05   -0.38900E-05  3808   0.125E-02
  17 F= -.37003917E+03 E0= -.37004301E+03  d E =-.811096E-02
       N       E                     dE             d eps       ncg     rms          rms(c)
DAV:   1    -0.370045410871E+03   -0.62356E-02   -0.68955E-01  5200   0.261E+00    0.731E-01
RMM:   2    -0.370043110104E+03    0.23008E-02   -0.51818E-02  6970   0.614E-01    0.271E-01
RMM:   3    -0.370041768669E+03    0.13414E-02   -0.98057E-03  7436   0.192E-01    0.203E-01
RMM:   4    -0.370040538403E+03    0.12303E-02   -0.26616E-03  7543   0.105E-01    0.101E-01
RMM:   5    -0.370040436692E+03    0.10171E-03   -0.94167E-04  7524   0.581E-02    0.709E-02
RMM:   6    -0.370040464109E+03   -0.27418E-04   -0.34808E-04  7041   0.323E-02    0.454E-02
RMM:   7    -0.370040486971E+03   -0.22862E-04   -0.15854E-04  6264   0.220E-02    0.243E-02
RMM:   8    -0.370040503783E+03   -0.16812E-04   -0.69849E-05  4494   0.159E-02    0.178E-02
RMM:   9    -0.370040515984E+03   -0.12201E-04   -0.36355E-05  3996   0.122E-02    0.118E-02
RMM:  10    -0.370040524506E+03   -0.85213E-05   -0.13289E-05  3232   0.108E-02
  18 F= -.37004052E+03 E0= -.37004440E+03  d E =-.135125E-02
       N       E                     dE             d eps       ncg     rms          rms(c)
DAV:   1    -0.370040529966E+03   -0.13982E-04   -0.22858E-04  5720   0.473E-02    0.119E-02
RMM:   2    -0.370040530766E+03   -0.80012E-06   -0.17129E-05  2732   0.120E-02
  19 F= -.37004053E+03 E0= -.37004441E+03  d E =-.135751E-02
       N       E                     dE             d eps       ncg     rms          rms(c)
DAV:   1    -0.370041222483E+03   -0.69252E-03   -0.16262E-01  4912   0.112E+00    0.115E-01
RMM:   2    -0.370041587209E+03   -0.36473E-03   -0.56896E-03  7278   0.220E-01    0.640E-02
RMM:   3    -0.370041550615E+03    0.36594E-04   -0.71025E-04  7334   0.538E-02    0.463E-02
RMM:   4    -0.370041529190E+03    0.21425E-04   -0.16198E-04  6481   0.199E-02    0.307E-02
RMM:   5    -0.370041522702E+03    0.64873E-05   -0.68339E-05  5575   0.134E-02
  20 F= -.37004152E+03 E0= -.37004546E+03  d E =-.991936E-03
       N       E                     dE             d eps       ncg     rms          rms(c)
DAV:   1    -0.370040442632E+03    0.10866E-02   -0.14611E+00  4816   0.337E+00    0.343E-01
RMM:   2    -0.370043736639E+03   -0.32940E-02   -0.51063E-02  7268   0.659E-01    0.192E-01
RMM:   3    -0.370043375614E+03    0.36103E-03   -0.62464E-03  7397   0.160E-01    0.137E-01
RMM:   4    -0.370043186821E+03    0.18879E-03   -0.14303E-03  7838   0.591E-02    0.910E-02
RMM:   5    -0.370043144444E+03    0.42377E-04   -0.64753E-04  7378   0.447E-02    0.478E-02
RMM:   6    -0.370043114457E+03    0.29987E-04   -0.28158E-04  7280   0.292E-02    0.262E-02
RMM:   7    -0.370043111706E+03    0.27510E-05   -0.86060E-05  4883   0.151E-02
  21 F= -.37004311E+03 E0= -.37004723E+03  d E =-.258094E-02
       N       E                     dE             d eps       ncg     rms          rms(c)
DAV:   1    -0.370042985737E+03    0.12872E-03   -0.10566E-01  4880   0.908E-01    0.914E-02
RMM:   2    -0.370043234330E+03   -0.24859E-03   -0.37828E-03  7178   0.178E-01    0.522E-02
RMM:   3    -0.370043210918E+03    0.23412E-04   -0.51117E-04  7100   0.442E-02    0.377E-02
RMM:   4    -0.370043199600E+03    0.11318E-04   -0.13231E-04  5906   0.171E-02    0.253E-02
RMM:   5    -0.370043195192E+03    0.44082E-05   -0.48945E-05  4080   0.120E-02
  22 F= -.37004320E+03 E0= -.37004737E+03  d E =-.266443E-02
       N       E                     dE             d eps       ncg     rms          rms(c)
DAV:   1    -0.370043708890E+03   -0.50929E-03   -0.37349E-02  5072   0.606E-01    0.135E-01
RMM:   2    -0.370043622918E+03    0.85972E-04   -0.24145E-03  7076   0.135E-01    0.533E-02
RMM:   3    -0.370043592445E+03    0.30472E-04   -0.40168E-04  7287   0.423E-02    0.396E-02
RMM:   4    -0.370043544422E+03    0.48023E-04   -0.11574E-04  6424   0.203E-02    0.215E-02
RMM:   5    -0.370043537086E+03    0.73367E-05   -0.39980E-05  3780   0.119E-02
  23 F= -.37004354E+03 E0= -.37004775E+03  d E =-.341894E-03
       N       E                     dE             d eps       ncg     rms          rms(c)
DAV:   1    -0.370044549225E+03   -0.10048E-02   -0.17299E-01  4840   0.131E+00    0.294E-01
RMM:   2    -0.370044149330E+03    0.39989E-03   -0.11421E-02  7148   0.292E-01    0.116E-01
RMM:   3    -0.370044016468E+03    0.13286E-03   -0.19511E-03  7403   0.904E-02    0.882E-02
RMM:   4    -0.370043788457E+03    0.22801E-03   -0.57409E-04  7358   0.450E-02    0.482E-02
RMM:   5    -0.370043763625E+03    0.24832E-04   -0.23576E-04  7096   0.254E-02    0.333E-02
RMM:   6    -0.370043756743E+03    0.68814E-05   -0.93307E-05  5696   0.166E-02
  24 F= -.37004376E+03 E0= -.37004806E+03  d E =-.561552E-03
       N       E                     dE             d eps       ncg     rms          rms(c)
DAV:   1    -0.370043967265E+03   -0.20364E-03   -0.17038E-02  5072   0.403E-01    0.855E-02
RMM:   2    -0.370043989780E+03   -0.22515E-04   -0.12639E-03  7350   0.924E-02    0.430E-02
RMM:   3    -0.370043951145E+03    0.38635E-04   -0.23359E-04  6805   0.286E-02    0.308E-02
RMM:   4    -0.370043933732E+03    0.17413E-04   -0.68950E-05  6215   0.158E-02    0.162E-02
RMM:   5    -0.370043929927E+03    0.38045E-05   -0.20483E-05  3029   0.968E-03
  25 F= -.37004393E+03 E0= -.37004825E+03  d E =-.173184E-03
       N       E                     dE             d eps       ncg     rms          rms(c)
DAV:   1    -0.370044469151E+03   -0.53542E-03   -0.13985E-01  4840   0.115E+00    0.229E-01
RMM:   2    -0.370044579616E+03   -0.11046E-03   -0.93192E-03  7286   0.256E-01    0.109E-01
RMM:   3    -0.370044274321E+03    0.30529E-03   -0.14060E-03  7456   0.740E-02    0.763E-02
RMM:   4    -0.370044154132E+03    0.12019E-03   -0.39555E-04  7304   0.364E-02    0.406E-02
RMM:   5    -0.370044136200E+03    0.17931E-04   -0.15494E-04  7032   0.235E-02    0.258E-02
RMM:   6    -0.370044139325E+03   -0.31248E-05   -0.61124E-05  4616   0.139E-02
  26 F= -.37004414E+03 E0= -.37004852E+03  d E =-.382582E-03
       N       E                     dE             d eps       ncg     rms          rms(c)
DAV:   1    -0.370044264354E+03   -0.12815E-03   -0.42983E-03  5152   0.202E-01    0.437E-02
RMM:   2    -0.370044249658E+03    0.14696E-04   -0.25203E-04  6910   0.426E-02    0.202E-02
RMM:   3    -0.370044244294E+03    0.53636E-05   -0.39720E-05  4470   0.137E-02
  27 F= -.37004424E+03 E0= -.37004862E+03  d E =-.104969E-03
       N       E                     dE             d eps       ncg     rms          rms(c)
DAV:   1    -0.370044691895E+03   -0.44224E-03   -0.37774E-02  4872   0.597E-01    0.141E-01
RMM:   2    -0.370044521534E+03    0.17036E-03   -0.24421E-03  7282   0.128E-01    0.635E-02
RMM:   3    -0.370044469468E+03    0.52066E-04   -0.50733E-04  7344   0.394E-02    0.474E-02
RMM:   4    -0.370044412114E+03    0.57354E-04   -0.17205E-04  6935   0.248E-02    0.235E-02
RMM:   5    -0.370044408213E+03    0.39009E-05   -0.65730E-05  4808   0.142E-02
  28 F= -.37004441E+03 E0= -.37004877E+03  d E =-.268888E-03
       N       E                     dE             d eps       ncg     rms          rms(c)
DAV:   1    -0.370044487418E+03   -0.75304E-04   -0.92141E-03  4920   0.297E-01    0.669E-02
RMM:   2    -0.370044453925E+03    0.33493E-04   -0.60306E-04  7255   0.627E-02    0.309E-02
RMM:   3    -0.370044444395E+03    0.95297E-05   -0.13459E-04  6426   0.200E-02    0.233E-02
RMM:   4    -0.370044434183E+03    0.10212E-04   -0.50605E-05  4672   0.149E-02    0.128E-02
RMM:   5    -0.370044434364E+03   -0.18040E-06   -0.14410E-05  2995   0.958E-03
  29 F= -.37004443E+03 E0= -.37004879E+03  d E =-.295039E-03
       N       E                     dE             d eps       ncg     rms          rms(c)
DAV:   1    -0.370044594552E+03   -0.16037E-03   -0.64478E-03  5096   0.258E-01    0.754E-02
RMM:   2    -0.370044569020E+03    0.25531E-04   -0.56981E-04  7356   0.618E-02    0.310E-02
RMM:   3    -0.370044552980E+03    0.16041E-04   -0.13076E-04  6511   0.196E-02    0.246E-02
RMM:   4    -0.370044536887E+03    0.16092E-04   -0.36136E-05  4499   0.139E-02    0.127E-02
RMM:   5    -0.370044533777E+03    0.31106E-05   -0.10253E-05  2714   0.889E-03
  30 F= -.37004453E+03 E0= -.37004889E+03  d E =-.994130E-04
       N       E                     dE             d eps       ncg     rms          rms(c)
DAV:   1    -0.370045168764E+03   -0.63188E-03   -0.57477E-02  4848   0.767E-01    0.212E-01
RMM:   2    -0.370044898167E+03    0.27060E-03   -0.45954E-03  7330   0.180E-01    0.866E-02
RMM:   3    -0.370044753550E+03    0.14462E-03   -0.92738E-04  7519   0.544E-02    0.670E-02
RMM:   4    -0.370044628362E+03    0.12519E-03   -0.26779E-04  7195   0.332E-02    0.347E-02
RMM:   5    -0.370044607596E+03    0.20766E-04   -0.10201E-04  6597   0.188E-02    0.229E-02
RMM:   6    -0.370044603231E+03    0.43645E-05   -0.40689E-05  3801   0.117E-02
  31 F= -.37004460E+03 E0= -.37004896E+03  d E =-.168867E-03
       N       E                     dE             d eps       ncg     rms          rms(c)
DAV:   1    -0.370044624006E+03   -0.16411E-04   -0.17671E-03  5376   0.134E-01    0.407E-02
RMM:   2    -0.370044614825E+03    0.91809E-05   -0.16753E-04  7186   0.337E-02    0.179E-02
RMM:   3    -0.370044609704E+03    0.51212E-05   -0.34389E-05  3563   0.111E-02
  32 F= -.37004461E+03 E0= -.37004897E+03  d E =-.175340E-03
       N       E                     dE             d eps       ncg     rms          rms(c)
DAV:   1    -0.370044700457E+03   -0.85632E-04   -0.98417E-03  4896   0.315E-01    0.915E-02
RMM:   2    -0.370044635447E+03    0.65010E-04   -0.84766E-04  7330   0.766E-02    0.380E-02
RMM:   3    -0.370044610222E+03    0.25225E-04   -0.17223E-04  6523   0.237E-02    0.295E-02
RMM:   4    -0.370044588590E+03    0.21633E-04   -0.46361E-05  5348   0.163E-02    0.161E-02
RMM:   5    -0.370044585419E+03    0.31705E-05   -0.14125E-05  2583   0.105E-02
  33 F= -.37004459E+03 E0= -.37004894E+03  d E =-.151055E-03
       N       E                     dE             d eps       ncg     rms          rms(c)
DAV:   1    -0.370044627427E+03   -0.38838E-04   -0.24949E-03  5072   0.159E-01    0.472E-02
RMM:   2    -0.370044619022E+03    0.84050E-05   -0.20783E-04  7223   0.396E-02    0.192E-02
RMM:   3    -0.370044612906E+03    0.61162E-05   -0.43099E-05  4451   0.128E-02
  34 F= -.37004461E+03 E0= -.37004896E+03  d E =-.178542E-03
       N       E                     dE             d eps       ncg     rms          rms(c)
DAV:   1    -0.370044624607E+03   -0.55848E-05   -0.86323E-04  4988   0.921E-02    0.300E-02
RMM:   2    -0.370044616413E+03    0.81944E-05   -0.95286E-05  7053   0.246E-02
  35 F= -.37004462E+03 E0= -.37004898E+03  d E =-.182049E-03
       N       E                     dE             d eps       ncg     rms          rms(c)
DAV:   1    -0.370044612523E+03    0.12083E-04   -0.39804E-05  4184   0.216E-02    0.132E-02
RMM:   2    -0.370044613397E+03   -0.87385E-06   -0.19557E-05  3159   0.130E-02
  36 F= -.37004461E+03 E0= -.37004898E+03  d E =-.179034E-03
       N       E                     dE             d eps       ncg     rms          rms(c)
DAV:   1    -0.370044643061E+03   -0.30537E-04   -0.28784E-03  4872   0.140E-01    0.146E-02
RMM:   2    -0.370044647866E+03   -0.48053E-05   -0.84596E-05  4942   0.273E-02
  37 F= -.37004465E+03 E0= -.37004901E+03  d E =-.344689E-04
       N       E                     dE             d eps       ncg     rms          rms(c)
DAV:   1    -0.370044709127E+03   -0.66067E-04   -0.25845E-02  4816   0.421E-01    0.400E-02
RMM:   2    -0.370044766946E+03   -0.57818E-04   -0.79057E-04  6693   0.807E-02    0.254E-02
RMM:   3    -0.370044751225E+03    0.15721E-04   -0.13509E-04  5852   0.219E-02    0.178E-02
RMM:   4    -0.370044748194E+03    0.30308E-05   -0.32707E-05  3696   0.102E-02
  38 F= -.37004475E+03 E0= -.37004915E+03  d E =-.134797E-03
       N       E                     dE             d eps       ncg     rms          rms(c)
DAV:   1    -0.370044741935E+03    0.92902E-05   -0.10248E-01  4816   0.836E-01    0.724E-02
RMM:   2    -0.370044956005E+03   -0.21407E-03   -0.29329E-03  6826   0.157E-01    0.450E-02
RMM:   3    -0.370044918943E+03    0.37062E-04   -0.48206E-04  6864   0.418E-02    0.326E-02
RMM:   4    -0.370044912160E+03    0.67835E-05   -0.12563E-04  6039   0.161E-02    0.208E-02
RMM:   5    -0.370044908071E+03    0.40887E-05   -0.40809E-05  3985   0.111E-02
  39 F= -.37004491E+03 E0= -.37004936E+03  d E =-.294674E-03
       N       E                     dE             d eps       ncg     rms          rms(c)
DAV:   1    -0.370044361131E+03    0.55103E-03   -0.40990E-01  4816   0.168E+00    0.142E-01
RMM:   2    -0.370045211938E+03   -0.85081E-03   -0.11533E-02  6759   0.314E-01    0.874E-02
RMM:   3    -0.370045056446E+03    0.15549E-03   -0.17847E-03  7214   0.822E-02    0.621E-02
RMM:   4    -0.370045031416E+03    0.25030E-04   -0.44767E-04  6794   0.294E-02    0.397E-02
RMM:   5    -0.370045018573E+03    0.12843E-04   -0.17449E-04  6413   0.197E-02    0.202E-02
RMM:   6    -0.370045018890E+03   -0.31722E-06   -0.62518E-05  4707   0.132E-02
  40 F= -.37004502E+03 E0= -.37004960E+03  d E =-.405493E-03
       N       E                     dE             d eps       ncg     rms          rms(c)
DAV:   1    -0.370045094612E+03   -0.76039E-04   -0.33971E-02  4888   0.528E-01    0.758E-02
RMM:   2    -0.370045162179E+03   -0.67568E-04   -0.16795E-03  7256   0.111E-01    0.383E-02
RMM:   3    -0.370045141309E+03    0.20870E-04   -0.21684E-04  6757   0.281E-02    0.269E-02
RMM:   4    -0.370045131983E+03    0.93265E-05   -0.57722E-05  4865   0.141E-02
  41 F= -.37004513E+03 E0= -.37004972E+03  d E =-.113092E-03
       N       E                     dE             d eps       ncg     rms          rms(c)
DAV:   1    -0.370044871765E+03    0.26954E-03   -0.30395E-01  4816   0.158E+00    0.225E-01
RMM:   2    -0.370045448957E+03   -0.57719E-03   -0.14619E-02  7344   0.331E-01    0.115E-01
RMM:   3    -0.370045267007E+03    0.18195E-03   -0.17552E-03  7343   0.790E-02    0.794E-02
RMM:   4    -0.370045173376E+03    0.93631E-04   -0.49555E-04  7210   0.371E-02    0.469E-02
RMM:   5    -0.370045158382E+03    0.14994E-04   -0.21765E-04  7166   0.262E-02    0.273E-02
RMM:   6    -0.370045159353E+03   -0.97115E-06   -0.86823E-05  5651   0.157E-02
  42 F= -.37004516E+03 E0= -.37004980E+03  d E =-.140462E-03
       N       E                     dE             d eps       ncg     rms          rms(c)
DAV:   1    -0.370045175286E+03   -0.16904E-04   -0.47515E-02  4824   0.624E-01    0.920E-02
RMM:   2    -0.370045279256E+03   -0.10397E-03   -0.23078E-03  7213   0.132E-01    0.447E-02
RMM:   3    -0.370045242236E+03    0.37019E-04   -0.24942E-04  6834   0.337E-02    0.319E-02
RMM:   4    -0.370045223921E+03    0.18316E-04   -0.61687E-05  5936   0.152E-02    0.184E-02
RMM:   5    -0.370045218447E+03    0.54741E-05   -0.17978E-05  2829   0.104E-02
  43 F= -.37004522E+03 E0= -.37004984E+03  d E =-.199556E-03
       N       E                     dE             d eps       ncg     rms          rms(c)
DAV:   1    -0.370045322782E+03   -0.98862E-04   -0.25330E-02  4832   0.472E-01    0.862E-02
RMM:   2    -0.370045359879E+03   -0.37096E-04   -0.15137E-03  6388   0.104E-01    0.362E-02
RMM:   3    -0.370045323403E+03    0.36476E-04   -0.16669E-04  6273   0.311E-02    0.268E-02
RMM:   4    -0.370045303655E+03    0.19748E-04   -0.36830E-05  3592   0.139E-02    0.154E-02
RMM:   5    -0.370045298993E+03    0.46618E-05   -0.11694E-05  2701   0.109E-02
  44 F= -.37004530E+03 E0= -.37004993E+03  d E =-.805462E-04
       N       E                     dE             d eps       ncg     rms          rms(c)
DAV:   1    -0.370045351936E+03   -0.48281E-04   -0.34304E-02  4824   0.547E-01    0.100E-01
RMM:   2    -0.370045405120E+03   -0.53184E-04   -0.20793E-03  6946   0.120E-01    0.437E-02
RMM:   3    -0.370045359576E+03    0.45545E-04   -0.25698E-04  6648   0.331E-02    0.313E-02
RMM:   4    -0.370045335235E+03    0.24341E-04   -0.67315E-05  5170   0.163E-02    0.180E-02
RMM:   5    -0.370045329502E+03    0.57329E-05   -0.22392E-05  3094   0.126E-02
  45 F= -.37004533E+03 E0= -.37004998E+03  d E =-.111055E-03
       N       E                     dE             d eps       ncg     rms          rms(c)
DAV:   1    -0.370045348330E+03   -0.13095E-04   -0.15597E-03  5152   0.114E-01    0.172E-02
RMM:   2    -0.370045349605E+03   -0.12748E-05   -0.84054E-05  6351   0.249E-02
  46 F= -.37004535E+03 E0= -.37004999E+03  d E =-.201028E-04
