       N       E                     dE             d eps       ncg     rms          rms(c)
DAV:   1     0.174919404217E+04    0.17492E+04   -0.10591E+05  5272   0.104E+03
DAV:   2    -0.817753558525E+02   -0.18310E+04   -0.17582E+04  5280   0.369E+02
DAV:   3    -0.338564380366E+03   -0.25679E+03   -0.24353E+03  8104   0.104E+02
DAV:   4    -0.370755135763E+03   -0.32191E+02   -0.30695E+02  8184   0.318E+01
DAV:   5    -0.374129012371E+03   -0.33739E+01   -0.32859E+01  7552   0.102E+01    0.651E+01
RMM:   6    -0.364066787457E+03    0.10062E+02   -0.23986E+01  7016   0.978E+00    0.312E+01
RMM:   7    -0.366233871759E+03   -0.21671E+01   -0.27036E+01  7312   0.802E+00    0.124E+01
RMM:   8    -0.359747541773E+03    0.64863E+01   -0.79322E+00  7300   0.400E+00    0.402E+00
RMM:   9    -0.359428385112E+03    0.31916E+00   -0.24913E+00  7368   0.198E+00    0.269E+00
RMM:  10    -0.359409474913E+03    0.18910E-01   -0.48071E-01  7398   0.112E+00    0.142E+00
RMM:  11    -0.359393177524E+03    0.16297E-01   -0.15972E-01  7374   0.605E-01    0.711E-01
RMM:  12    -0.359390498924E+03    0.26786E-02   -0.67997E-02  7464   0.363E-01    0.410E-01
RMM:  13    -0.359389149850E+03    0.13491E-02   -0.25513E-02  7470   0.192E-01    0.235E-01
RMM:  14    -0.359389723210E+03   -0.57336E-03   -0.11080E-02  7543   0.112E-01    0.133E-01
RMM:  15    -0.359390071872E+03   -0.34866E-03   -0.52578E-03  7481   0.701E-02    0.693E-02
RMM:  16    -0.359390205512E+03   -0.13364E-03   -0.23505E-03  6449   0.426E-02    0.390E-02
RMM:  17    -0.359390246741E+03   -0.41229E-04   -0.10500E-03  6039   0.307E-02    0.189E-02
RMM:  18    -0.359390283981E+03   -0.37240E-04   -0.51739E-04  5870   0.225E-02    0.980E-03
RMM:  19    -0.359390299491E+03   -0.15511E-04   -0.21395E-04  4688   0.149E-02    0.542E-03
RMM:  20    -0.359390308330E+03   -0.88388E-05   -0.13163E-04  4463   0.125E-02    0.258E-03
RMM:  21    -0.359390311330E+03   -0.30004E-05   -0.51563E-05  4031   0.109E-02
   1 F= -.35939031E+03 E0= -.35939820E+03  d E =-.359390E+03
       N       E                     dE             d eps       ncg     rms          rms(c)
DAV:   1    -0.359392800881E+03   -0.24926E-02   -0.66534E-02  5820   0.841E-01    0.345E-01
RMM:   2    -0.359391955901E+03    0.84498E-03   -0.68383E-03  7278   0.213E-01    0.109E-01
RMM:   3    -0.359391744183E+03    0.21172E-03   -0.18407E-03  7524   0.739E-02    0.838E-02
RMM:   4    -0.359391527733E+03    0.21645E-03   -0.45345E-04  7362   0.441E-02    0.433E-02
RMM:   5    -0.359391520130E+03    0.76035E-05   -0.14057E-04  6451   0.231E-02    0.338E-02
RMM:   6    -0.359391534211E+03   -0.14082E-04   -0.49449E-05  4081   0.134E-02    0.218E-02
RMM:   7    -0.359391544296E+03   -0.10085E-04   -0.23981E-05  3349   0.121E-02    0.949E-03
RMM:   8    -0.359391550247E+03   -0.59510E-05   -0.18139E-05  3296   0.115E-02
   2 F= -.35939155E+03 E0= -.35939946E+03  d E =-.123892E-02
       N       E                     dE             d eps       ncg     rms          rms(c)
DAV:   1    -0.359398456304E+03   -0.69120E-02   -0.31449E-01  5488   0.183E+00    0.750E-01
RMM:   2    -0.359394517408E+03    0.39389E-02   -0.32296E-02  7185   0.465E-01    0.236E-01
RMM:   3    -0.359393476439E+03    0.10410E-02   -0.86237E-03  7535   0.160E-01    0.181E-01
RMM:   4    -0.359392449834E+03    0.10266E-02   -0.20809E-03  7484   0.952E-02    0.943E-02
RMM:   5    -0.359392404514E+03    0.45320E-04   -0.66016E-04  7401   0.475E-02    0.746E-02
RMM:   6    -0.359392450888E+03   -0.46374E-04   -0.24791E-04  6649   0.268E-02    0.463E-02
RMM:   7    -0.359392480848E+03   -0.29959E-04   -0.12949E-04  6074   0.187E-02    0.226E-02
RMM:   8    -0.359392498253E+03   -0.17406E-04   -0.68026E-05  4491   0.154E-02    0.173E-02
RMM:   9    -0.359392509932E+03   -0.11679E-04   -0.21120E-05  3493   0.110E-02    0.945E-03
RMM:  10    -0.359392519550E+03   -0.96175E-05   -0.18561E-05  3417   0.109E-02
   3 F= -.35939252E+03 E0= -.35940046E+03  d E =-.220822E-02
       N       E                     dE             d eps       ncg     rms          rms(c)
DAV:   1    -0.359393453027E+03   -0.94309E-03   -0.47824E-02  5120   0.570E-01    0.967E-02
RMM:   2    -0.359393510739E+03   -0.57713E-04   -0.16884E-03  7203   0.112E-01    0.438E-02
RMM:   3    -0.359393492213E+03    0.18527E-04   -0.30951E-04  6518   0.294E-02    0.313E-02
RMM:   4    -0.359393478016E+03    0.14196E-04   -0.80713E-05  5537   0.162E-02    0.194E-02
RMM:   5    -0.359393474281E+03    0.37352E-05   -0.29404E-05  3400   0.115E-02
   4 F= -.35939347E+03 E0= -.35940145E+03  d E =-.954731E-03
       N       E                     dE             d eps       ncg     rms          rms(c)
DAV:   1    -0.359394988822E+03   -0.15108E-02   -0.42894E-01  4928   0.171E+00    0.282E-01
RMM:   2    -0.359395478397E+03   -0.48957E-03   -0.14576E-02  7245   0.332E-01    0.127E-01
RMM:   3    -0.359395314517E+03    0.16388E-03   -0.25472E-03  7287   0.823E-02    0.882E-02
RMM:   4    -0.359395199845E+03    0.11467E-03   -0.62763E-04  7277   0.389E-02    0.536E-02
RMM:   5    -0.359395182236E+03    0.17609E-04   -0.28396E-04  7089   0.269E-02    0.312E-02
RMM:   6    -0.359395171999E+03    0.10237E-04   -0.10992E-04  5789   0.167E-02    0.198E-02
RMM:   7    -0.359395168836E+03    0.31628E-05   -0.34363E-05  3532   0.115E-02
   5 F= -.35939517E+03 E0= -.35940324E+03  d E =-.264929E-02
       N       E                     dE             d eps       ncg     rms          rms(c)
DAV:   1    -0.359392792076E+03    0.23799E-02   -0.17170E+00  4840   0.342E+00    0.565E-01
RMM:   2    -0.359394695620E+03   -0.19035E-02   -0.58130E-02  7250   0.663E-01    0.253E-01
RMM:   3    -0.359394031055E+03    0.66457E-03   -0.10011E-02  7319   0.163E-01    0.175E-01
RMM:   4    -0.359393569845E+03    0.46121E-03   -0.24452E-03  7482   0.774E-02    0.105E-01
RMM:   5    -0.359393507759E+03    0.62086E-04   -0.11107E-03  7515   0.532E-02    0.612E-02
RMM:   6    -0.359393477054E+03    0.30705E-04   -0.41813E-04  7120   0.320E-02    0.389E-02
RMM:   7    -0.359393475178E+03    0.18757E-05   -0.14129E-04  5312   0.184E-02    0.239E-02
RMM:   8    -0.359393476234E+03   -0.10556E-05   -0.93382E-05  4754   0.159E-02
   6 F= -.35939348E+03 E0= -.35940171E+03  d E =-.956684E-03
       N       E                     dE             d eps       ncg     rms          rms(c)
DAV:   1    -0.359395171493E+03   -0.16963E-02   -0.96718E-01  4968   0.256E+00    0.430E-01
RMM:   2    -0.359396080518E+03   -0.90902E-03   -0.32401E-02  7223   0.495E-01    0.189E-01
RMM:   3    -0.359395670136E+03    0.41038E-03   -0.54167E-03  7356   0.126E-01    0.132E-01
RMM:   4    -0.359395393032E+03    0.27710E-03   -0.13002E-03  7442   0.591E-02    0.777E-02
RMM:   5    -0.359395360954E+03    0.32078E-04   -0.55495E-04  7360   0.406E-02    0.457E-02
RMM:   6    -0.359395353057E+03    0.78968E-05   -0.21122E-04  6882   0.234E-02    0.283E-02
RMM:   7    -0.359395360320E+03   -0.72627E-05   -0.61749E-05  4434   0.149E-02
   7 F= -.35939536E+03 E0= -.35940348E+03  d E =-.284077E-02
       N       E                     dE             d eps       ncg     rms          rms(c)
DAV:   1    -0.359395859929E+03   -0.50687E-03   -0.32650E-02  5296   0.537E-01    0.127E-01
RMM:   2    -0.359395824929E+03    0.34999E-04   -0.16855E-03  7194   0.107E-01    0.463E-02
RMM:   3    -0.359395797725E+03    0.27204E-04   -0.31135E-04  7336   0.331E-02    0.336E-02
RMM:   4    -0.359395767596E+03    0.30130E-04   -0.91704E-05  6422   0.182E-02    0.179E-02
RMM:   5    -0.359395762262E+03    0.53333E-05   -0.23029E-05  3034   0.115E-02
   8 F= -.35939576E+03 E0= -.35940388E+03  d E =-.401942E-03
       N       E                     dE             d eps       ncg     rms          rms(c)
DAV:   1    -0.359397201644E+03   -0.14340E-02   -0.29231E-01  5136   0.161E+00    0.363E-01
RMM:   2    -0.359396794789E+03    0.40686E-03   -0.14588E-02  7054   0.323E-01    0.127E-01
RMM:   3    -0.359396531466E+03    0.26332E-03   -0.23638E-03  7372   0.989E-02    0.904E-02
RMM:   4    -0.359396329605E+03    0.20186E-03   -0.72726E-04  7487   0.493E-02    0.520E-02
RMM:   5    -0.359396305211E+03    0.24394E-04   -0.23278E-04  6922   0.297E-02    0.396E-02
RMM:   6    -0.359396299976E+03    0.52352E-05   -0.10250E-04  5761   0.161E-02    0.241E-02
RMM:   7    -0.359396293292E+03    0.66846E-05   -0.37410E-05  3791   0.137E-02
   9 F= -.35939629E+03 E0= -.35940441E+03  d E =-.932972E-03
       N       E                     dE             d eps       ncg     rms          rms(c)
DAV:   1    -0.359396754677E+03   -0.45470E-03   -0.37719E-02  5264   0.576E-01    0.143E-01
RMM:   2    -0.359396688315E+03    0.66362E-04   -0.19568E-03  7195   0.114E-01    0.542E-02
RMM:   3    -0.359396654718E+03    0.33597E-04   -0.41878E-04  7372   0.366E-02    0.401E-02
RMM:   4    -0.359396615383E+03    0.39335E-04   -0.12402E-04  6665   0.210E-02    0.202E-02
RMM:   5    -0.359396613241E+03    0.21423E-05   -0.29372E-05  3343   0.131E-02
  10 F= -.35939661E+03 E0= -.35940472E+03  d E =-.319949E-03
       N       E                     dE             d eps       ncg     rms          rms(c)
DAV:   1    -0.359398143823E+03   -0.15284E-02   -0.33719E-01  5184   0.173E+00    0.416E-01
RMM:   2    -0.359397573052E+03    0.57077E-03   -0.16814E-02  7008   0.340E-01    0.151E-01
RMM:   3    -0.359397202760E+03    0.37029E-03   -0.32411E-03  7446   0.109E-01    0.110E-01
RMM:   4    -0.359396894425E+03    0.30834E-03   -0.96919E-04  7482   0.583E-02    0.576E-02
RMM:   5    -0.359396889147E+03    0.52780E-05   -0.29339E-04  7277   0.345E-02    0.444E-02
RMM:   6    -0.359396912366E+03   -0.23219E-04   -0.12967E-04  5916   0.173E-02    0.271E-02
RMM:   7    -0.359396925269E+03   -0.12903E-04   -0.46573E-05  4043   0.142E-02    0.136E-02
RMM:   8    -0.359396934011E+03   -0.87421E-05   -0.28112E-05  3679   0.118E-02
  11 F= -.35939693E+03 E0= -.35940502E+03  d E =-.640720E-03
       N       E                     dE             d eps       ncg     rms          rms(c)
DAV:   1    -0.359397000117E+03   -0.74848E-04   -0.82563E-03  5328   0.269E-01    0.682E-02
RMM:   2    -0.359396992592E+03    0.75246E-05   -0.43457E-04  7101   0.543E-02    0.268E-02
RMM:   3    -0.359396982779E+03    0.98132E-05   -0.86037E-05  5690   0.183E-02
  12 F= -.35939698E+03 E0= -.35940507E+03  d E =-.689487E-03
       N       E                     dE             d eps       ncg     rms          rms(c)
DAV:   1    -0.359397158237E+03   -0.16564E-03   -0.59713E-02  5248   0.725E-01    0.176E-01
RMM:   2    -0.359397043667E+03    0.11457E-03   -0.31106E-03  7076   0.146E-01    0.645E-02
RMM:   3    -0.359396966717E+03    0.76950E-04   -0.57241E-04  7403   0.451E-02    0.480E-02
RMM:   4    -0.359396909046E+03    0.57671E-04   -0.17142E-04  6990   0.246E-02    0.265E-02
RMM:   5    -0.359396899727E+03    0.93195E-05   -0.44254E-05  3861   0.160E-02
  13 F= -.35939690E+03 E0= -.35940500E+03  d E =-.606435E-03
       N       E                     dE             d eps       ncg     rms          rms(c)
DAV:   1    -0.359397069745E+03   -0.16070E-03   -0.26600E-02  5248   0.484E-01    0.124E-01
RMM:   2    -0.359397014599E+03    0.55146E-04   -0.13478E-03  6846   0.954E-02    0.455E-02
RMM:   3    -0.359396985860E+03    0.28739E-04   -0.26580E-04  6868   0.321E-02    0.325E-02
RMM:   4    -0.359396955186E+03    0.30674E-04   -0.71241E-05  5649   0.179E-02    0.154E-02
RMM:   5    -0.359396952674E+03    0.25114E-05   -0.16539E-05  2667   0.123E-02
  14 F= -.35939695E+03 E0= -.35940504E+03  d E =-.659383E-03
       N       E                     dE             d eps       ncg     rms          rms(c)
DAV:   1    -0.359396961607E+03   -0.64215E-05   -0.10433E-03  4992   0.979E-02    0.209E-02
RMM:   2    -0.359396961499E+03    0.10835E-06   -0.56478E-05  4545   0.191E-02
  15 F= -.35939696E+03 E0= -.35940505E+03  d E =-.668207E-03
       N       E                     dE             d eps       ncg     rms          rms(c)
DAV:   1    -0.359397111504E+03   -0.14990E-03   -0.32769E-02  5032   0.481E-01    0.409E-02
RMM:   2    -0.359397175014E+03   -0.63510E-04   -0.81248E-04  6877   0.782E-02    0.207E-02
RMM:   3    -0.359397169992E+03    0.50214E-05   -0.98340E-05  5032   0.234E-02
  16 F= -.35939717E+03 E0= -.35940525E+03  d E =-.208494E-03
       N       E                     dE             d eps       ncg     rms          rms(c)
DAV:   1    -0.359397200266E+03   -0.25252E-04   -0.29391E-01  4936   0.144E+00    0.120E-01
RMM:   2    -0.359397725829E+03   -0.52556E-03   -0.72064E-03  7172   0.232E-01    0.645E-02
RMM:   3    -0.359397698173E+03    0.27657E-04   -0.10223E-03  7071   0.622E-02    0.442E-02
RMM:   4    -0.359397695082E+03    0.30910E-05   -0.26512E-04  7305   0.254E-02    0.288E-02
RMM:   5    -0.359397691948E+03    0.31333E-05   -0.85515E-05  4966   0.144E-02
  17 F= -.35939769E+03 E0= -.35940578E+03  d E =-.730450E-03
       N       E                     dE             d eps       ncg     rms          rms(c)
DAV:   1    -0.359396267984E+03    0.14271E-02   -0.11756E+00  4888   0.288E+00    0.233E-01
RMM:   2    -0.359398369592E+03   -0.21016E-02   -0.28141E-02  7171   0.464E-01    0.120E-01
RMM:   3    -0.359398276258E+03    0.93333E-04   -0.38681E-03  7243   0.125E-01    0.818E-02
RMM:   4    -0.359398258129E+03    0.18130E-04   -0.89335E-04  8208   0.477E-02    0.545E-02
RMM:   5    -0.359398253780E+03    0.43491E-05   -0.33376E-04  7133   0.283E-02    0.287E-02
RMM:   6    -0.359398242498E+03    0.11282E-04   -0.13600E-04  5794   0.179E-02    0.156E-02
RMM:   7    -0.359398242137E+03    0.36012E-06   -0.38500E-05  3920   0.129E-02
  18 F= -.35939824E+03 E0= -.35940632E+03  d E =-.128064E-02
       N       E                     dE             d eps       ncg     rms          rms(c)
DAV:   1    -0.359398465452E+03   -0.22295E-03   -0.23284E-01  5048   0.131E+00    0.177E-01
RMM:   2    -0.359398767420E+03   -0.30197E-03   -0.71973E-03  7239   0.231E-01    0.805E-02
RMM:   3    -0.359398688923E+03    0.78497E-04   -0.10646E-03  7389   0.603E-02    0.579E-02
RMM:   4    -0.359398636627E+03    0.52296E-04   -0.30718E-04  7470   0.302E-02    0.333E-02
RMM:   5    -0.359398635895E+03    0.73239E-06   -0.11096E-04  6251   0.196E-02    0.204E-02
RMM:   6    -0.359398639123E+03   -0.32280E-05   -0.36601E-05  3590   0.110E-02
  19 F= -.35939864E+03 E0= -.35940670E+03  d E =-.396985E-03
       N       E                     dE             d eps       ncg     rms          rms(c)
DAV:   1    -0.359398504626E+03    0.13127E-03   -0.40079E-01  5040   0.172E+00    0.228E-01
RMM:   2    -0.359399016650E+03   -0.51202E-03   -0.12204E-02  7233   0.302E-01    0.104E-01
RMM:   3    -0.359398884215E+03    0.13244E-03   -0.17721E-03  7404   0.798E-02    0.742E-02
RMM:   4    -0.359398803092E+03    0.81123E-04   -0.50968E-04  7649   0.386E-02    0.435E-02
RMM:   5    -0.359398803735E+03   -0.64307E-06   -0.19091E-04  6924   0.253E-02    0.272E-02
RMM:   6    -0.359398810159E+03   -0.64239E-05   -0.71439E-05  4746   0.136E-02
  20 F= -.35939881E+03 E0= -.35940684E+03  d E =-.568021E-03
       N       E                     dE             d eps       ncg     rms          rms(c)
DAV:   1    -0.359398932087E+03   -0.12835E-03   -0.59219E-02  5168   0.667E-01    0.949E-02
RMM:   2    -0.359399026398E+03   -0.94311E-04   -0.19266E-03  7217   0.119E-01    0.436E-02
RMM:   3    -0.359399011487E+03    0.14911E-04   -0.31168E-04  6808   0.333E-02    0.303E-02
RMM:   4    -0.359398998790E+03    0.12696E-04   -0.95490E-05  5656   0.166E-02    0.180E-02
RMM:   5    -0.359398995773E+03    0.30178E-05   -0.28938E-05  3305   0.114E-02
  21 F= -.35939900E+03 E0= -.35940703E+03  d E =-.185614E-03
       N       E                     dE             d eps       ncg     rms          rms(c)
DAV:   1    -0.359398830837E+03    0.16795E-03   -0.38150E-01  5040   0.169E+00    0.221E-01
RMM:   2    -0.359399369553E+03   -0.53872E-03   -0.11833E-02  7154   0.298E-01    0.991E-02
RMM:   3    -0.359399243789E+03    0.12576E-03   -0.15753E-03  7304   0.791E-02    0.668E-02
RMM:   4    -0.359399186995E+03    0.56794E-04   -0.47029E-04  7610   0.342E-02    0.416E-02
RMM:   5    -0.359399176965E+03    0.10030E-04   -0.17471E-04  6730   0.243E-02    0.264E-02
RMM:   6    -0.359399169772E+03    0.71932E-05   -0.64252E-05  4632   0.131E-02
  22 F= -.35939917E+03 E0= -.35940719E+03  d E =-.359613E-03
       N       E                     dE             d eps       ncg     rms          rms(c)
DAV:   1    -0.359399270471E+03   -0.93506E-04   -0.10963E-02  5120   0.301E-01    0.406E-02
RMM:   2    -0.359399280626E+03   -0.10155E-04   -0.43491E-04  7111   0.559E-02    0.199E-02
RMM:   3    -0.359399271852E+03    0.87743E-05   -0.56524E-05  4529   0.158E-02
  23 F= -.35939927E+03 E0= -.35940731E+03  d E =-.102080E-03
       N       E                     dE             d eps       ncg     rms          rms(c)
DAV:   1    -0.359399486268E+03   -0.20564E-03   -0.98177E-02  4840   0.901E-01    0.126E-01
RMM:   2    -0.359399559926E+03   -0.73658E-04   -0.38340E-03  7288   0.165E-01    0.599E-02
RMM:   3    -0.359399497100E+03    0.62826E-04   -0.56245E-04  7220   0.431E-02    0.400E-02
RMM:   4    -0.359399472315E+03    0.24785E-04   -0.17721E-04  6555   0.227E-02    0.228E-02
RMM:   5    -0.359399466886E+03    0.54295E-05   -0.59590E-05  4075   0.130E-02
  24 F= -.35939947E+03 E0= -.35940752E+03  d E =-.297114E-03
       N       E                     dE             d eps       ncg     rms          rms(c)
DAV:   1    -0.359399362931E+03    0.10938E-03   -0.39323E-01  4816   0.181E+00    0.248E-01
RMM:   2    -0.359399715856E+03   -0.35293E-03   -0.14970E-02  7294   0.331E-01    0.117E-01
RMM:   3    -0.359399484882E+03    0.23097E-03   -0.21645E-03  7310   0.880E-02    0.799E-02
RMM:   4    -0.359399380869E+03    0.10401E-03   -0.66316E-04  7291   0.442E-02    0.455E-02
RMM:   5    -0.359399364893E+03    0.15975E-04   -0.26394E-04  6550   0.256E-02    0.312E-02
RMM:   6    -0.359399358410E+03    0.64835E-05   -0.96402E-05  4832   0.159E-02
  25 F= -.35939936E+03 E0= -.35940745E+03  d E =-.188638E-03
       N       E                     dE             d eps       ncg     rms          rms(c)
DAV:   1    -0.359399530391E+03   -0.16550E-03   -0.17726E-01  4816   0.121E+00    0.171E-01
RMM:   2    -0.359399670331E+03   -0.13994E-03   -0.65783E-03  7290   0.222E-01    0.786E-02
RMM:   3    -0.359399560691E+03    0.10964E-03   -0.84432E-04  7308   0.569E-02    0.536E-02
RMM:   4    -0.359399505091E+03    0.55600E-04   -0.23134E-04  7053   0.281E-02    0.296E-02
RMM:   5    -0.359399496272E+03    0.88188E-05   -0.88746E-05  6049   0.159E-02
  26 F= -.35939950E+03 E0= -.35940756E+03  d E =-.326500E-03
       N       E                     dE             d eps       ncg     rms          rms(c)
DAV:   1    -0.359399598918E+03   -0.93827E-04   -0.10622E-02  5152   0.308E-01    0.623E-02
RMM:   2    -0.359399587762E+03    0.11155E-04   -0.48602E-04  6148   0.609E-02    0.225E-02
RMM:   3    -0.359399577966E+03    0.97959E-05   -0.57990E-05  5057   0.202E-02
  27 F= -.35939958E+03 E0= -.35940764E+03  d E =-.816942E-04
       N       E                     dE             d eps       ncg     rms          rms(c)
DAV:   1    -0.359399907592E+03   -0.31983E-03   -0.94850E-02  5056   0.916E-01    0.203E-01
RMM:   2    -0.359399784843E+03    0.12275E-03   -0.47357E-03  7143   0.186E-01    0.740E-02
RMM:   3    -0.359399702824E+03    0.82019E-04   -0.76258E-04  7395   0.538E-02    0.543E-02
RMM:   4    -0.359399637163E+03    0.65661E-04   -0.23796E-04  7375   0.279E-02    0.306E-02
RMM:   5    -0.359399637252E+03   -0.88970E-07   -0.70485E-05  5599   0.173E-02
  28 F= -.35939964E+03 E0= -.35940770E+03  d E =-.140980E-03
       N       E                     dE             d eps       ncg     rms          rms(c)
DAV:   1    -0.359399674199E+03   -0.37036E-04   -0.21680E-03  5120   0.133E-01    0.178E-02
RMM:   2    -0.359399683561E+03   -0.93626E-05   -0.95255E-05  6694   0.262E-02
  29 F= -.35939968E+03 E0= -.35940776E+03  d E =-.463099E-04
       N       E                     dE             d eps       ncg     rms          rms(c)
DAV:   1    -0.359399739995E+03   -0.65797E-04   -0.19440E-02  4872   0.400E-01    0.432E-02
RMM:   2    -0.359399767779E+03   -0.27783E-04   -0.67817E-04  7119   0.729E-02    0.233E-02
RMM:   3    -0.359399763513E+03    0.42655E-05   -0.90637E-05  4442   0.208E-02
  30 F= -.35939976E+03 E0= -.35940784E+03  d E =-.126262E-03
