<?xml version="1.0" encoding="ISO-8859-1"?>
<modeling>
 <generator>
  <i name="program" type="string">vasp </i>
  <i name="version" type="string">5.4.1  </i>
  <i name="subversion" type="string">05Feb16 (build Jan 29 2020 16:04:39) complex                          parallel </i>
  <i name="platform" type="string">IFC91_ompi </i>
  <i name="date" type="string">2020 06 15 </i>
  <i name="time" type="string">11:37:44 </i>
 </generator>
 <incar>
  <i type="string" name="SYSTEM"> automatically generated by mexm</i>
  <i type="int" name="ISTART">     0</i>
  <i type="string" name="PREC">accurate               ! avoid wrap aro</i>
  <i type="string" name="ALGO"> Fast                   ! blocked Davids</i>
  <i type="int" name="ISPIN">     1</i>
  <i type="int" name="ICHARG">     2</i>
  <i type="int" name="NELM">    70</i>
  <i type="int" name="IBRION">     2</i>
  <i name="EDIFF">      0.00001000</i>
  <i name="EDIFFG">     -0.01000000</i>
  <i type="int" name="NSW">   300</i>
  <i type="int" name="ISIF">     3</i>
  <i type="int" name="ISYM">     1</i>
  <i name="ENCUT">    300.00000000</i>
  <i name="POTIM">      0.15000000</i>
  <i type="string" name="LREAL"> Auto                  ! unpublished met</i>
  <i type="int" name="ISMEAR">     1</i>
  <i name="SIGMA">      0.15000000</i>
  <i type="logical" name="LWAVE"> F  </i>
  <i type="logical" name="LCHARG"> F  </i>
  <i type="logical" name="LVTOT"> F  </i>
  <v type="int" name="KPOINT_BSE">    -1     0     0     0</v>
  <i type="int" name="NELM">    70</i>
 </incar>
 <kpoints>
  <generation param="Gamma">
   <v type="int" name="divisions">       3        3        3 </v>
   <v name="usershift">      0.00000000       0.00000000       0.00000000 </v>
   <v name="genvec1">      0.33333333      -0.00000000      -0.00000000 </v>
   <v name="genvec2">     -0.00000000       0.33333333      -0.00000000 </v>
   <v name="genvec3">      0.00000000       0.00000000       0.33333333 </v>
   <v name="shift">      0.00000000       0.00000000       0.00000000 </v>
  </generation>
  <varray name="kpointlist" >
   <v>       0.00000000       0.00000000       0.00000000 </v>
   <v>       0.33333333       0.00000000       0.00000000 </v>
   <v>       0.00000000       0.33333333       0.00000000 </v>
   <v>       0.33333333       0.33333333       0.00000000 </v>
   <v>      -0.33333333       0.33333333       0.00000000 </v>
   <v>      -0.00000000       0.00000000       0.33333333 </v>
   <v>       0.33333333      -0.00000000       0.33333333 </v>
   <v>      -0.33333333      -0.00000000       0.33333333 </v>
   <v>       0.00000000       0.33333333       0.33333333 </v>
   <v>       0.33333333       0.33333333       0.33333333 </v>
   <v>      -0.33333333       0.33333333       0.33333333 </v>
   <v>      -0.00000000      -0.33333333       0.33333333 </v>
   <v>       0.33333333      -0.33333333       0.33333333 </v>
   <v>      -0.33333333      -0.33333333       0.33333333 </v>
  </varray>
  <varray name="weights" >
   <v>       0.03703704 </v>
   <v>       0.07407407 </v>
   <v>       0.07407407 </v>
   <v>       0.07407407 </v>
   <v>       0.07407407 </v>
   <v>       0.07407407 </v>
   <v>       0.07407407 </v>
   <v>       0.07407407 </v>
   <v>       0.07407407 </v>
   <v>       0.07407407 </v>
   <v>       0.07407407 </v>
   <v>       0.07407407 </v>
   <v>       0.07407407 </v>
   <v>       0.07407407 </v>
  </varray>
 </kpoints>
 <parameters>
  <separator name="general" >
   <i type="string" name="SYSTEM">automatically generated by mexm</i>
   <i type="logical" name="LCOMPAT"> F  </i>
  </separator>
  <separator name="electronic" >
   <i type="string" name="PREC">accura</i>
   <i name="ENMAX">    300.00000000</i>
   <i name="ENAUG">    461.25700000</i>
   <i name="EDIFF">      0.00001000</i>
   <i type="int" name="IALGO">    68</i>
   <i type="int" name="IWAVPR">    11</i>
   <i type="int" name="NBANDS">   172</i>
   <i name="NELECT">    287.00000000</i>
   <i type="int" name="TURBO">     0</i>
   <i type="int" name="IRESTART">     0</i>
   <i type="int" name="NREBOOT">     0</i>
   <i type="int" name="NMIN">     0</i>
   <i name="EREF">      0.00000000</i>
   <separator name="electronic smearing" >
    <i type="int" name="ISMEAR">     1</i>
    <i name="SIGMA">      0.15000000</i>
    <i name="KSPACING">      0.50000000</i>
    <i type="logical" name="KGAMMA"> T  </i>
   </separator>
   <separator name="electronic projectors" >
    <i type="logical" name="LREAL"> T  </i>
    <v name="ROPT">     -0.00025000     -0.00025000     -0.00025000     -0.00025000</v>
    <i type="int" name="LMAXPAW">  -100</i>
    <i type="int" name="LMAXMIX">     2</i>
    <i type="logical" name="NLSPLINE"> F  </i>
   </separator>
   <separator name="electronic startup" >
    <i type="int" name="ISTART">     0</i>
    <i type="int" name="ICHARG">     2</i>
    <i type="int" name="INIWAV">     1</i>
   </separator>
   <separator name="electronic spin" >
    <i type="int" name="ISPIN">     1</i>
    <i type="logical" name="LNONCOLLINEAR"> F  </i>
    <v name="MAGMOM">      1.00000000      1.00000000      1.00000000      1.00000000      1.00000000      1.00000000      1.00000000      1.00000000      1.00000000      1.00000000      1.00000000      1.00000000      1.00000000      1.00000000      1.00000000      1.00000000      1.00000000      1.00000000      1.00000000      1.00000000
      1.00000000      1.00000000      1.00000000      1.00000000      1.00000000      1.00000000      1.00000000      1.00000000      1.00000000      1.00000000      1.00000000      1.00000000      1.00000000      1.00000000      1.00000000      1.00000000</v>
    <i name="NUPDOWN">     -1.00000000</i>
    <i type="logical" name="LSORBIT"> F  </i>
    <v name="SAXIS">      0.00000000      0.00000000      1.00000000</v>
    <i type="logical" name="LSPIRAL"> F  </i>
    <v name="QSPIRAL">      0.00000000      0.00000000      0.00000000</v>
    <i type="logical" name="LZEROZ"> F  </i>
   </separator>
   <separator name="electronic exchange-correlation" >
    <i type="logical" name="LASPH"> F  </i>
    <i type="logical" name="LMETAGGA"> F  </i>
   </separator>
   <separator name="electronic convergence" >
    <i type="int" name="NELM">    70</i>
    <i type="int" name="NELMDL">    -5</i>
    <i type="int" name="NELMIN">     2</i>
    <i name="ENINI">    300.00000000</i>
    <separator name="electronic convergence detail" >
     <i type="logical" name="LDIAG"> T  </i>
     <i type="logical" name="LSUBROT"> F  </i>
     <i name="WEIMIN">      0.00100000</i>
     <i name="EBREAK">      0.00000001</i>
     <i name="DEPER">      0.30000000</i>
     <i type="int" name="NRMM">     4</i>
     <i name="TIME">      0.40000000</i>
    </separator>
   </separator>
   <separator name="electronic mixer" >
    <i name="AMIX">      0.40000000</i>
    <i name="BMIX">      1.00000000</i>
    <i name="AMIN">      0.10000000</i>
    <i name="AMIX_MAG">      1.60000000</i>
    <i name="BMIX_MAG">      1.00000000</i>
    <separator name="electronic mixer details" >
     <i type="int" name="IMIX">     4</i>
     <i type="logical" name="MIXFIRST"> F  </i>
     <i type="int" name="MAXMIX">   -45</i>
     <i name="WC">    100.00000000</i>
     <i type="int" name="INIMIX">     1</i>
     <i type="int" name="MIXPRE">     1</i>
     <i type="int" name="MREMOVE">     5</i>
    </separator>
   </separator>
   <separator name="electronic dipolcorrection" >
    <i type="logical" name="LDIPOL"> F  </i>
    <i type="logical" name="LMONO"> F  </i>
    <i type="int" name="IDIPOL">     0</i>
    <i name="EPSILON">      1.00000000</i>
    <v name="DIPOL">   -100.00000000   -100.00000000   -100.00000000</v>
    <i name="EFIELD">      0.00000000</i>
   </separator>
  </separator>
  <separator name="grids" >
   <i type="int" name="NGX">    40</i>
   <i type="int" name="NGY">    60</i>
   <i type="int" name="NGZ">    60</i>
   <i type="int" name="NGXF">    80</i>
   <i type="int" name="NGYF">   120</i>
   <i type="int" name="NGZF">   120</i>
   <i type="logical" name="ADDGRID"> F  </i>
  </separator>
  <separator name="ionic" >
   <i type="int" name="NSW">   300</i>
   <i type="int" name="IBRION">     2</i>
   <i type="int" name="ISIF">     3</i>
   <i name="PSTRESS">      0.00000000</i>
   <i name="EDIFFG">     -0.01000000</i>
   <i type="int" name="NFREE">     1</i>
   <i name="POTIM">      0.15000000</i>
   <i name="SMASS">     -3.00000000</i>
   <i name="SCALEE">      1.00000000</i>
  </separator>
  <separator name="ionic md" >
   <i name="TEBEG">      0.00010000</i>
   <i name="TEEND">      0.00010000</i>
   <i type="int" name="NBLOCK">     1</i>
   <i type="int" name="KBLOCK">   300</i>
   <i type="int" name="NPACO">   256</i>
   <i name="APACO">     16.00000000</i>
  </separator>
  <separator name="symmetry" >
   <i type="int" name="ISYM">     1</i>
   <i name="SYMPREC">      0.00001000</i>
  </separator>
  <separator name="dos" >
   <i type="logical" name="LORBIT"> F  </i>
   <v name="RWIGS">     -1.00000000     -1.00000000     -1.00000000     -1.00000000</v>
   <i type="int" name="NEDOS">   301</i>
   <i name="EMIN">     10.00000000</i>
   <i name="EMAX">    -10.00000000</i>
   <i name="EFERMI">      0.00000000</i>
  </separator>
  <separator name="writing" >
   <i type="int" name="NWRITE">     2</i>
   <i type="logical" name="LWAVE"> F  </i>
   <i type="logical" name="LCHARG"> F  </i>
   <i type="logical" name="LPARD"> F  </i>
   <i type="logical" name="LVTOT"> F  </i>
   <i type="logical" name="LVHAR"> F  </i>
   <i type="logical" name="LELF"> F  </i>
   <i type="logical" name="LOPTICS"> F  </i>
   <v name="STM">      0.00000000      0.00000000      0.00000000      0.00000000      0.00000000      0.00000000      0.00000000</v>
  </separator>
  <separator name="performance" >
   <i type="int" name="NPAR">     4</i>
   <i type="int" name="NSIM">     4</i>
   <i type="int" name="NBLK">    -1</i>
   <i type="logical" name="LPLANE"> T  </i>
   <i type="logical" name="LSCALAPACK"> T  </i>
   <i type="logical" name="LSCAAWARE"> F  </i>
   <i type="logical" name="LSCALU"> F  </i>
   <i type="logical" name="LASYNC"> F  </i>
   <i type="logical" name="LORBITALREAL"> F  </i>
  </separator>
  <separator name="miscellaneous" >
   <i type="int" name="IDIOT">     3</i>
   <i type="logical" name="LMUSIC"> F  </i>
   <v name="POMASS">    180.94800000     91.22400000    178.49000000     92.91000000</v>
   <v name="DARWINR">      0.00000000      0.00000000      0.00000000      0.00000000</v>
   <v name="DARWINV">      1.00000000      1.00000000      1.00000000      1.00000000</v>
   <i type="logical" name="LCORR"> T  </i>
  </separator>
  <i type="logical" name="GGA_COMPAT"> T  </i>
  <i type="logical" name="LBERRY"> F  </i>
  <i type="int" name="ICORELEVEL">     0</i>
  <i type="logical" name="LDAU"> F  </i>
  <i type="int" name="I_CONSTRAINED_M">     0</i>
  <separator name="electronic exchange-correlation" >
   <i type="string" name="GGA">--</i>
   <i type="int" name="VOSKOWN">     0</i>
   <i type="logical" name="LHFCALC"> F  </i>
   <i type="string" name="PRECFOCK"></i>
   <i type="logical" name="LSYMGRAD"> F  </i>
   <i type="logical" name="LHFONE"> F  </i>
   <i type="logical" name="LRHFCALC"> F  </i>
   <i type="logical" name="LTHOMAS"> F  </i>
   <i type="logical" name="LMODELHF"> F  </i>
   <i name="ENCUT4O">     -1.00000000</i>
   <i type="int" name="EXXOEP">     0</i>
   <i type="int" name="FOURORBIT">     0</i>
   <i name="AEXX">      0.00000000</i>
   <i name="HFALPHA">      0.00000000</i>
   <i name="MCALPHA">      0.00000000</i>
   <i name="ALDAX">      1.00000000</i>
   <i name="AGGAX">      1.00000000</i>
   <i name="ALDAC">      1.00000000</i>
   <i name="AGGAC">      1.00000000</i>
   <i type="int" name="NKREDX">     1</i>
   <i type="int" name="NKREDY">     1</i>
   <i type="int" name="NKREDZ">     1</i>
   <i type="logical" name="SHIFTRED"> F  </i>
   <i type="logical" name="ODDONLY"> F  </i>
   <i type="logical" name="EVENONLY"> F  </i>
   <i type="int" name="LMAXFOCK">     0</i>
   <i type="int" name="NMAXFOCKAE">     0</i>
   <i type="logical" name="LFOCKAEDFT"> F  </i>
   <i name="HFSCREEN">      0.00000000</i>
   <i name="HFSCREENC">      0.00000000</i>
   <i type="int" name="NBANDSGWLOW">     0</i>
  </separator>
  <separator name="vdW DFT" >
   <i type="logical" name="LUSE_VDW"> F  </i>
   <i name="Zab_VDW">     -0.84910000</i>
   <i name="PARAM1">      0.12340000</i>
   <i name="PARAM2">      1.00000000</i>
   <i name="PARAM3">      0.00000000</i>
  </separator>
  <separator name="model GW" >
   <i type="int" name="MODEL_GW">     0</i>
   <i name="MODEL_EPS0">     12.38580468</i>
   <i name="MODEL_ALPHA">      1.00000000</i>
  </separator>
  <separator name="linear response parameters" >
   <i type="logical" name="LEPSILON"> F  </i>
   <i type="logical" name="LRPA"> F  </i>
   <i type="logical" name="LNABLA"> F  </i>
   <i type="logical" name="LVEL"> F  </i>
   <i type="int" name="KINTER">     0</i>
   <i name="CSHIFT">      0.10000000</i>
   <i name="OMEGAMAX">     -1.00000000</i>
   <i name="DEG_THRESHOLD">      0.00200000</i>
  </separator>
  <separator name="orbital magnetization" >
   <i type="logical" name="NUCIND"> F  </i>
   <v name="MAGPOS">      0.00000000      0.00000000      0.00000000</v>
   <i type="logical" name="LNICSALL"> T  </i>
   <i type="logical" name="ORBITALMAG"> F  </i>
   <i type="logical" name="LMAGBLOCH"> F  </i>
   <i type="logical" name="LCHIMAG"> F  </i>
   <i type="logical" name="LGAUGE"> T  </i>
   <i type="int" name="MAGATOM">     0</i>
   <v name="MAGDIPOL">      0.00000000      0.00000000      0.00000000</v>
   <v name="AVECCONST">      0.00000000      0.00000000      0.00000000</v>
  </separator>
  <separator name="response functions" >
   <i type="logical" name="LADDER"> F  </i>
   <i type="logical" name="LFXC"> F  </i>
   <i type="logical" name="LHARTREE"> T  </i>
   <i type="int" name="IBSE">     0</i>
   <v type="int" name="KPOINT">    -1     0     0     0</v>
   <i type="logical" name="LTCTE"> F  </i>
   <i type="logical" name="LTETE"> F  </i>
   <i type="logical" name="LTRIPLET"> F  </i>
   <i type="logical" name="LFXCEPS"> F  </i>
   <i type="logical" name="LFXHEG"> F  </i>
   <i type="int" name="NATURALO">     0</i>
   <i type="logical" name="L2ORDER"> F  </i>
   <i type="logical" name="LUSEW"> F  </i>
   <i name="ENCUTGW">     -2.00000000</i>
   <i name="ENCUTGWSOFT">     -2.00000000</i>
   <i name="ENCUTLF">     -1.00000000</i>
   <i type="int" name="LMAXMP2">    -1</i>
   <i name="SCISSOR">      0.00000000</i>
   <i type="int" name="NOMEGA">     0</i>
   <i type="int" name="NOMEGAR">     0</i>
   <i type="int" name="NBANDSGW">    -1</i>
   <i type="int" name="NBANDSO">    -1</i>
   <i type="int" name="NBANDSV">    -1</i>
   <i type="int" name="NELM">    70</i>
   <i type="int" name="NELMHF">     1</i>
   <i type="int" name="DIM">     3</i>
   <i type="int" name="ANTIRES">     0</i>
   <i name="OMEGAMAX">    -30.00000000</i>
   <i name="OMEGAMIN">    -30.00000000</i>
   <i name="OMEGATL">   -200.00000000</i>
   <i type="int" name="OMEGAGRID">     0</i>
   <i name="CSHIFT">     -0.10000000</i>
   <i type="logical" name="SELFENERGY"> F  </i>
   <i type="logical" name="LSPECTRAL"> F  </i>
   <i type="logical" name="LSPECTRALGW"> F  </i>
   <i type="logical" name="LSINGLES"> F  </i>
   <i type="logical" name="LFERMIGW"> F  </i>
   <i type="logical" name="ODDONLYGW"> F  </i>
   <i type="logical" name="EVENONLYGW"> F  </i>
   <i type="int" name="NKREDLFX">     1</i>
   <i type="int" name="NKREDLFY">     1</i>
   <i type="int" name="NKREDLFZ">     1</i>
   <i type="int" name="MAXMEM">  1800</i>
   <i type="int" name="TELESCOPE">     0</i>
   <i type="int" name="TAUPAR">     1</i>
   <i type="int" name="OMEGAPAR">    -1</i>
   <i name="LAMBDA">      1.00000000</i>
  </separator>
  <separator name="External order field" >
   <i name="OFIELD_KAPPA">      0.00000000</i>
   <v name="OFIELD_K">      0.00000000      0.00000000      0.00000000</v>
   <i name="OFIELD_Q6_NEAR">      0.00000000</i>
   <i name="OFIELD_Q6_FAR">      0.00000000</i>
   <i name="OFIELD_A">      0.00000000</i>
  </separator>
 </parameters>
 <atominfo>
  <atoms>      36 </atoms>
  <types>       4 </types>
  <array name="atoms" >
   <dimension dim="1">ion</dimension>
   <field type="string">element</field>
   <field type="int">atomtype</field>
   <set>
    <rc><c>Ta</c><c>   1</c></rc>
    <rc><c>Ta</c><c>   1</c></rc>
    <rc><c>Ta</c><c>   1</c></rc>
    <rc><c>Ta</c><c>   1</c></rc>
    <rc><c>Ta</c><c>   1</c></rc>
    <rc><c>Ta</c><c>   1</c></rc>
    <rc><c>Ta</c><c>   1</c></rc>
    <rc><c>Ta</c><c>   1</c></rc>
    <rc><c>Ta</c><c>   1</c></rc>
    <rc><c>Ta</c><c>   1</c></rc>
    <rc><c>Zr</c><c>   2</c></rc>
    <rc><c>Zr</c><c>   2</c></rc>
    <rc><c>Zr</c><c>   2</c></rc>
    <rc><c>Zr</c><c>   2</c></rc>
    <rc><c>Zr</c><c>   2</c></rc>
    <rc><c>Zr</c><c>   2</c></rc>
    <rc><c>Zr</c><c>   2</c></rc>
    <rc><c>Zr</c><c>   2</c></rc>
    <rc><c>Zr</c><c>   2</c></rc>
    <rc><c>Zr</c><c>   2</c></rc>
    <rc><c>Zr</c><c>   2</c></rc>
    <rc><c>Hf</c><c>   3</c></rc>
    <rc><c>Hf</c><c>   3</c></rc>
    <rc><c>Hf</c><c>   3</c></rc>
    <rc><c>Hf</c><c>   3</c></rc>
    <rc><c>Hf</c><c>   3</c></rc>
    <rc><c>Hf</c><c>   3</c></rc>
    <rc><c>Hf</c><c>   3</c></rc>
    <rc><c>Hf</c><c>   3</c></rc>
    <rc><c>Hf</c><c>   3</c></rc>
    <rc><c>Hf</c><c>   3</c></rc>
    <rc><c>Nb</c><c>   4</c></rc>
    <rc><c>Nb</c><c>   4</c></rc>
    <rc><c>Nb</c><c>   4</c></rc>
    <rc><c>Nb</c><c>   4</c></rc>
    <rc><c>Nb</c><c>   4</c></rc>
   </set>
  </array>
  <array name="atomtypes" >
   <dimension dim="1">type</dimension>
   <field type="int">atomspertype</field>
   <field type="string">element</field>
   <field>mass</field>
   <field>valence</field>
   <field type="string">pseudopotential</field>
   <set>
    <rc><c>  10</c><c>Ta</c><c>    180.94800000</c><c>      5.00000000</c><c>  PAW_PBE Ta 17Jan2003                  </c></rc>
    <rc><c>  11</c><c>Zr</c><c>     91.22400000</c><c>     12.00000000</c><c>  PAW_PBE Zr_sv 04Jan2005               </c></rc>
    <rc><c>  10</c><c>Hf</c><c>    178.49000000</c><c>      4.00000000</c><c>  PAW_PBE Hf 20Jan2003                  </c></rc>
    <rc><c>   5</c><c>Nb</c><c>     92.91000000</c><c>     13.00000000</c><c>  PAW_PBE Nb_sv 25May2007               </c></rc>
   </set>
  </array>
 </atominfo>
 <structure name="initialpos" >
  <crystal>
   <varray name="basis" >
    <v>       7.03932349       0.01783820       0.00904879 </v>
    <v>       0.02643305      10.27643738       0.01471551 </v>
    <v>       0.01274513       0.01456587      10.27321494 </v>
   </varray>
   <i name="volume">    743.14828075 </i>
   <varray name="rec_basis" >
    <v>       0.14206026      -0.00036516      -0.00017572 </v>
    <v>      -0.00024642       0.09731082      -0.00013767 </v>
    <v>      -0.00012478      -0.00013907       0.09734086 </v>
   </varray>
  </crystal>
  <varray name="positions" >
   <v>       0.73772700       0.83441900       0.15732400 </v>
   <v>       0.98300900       0.98574000       0.31682300 </v>
   <v>       0.25981300       0.84675200       0.16660600 </v>
   <v>       0.78460200       0.15486700       0.48704000 </v>
   <v>       0.49179000       0.67580500       0.00819100 </v>
   <v>       0.46473200       0.67339100       0.66022000 </v>
   <v>       0.23599400       0.51315800       0.51408800 </v>
   <v>       0.03293800       0.68405200       0.67443700 </v>
   <v>       0.72640700       0.50468500       0.15337900 </v>
   <v>       0.23862900       0.83262100       0.49674300 </v>
   <v>       0.51463200       0.33269800       0.34331800 </v>
   <v>       0.99208500       0.32150400       0.67550700 </v>
   <v>       0.27574400       0.48417400       0.15278000 </v>
   <v>       0.98578100       0.34770400       0.32633800 </v>
   <v>       0.49179100       0.66749500       0.33385200 </v>
   <v>       0.21302900       0.15517000       0.48392800 </v>
   <v>       0.00587100       0.67107700       0.00935500 </v>
   <v>       0.76557100       0.51976500       0.52134300 </v>
   <v>       0.75928500       0.82916600       0.50965600 </v>
   <v>       0.25767700       0.49611300       0.83361900 </v>
   <v>       0.25559500       0.16207300       0.16266200 </v>
   <v>       0.49530900       0.00688200       0.65529600 </v>
   <v>       0.28218300       0.17372100       0.85043400 </v>
   <v>       0.99293700       0.99867900       0.99722900 </v>
   <v>       0.00456200       0.99883400       0.68402900 </v>
   <v>       0.00582900       0.66803400       0.32287100 </v>
   <v>       0.51332000       0.99623400       0.33418900 </v>
   <v>       0.50568600       0.32627900       0.65112100 </v>
   <v>       0.97291800       0.32681700       0.99822000 </v>
   <v>       0.73094100       0.82318300       0.83100800 </v>
   <v>       0.73936600       0.51406200       0.83170800 </v>
   <v>       0.74686900       0.15915900       0.16807200 </v>
   <v>       0.72068500       0.16218800       0.84137400 </v>
   <v>       0.26872000       0.83116600       0.83719400 </v>
   <v>       0.53745700       0.32793600       0.00334500 </v>
   <v>       0.51050300       0.99440300       0.00669700 </v>
  </varray>
 </structure>
 <calculation>
  <scstep>
   <time name="dav">    0.97    0.97</time>
   <time name="total">    1.24    1.43</time>
   <energy>
    <i name="alphaZ">   1438.84851854 </i>
    <i name="ewald"> -18584.90638872 </i>
    <i name="hartreedc">  -6240.75473440 </i>
    <i name="XCdc">   -364.46445227 </i>
    <i name="pawpsdc">  20341.95372253 </i>
    <i name="pawaedc"> -18710.88631023 </i>
    <i name="eentropy">     -0.00585889 </i>
    <i name="bandstr">    -97.45424052 </i>
    <i name="atom">  23966.86378612 </i>
    <i name="e_fr_energy">   1749.19404217 </i>
    <i name="e_wo_entrp">   1749.19990106 </i>
    <i name="e_0_energy">   1749.19599513 </i>
   </energy>
  </scstep>
  <scstep>
   <time name="dav">    1.11    1.11</time>
   <time name="total">    1.11    1.21</time>
   <energy>
    <i name="e_fr_energy">    -81.77535585 </i>
    <i name="e_wo_entrp">    -81.78149979 </i>
    <i name="e_0_energy">    -81.77740383 </i>
   </energy>
  </scstep>
  <scstep>
   <time name="dav">    1.40    1.43</time>
   <time name="total">    1.41    1.45</time>
   <energy>
    <i name="e_fr_energy">   -338.56438037 </i>
    <i name="e_wo_entrp">   -338.56985550 </i>
    <i name="e_0_energy">   -338.56620541 </i>
   </energy>
  </scstep>
  <scstep>
   <time name="dav">    1.34    1.35</time>
   <time name="total">    1.34    1.37</time>
   <energy>
    <i name="e_fr_energy">   -370.75513576 </i>
    <i name="e_wo_entrp">   -370.76518904 </i>
    <i name="e_0_energy">   -370.75848686 </i>
   </energy>
  </scstep>
  <scstep>
   <time name="dav">    1.32    1.33</time>
   <time name="total">    1.36    1.38</time>
   <energy>
    <i name="e_fr_energy">   -374.12901237 </i>
    <i name="e_wo_entrp">   -374.13736263 </i>
    <i name="e_0_energy">   -374.13179579 </i>
   </energy>
  </scstep>
  <scstep>
   <time name="diag">    0.08    0.08</time>
   <time name="diis">    0.72    0.72</time>
   <time name="orth">    0.01    0.01</time>
   <time name="total">    0.87    0.89</time>
   <energy>
    <i name="e_fr_energy">   -364.06678746 </i>
    <i name="e_wo_entrp">   -364.07737492 </i>
    <i name="e_0_energy">   -364.07031661 </i>
   </energy>
  </scstep>
  <scstep>
   <time name="diag">    0.08    0.09</time>
   <time name="diis">    0.73    0.74</time>
   <time name="orth">    0.01    0.01</time>
   <time name="total">    0.90    0.92</time>
   <energy>
    <i name="e_fr_energy">   -366.23387176 </i>
    <i name="e_wo_entrp">   -366.24138193 </i>
    <i name="e_0_energy">   -366.23637515 </i>
   </energy>
  </scstep>
  <scstep>
   <time name="diag">    0.08    0.08</time>
   <time name="diis">    0.74    0.75</time>
   <time name="orth">    0.01    0.01</time>
   <time name="total">    0.90    0.92</time>
   <energy>
    <i name="e_fr_energy">   -359.74754177 </i>
    <i name="e_wo_entrp">   -359.77317170 </i>
    <i name="e_0_energy">   -359.75608508 </i>
   </energy>
  </scstep>
  <scstep>
   <time name="diag">    0.07    0.07</time>
   <time name="diis">    0.74    0.75</time>
   <time name="orth">    0.01    0.01</time>
   <time name="total">    0.90    0.93</time>
   <energy>
    <i name="e_fr_energy">   -359.42838511 </i>
    <i name="e_wo_entrp">   -359.44914009 </i>
    <i name="e_0_energy">   -359.43530344 </i>
   </energy>
  </scstep>
  <scstep>
   <time name="diag">    0.08    0.08</time>
   <time name="diis">    0.75    0.76</time>
   <time name="orth">    0.01    0.01</time>
   <time name="total">    0.91    0.95</time>
   <energy>
    <i name="e_fr_energy">   -359.40947491 </i>
    <i name="e_wo_entrp">   -359.43219393 </i>
    <i name="e_0_energy">   -359.41704792 </i>
   </energy>
  </scstep>
  <scstep>
   <time name="diag">    0.08    0.08</time>
   <time name="diis">    0.83    0.86</time>
   <time name="orth">    0.01    0.01</time>
   <time name="total">    0.98    1.04</time>
   <energy>
    <i name="e_fr_energy">   -359.39317752 </i>
    <i name="e_wo_entrp">   -359.41585109 </i>
    <i name="e_0_energy">   -359.40073538 </i>
   </energy>
  </scstep>
  <scstep>
   <time name="diag">    0.11    0.12</time>
   <time name="diis">    0.81    0.83</time>
   <time name="orth">    0.01    0.01</time>
   <time name="total">    1.01    1.10</time>
   <energy>
    <i name="e_fr_energy">   -359.39049892 </i>
    <i name="e_wo_entrp">   -359.41399798 </i>
    <i name="e_0_energy">   -359.39833194 </i>
   </energy>
  </scstep>
  <scstep>
   <time name="diag">    0.08    0.08</time>
   <time name="diis">    0.76    0.77</time>
   <time name="orth">    0.01    0.01</time>
   <time name="total">    0.94    0.97</time>
   <energy>
    <i name="e_fr_energy">   -359.38914985 </i>
    <i name="e_wo_entrp">   -359.41283286 </i>
    <i name="e_0_energy">   -359.39704419 </i>
   </energy>
  </scstep>
  <scstep>
   <time name="diag">    0.08    0.08</time>
   <time name="diis">    0.76    0.76</time>
   <time name="orth">    0.01    0.01</time>
   <time name="total">    0.91    0.94</time>
   <energy>
    <i name="e_fr_energy">   -359.38972321 </i>
    <i name="e_wo_entrp">   -359.41331054 </i>
    <i name="e_0_energy">   -359.39758565 </i>
   </energy>
  </scstep>
  <scstep>
   <time name="diag">    0.08    0.08</time>
   <time name="diis">    0.86    0.86</time>
   <time name="orth">    0.01    0.01</time>
   <time name="total">    1.05    1.09</time>
   <energy>
    <i name="e_fr_energy">   -359.39007187 </i>
    <i name="e_wo_entrp">   -359.41363884 </i>
    <i name="e_0_energy">   -359.39792753 </i>
   </energy>
  </scstep>
  <scstep>
   <time name="diag">    0.08    0.08</time>
   <time name="diis">    0.66    0.66</time>
   <time name="orth">    0.01    0.01</time>
   <time name="total">    0.84    0.87</time>
   <energy>
    <i name="e_fr_energy">   -359.39020551 </i>
    <i name="e_wo_entrp">   -359.41377503 </i>
    <i name="e_0_energy">   -359.39806202 </i>
   </energy>
  </scstep>
  <scstep>
   <time name="diag">    0.08    0.08</time>
   <time name="diis">    0.55    0.71</time>
   <time name="orth">    0.01    0.01</time>
   <time name="total">    0.70    0.89</time>
   <energy>
    <i name="e_fr_energy">   -359.39024674 </i>
    <i name="e_wo_entrp">   -359.41387242 </i>
    <i name="e_0_energy">   -359.39812197 </i>
   </energy>
  </scstep>
  <scstep>
   <time name="diag">    0.08    0.09</time>
   <time name="diis">    0.63    0.63</time>
   <time name="orth">    0.01    0.01</time>
   <time name="total">    0.78    0.85</time>
   <energy>
    <i name="e_fr_energy">   -359.39028398 </i>
    <i name="e_wo_entrp">   -359.41392941 </i>
    <i name="e_0_energy">   -359.39816579 </i>
   </energy>
  </scstep>
  <scstep>
   <time name="diag">    0.07    0.07</time>
   <time name="diis">    0.49    0.50</time>
   <time name="orth">    0.01    0.01</time>
   <time name="total">    0.65    0.67</time>
   <energy>
    <i name="e_fr_energy">   -359.39029949 </i>
    <i name="e_wo_entrp">   -359.41395183 </i>
    <i name="e_0_energy">   -359.39818360 </i>
   </energy>
  </scstep>
  <scstep>
   <time name="diag">    0.07    0.07</time>
   <time name="diis">    0.48    0.48</time>
   <time name="orth">    0.01    0.01</time>
   <time name="total">    0.63    0.66</time>
   <energy>
    <i name="e_fr_energy">   -359.39030833 </i>
    <i name="e_wo_entrp">   -359.41395811 </i>
    <i name="e_0_energy">   -359.39819159 </i>
   </energy>
  </scstep>
  <scstep>
   <time name="diag">    0.07    0.07</time>
   <time name="diis">    0.43    0.43</time>
   <time name="orth">    0.01    0.01</time>
   <time name="total">    0.54    0.58</time>
   <energy>
    <i name="alphaZ">   1438.84851854 </i>
    <i name="ewald"> -18584.90638872 </i>
    <i name="hartreedc">  -6010.22265699 </i>
    <i name="XCdc">   -363.50893049 </i>
    <i name="pawpsdc">  33112.60332137 </i>
    <i name="pawaedc"> -31467.18028700 </i>
    <i name="eentropy">      0.02365111 </i>
    <i name="bandstr">  -2451.91132527 </i>
    <i name="atom">  23966.86378612 </i>
    <i name="e_fr_energy">   -359.39031133 </i>
    <i name="e_wo_entrp">   -359.41396244 </i>
    <i name="e_0_energy">   -359.39819503 </i>
   </energy>
  </scstep>
  <structure>
   <crystal>
    <varray name="basis" >
     <v>       7.03932349       0.01783820       0.00904879 </v>
     <v>       0.02643305      10.27643738       0.01471551 </v>
     <v>       0.01274513       0.01456587      10.27321494 </v>
    </varray>
    <i name="volume">    743.14828075 </i>
    <varray name="rec_basis" >
     <v>       0.14206026      -0.00036516      -0.00017572 </v>
     <v>      -0.00024642       0.09731082      -0.00013767 </v>
     <v>      -0.00012478      -0.00013907       0.09734086 </v>
    </varray>
   </crystal>
   <varray name="positions" >
    <v>       0.73772700       0.83441900       0.15732400 </v>
    <v>       0.98300900       0.98574000       0.31682300 </v>
    <v>       0.25981300       0.84675200       0.16660600 </v>
    <v>       0.78460200       0.15486700       0.48704000 </v>
    <v>       0.49179000       0.67580500       0.00819100 </v>
    <v>       0.46473200       0.67339100       0.66022000 </v>
    <v>       0.23599400       0.51315800       0.51408800 </v>
    <v>       0.03293800       0.68405200       0.67443700 </v>
    <v>       0.72640700       0.50468500       0.15337900 </v>
    <v>       0.23862900       0.83262100       0.49674300 </v>
    <v>       0.51463200       0.33269800       0.34331800 </v>
    <v>       0.99208500       0.32150400       0.67550700 </v>
    <v>       0.27574400       0.48417400       0.15278000 </v>
    <v>       0.98578100       0.34770400       0.32633800 </v>
    <v>       0.49179100       0.66749500       0.33385200 </v>
    <v>       0.21302900       0.15517000       0.48392800 </v>
    <v>       0.00587100       0.67107700       0.00935500 </v>
    <v>       0.76557100       0.51976500       0.52134300 </v>
    <v>       0.75928500       0.82916600       0.50965600 </v>
    <v>       0.25767700       0.49611300       0.83361900 </v>
    <v>       0.25559500       0.16207300       0.16266200 </v>
    <v>       0.49530900       0.00688200       0.65529600 </v>
    <v>       0.28218300       0.17372100       0.85043400 </v>
    <v>       0.99293700       0.99867900       0.99722900 </v>
    <v>       0.00456200       0.99883400       0.68402900 </v>
    <v>       0.00582900       0.66803400       0.32287100 </v>
    <v>       0.51332000       0.99623400       0.33418900 </v>
    <v>       0.50568600       0.32627900       0.65112100 </v>
    <v>       0.97291800       0.32681700       0.99822000 </v>
    <v>       0.73094100       0.82318300       0.83100800 </v>
    <v>       0.73936600       0.51406200       0.83170800 </v>
    <v>       0.74686900       0.15915900       0.16807200 </v>
    <v>       0.72068500       0.16218800       0.84137400 </v>
    <v>       0.26872000       0.83116600       0.83719400 </v>
    <v>       0.53745700       0.32793600       0.00334500 </v>
    <v>       0.51050300       0.99440300       0.00669700 </v>
   </varray>
  </structure>
  <varray name="forces" >
   <v>       0.00861672      -0.00189137      -0.00795236 </v>
   <v>       0.00718732      -0.00276568      -0.00336889 </v>
   <v>      -0.00848313      -0.00528942      -0.01611435 </v>
   <v>      -0.05168553      -0.03933539       0.03358754 </v>
   <v>       0.00303839       0.00191677       0.00164712 </v>
   <v>       0.00535427       0.08593079      -0.00515757 </v>
   <v>       0.01963059       0.01078347      -0.00997593 </v>
   <v>       0.00361538      -0.01972165       0.01329252 </v>
   <v>       0.00955032      -0.00914551       0.00257671 </v>
   <v>       0.03544189       0.04609997       0.02039365 </v>
   <v>      -0.00975807       0.00076158      -0.00173560 </v>
   <v>      -0.00355807       0.02865612      -0.00634413 </v>
   <v>      -0.00470431       0.00223759       0.00383208 </v>
   <v>       0.00641978       0.01699263       0.00206876 </v>
   <v>       0.00181424      -0.01469515      -0.00176825 </v>
   <v>       0.02155387      -0.02341016       0.01382128 </v>
   <v>       0.00099290      -0.00098393      -0.00060910 </v>
   <v>      -0.01530020       0.00432603       0.00684076 </v>
   <v>      -0.00236641      -0.00787484       0.00622900 </v>
   <v>       0.00414848       0.00700282      -0.00828242 </v>
   <v>       0.00169731      -0.00084554      -0.01498820 </v>
   <v>      -0.02162159       0.02288305      -0.03540767 </v>
   <v>       0.04656492      -0.02986346      -0.04271982 </v>
   <v>      -0.00303174      -0.00262705       0.02225186 </v>
   <v>       0.01149416       0.01298054      -0.00340571 </v>
   <v>      -0.00927590       0.00445313       0.00171686 </v>
   <v>      -0.01105326       0.01786758       0.10264852 </v>
   <v>      -0.00667113      -0.13089723      -0.00611745 </v>
   <v>      -0.00756878       0.00961461       0.00713033 </v>
   <v>      -0.00999608       0.01743041      -0.01797721 </v>
   <v>      -0.01012054       0.00600211      -0.00258351 </v>
   <v>      -0.00576515      -0.02441158      -0.00066697 </v>
   <v>      -0.01784722      -0.01837844      -0.00454881 </v>
   <v>       0.00997822       0.01369234      -0.00616464 </v>
   <v>      -0.00345011       0.00550500       0.00657713 </v>
   <v>       0.00515844       0.01699986      -0.04872553 </v>
  </varray>
  <varray name="stress" >
   <v>      -1.43736245      -0.15797621       0.01815618 </v>
   <v>      -0.15797619      -1.65892400      -0.01471929 </v>
   <v>       0.01815616      -0.01471926      -1.29142593 </v>
  </varray>
  <energy>
   <i name="e_fr_energy">   -359.39031133 </i>
   <i name="e_wo_entrp">   -359.39819503 </i>
   <i name="e_0_energy">      0.02365111 </i>
  </energy>
  <time name="totalsc">   21.61   22.84</time>
 </calculation>
 <calculation>
  <scstep>
   <time name="dav">    1.01    1.02</time>
   <time name="total">    1.16    1.27</time>
   <energy>
    <i name="alphaZ">   1440.02641225 </i>
    <i name="ewald"> -18590.51380557 </i>
    <i name="hartreedc">  -6011.34708985 </i>
    <i name="XCdc">   -363.28597226 </i>
    <i name="pawpsdc">  33112.60272065 </i>
    <i name="pawaedc"> -31467.17788908 </i>
    <i name="eentropy">      0.02366926 </i>
    <i name="bandstr">  -2446.58463241 </i>
    <i name="atom">  23966.86378612 </i>
    <i name="e_fr_energy">   -359.39280088 </i>
    <i name="e_wo_entrp">   -359.41647014 </i>
    <i name="e_0_energy">   -359.40069063 </i>
   </energy>
  </scstep>
  <scstep>
   <time name="diag">    0.08    0.08</time>
   <time name="diis">    0.74    0.74</time>
   <time name="orth">    0.01    0.01</time>
   <time name="total">    1.07    1.09</time>
   <energy>
    <i name="e_fr_energy">   -359.39195590 </i>
    <i name="e_wo_entrp">   -359.41567908 </i>
    <i name="e_0_energy">   -359.39986363 </i>
   </energy>
  </scstep>
  <scstep>
   <time name="diag">    0.07    0.08</time>
   <time name="diis">    0.77    0.77</time>
   <time name="orth">    0.01    0.01</time>
   <time name="total">    0.92    0.94</time>
   <energy>
    <i name="e_fr_energy">   -359.39174418 </i>
    <i name="e_wo_entrp">   -359.41536831 </i>
    <i name="e_0_energy">   -359.39961889 </i>
   </energy>
  </scstep>
  <scstep>
   <time name="diag">    0.14    0.14</time>
   <time name="diis">    0.82    0.82</time>
   <time name="orth">    0.01    0.01</time>
   <time name="total">    1.05    1.07</time>
   <energy>
    <i name="e_fr_energy">   -359.39152773 </i>
    <i name="e_wo_entrp">   -359.41527454 </i>
    <i name="e_0_energy">   -359.39944333 </i>
   </energy>
  </scstep>
  <scstep>
   <time name="diag">    0.07    0.07</time>
   <time name="diis">    0.67    0.67</time>
   <time name="orth">    0.01    0.01</time>
   <time name="total">    0.82    0.84</time>
   <energy>
    <i name="e_fr_energy">   -359.39152013 </i>
    <i name="e_wo_entrp">   -359.41524297 </i>
    <i name="e_0_energy">   -359.39942774 </i>
   </energy>
  </scstep>
  <scstep>
   <time name="diag">    0.07    0.07</time>
   <time name="diis">    0.42    0.43</time>
   <time name="orth">    0.01    0.01</time>
   <time name="total">    0.57    0.60</time>
   <energy>
    <i name="e_fr_energy">   -359.39153421 </i>
    <i name="e_wo_entrp">   -359.41524689 </i>
    <i name="e_0_energy">   -359.39943844 </i>
   </energy>
  </scstep>
  <scstep>
   <time name="diag">    0.09    0.10</time>
   <time name="diis">    0.38    0.39</time>
   <time name="orth">    0.01    0.01</time>
   <time name="total">    0.57    0.62</time>
   <energy>
    <i name="e_fr_energy">   -359.39154430 </i>
    <i name="e_wo_entrp">   -359.41526910 </i>
    <i name="e_0_energy">   -359.39945257 </i>
   </energy>
  </scstep>
  <scstep>
   <time name="diag">    0.10    0.11</time>
   <time name="diis">    0.34    0.38</time>
   <time name="orth">    0.03    0.03</time>
   <time name="total">    0.53    0.61</time>
   <energy>
    <i name="alphaZ">   1440.02641225 </i>
    <i name="ewald"> -18590.51380557 </i>
    <i name="hartreedc">  -6008.15826310 </i>
    <i name="XCdc">   -363.42348277 </i>
    <i name="pawpsdc">  33148.25546413 </i>
    <i name="pawaedc"> -31502.86142989 </i>
    <i name="eentropy">      0.02372282 </i>
    <i name="bandstr">  -2449.60395423 </i>
    <i name="atom">  23966.86378612 </i>
    <i name="e_fr_energy">   -359.39155025 </i>
    <i name="e_wo_entrp">   -359.41527307 </i>
    <i name="e_0_energy">   -359.39945785 </i>
   </energy>
  </scstep>
  <structure>
   <crystal>
    <varray name="basis" >
     <v>       7.03743626       0.01762529       0.00907040 </v>
     <v>       0.02612329      10.27325761       0.01468385 </v>
     <v>       0.01277607       0.01453279      10.27074099 </v>
    </varray>
    <i name="volume">    742.54041017 </i>
    <varray name="rec_basis" >
     <v>       0.14209833      -0.00036108      -0.00017625 </v>
     <v>      -0.00024361       0.09734092      -0.00013743 </v>
     <v>      -0.00012514      -0.00013885       0.09736431 </v>
    </varray>
   </crystal>
   <varray name="positions" >
    <v>       0.73774475       0.83441632       0.15731279 </v>
    <v>       0.98302380       0.98573609       0.31681825 </v>
    <v>       0.25979563       0.84674461       0.16658332 </v>
    <v>       0.78449586       0.15481172       0.48708749 </v>
    <v>       0.49179623       0.67580769       0.00819331 </v>
    <v>       0.46474257       0.67351201       0.66021255 </v>
    <v>       0.23603433       0.51317314       0.51407389 </v>
    <v>       0.03294550       0.68402419       0.67445576 </v>
    <v>       0.72642668       0.50467208       0.15338263 </v>
    <v>       0.23870157       0.83268576       0.49677157 </v>
    <v>       0.51461194       0.33269911       0.34331557 </v>
    <v>       0.99207755       0.32154438       0.67549801 </v>
    <v>       0.27573431       0.48417716       0.15278540 </v>
    <v>       0.98579410       0.34772790       0.32634087 </v>
    <v>       0.49179481       0.66747430       0.33384954 </v>
    <v>       0.21307340       0.15513693       0.48394748 </v>
    <v>       0.00587305       0.67107561       0.00935414 </v>
    <v>       0.76553950       0.51977113       0.52135266 </v>
    <v>       0.75928016       0.82915491       0.50966480 </v>
    <v>       0.25768551       0.49612286       0.83360731 </v>
    <v>       0.25559853       0.16207183       0.16264088 </v>
    <v>       0.49526451       0.00691438       0.65524611 </v>
    <v>       0.28227900       0.17367886       0.85037379 </v>
    <v>       0.99293072       0.99867527       0.99726036 </v>
    <v>       0.00458557       0.99885225       0.68402416 </v>
    <v>       0.00580990       0.66804030       0.32287343 </v>
    <v>       0.51329692       0.99625900       0.33433359 </v>
    <v>       0.50567299       0.32609469       0.65111266 </v>
    <v>       0.97290237       0.32683055       0.99823004 </v>
    <v>       0.73092040       0.82320762       0.83098266 </v>
    <v>       0.73934517       0.51407049       0.83170437 </v>
    <v>       0.74685728       0.15912464       0.16807112 </v>
    <v>       0.72064841       0.16216219       0.84136766 </v>
    <v>       0.26874046       0.83118526       0.83718527 </v>
    <v>       0.53744986       0.32794375       0.00335426 </v>
    <v>       0.51051364       0.99442702       0.00662831 </v>
   </varray>
  </structure>
  <varray name="forces" >
   <v>       0.00719961      -0.00059019      -0.00449878 </v>
   <v>       0.00741264      -0.00290137      -0.00185336 </v>
   <v>      -0.00759980      -0.00446625      -0.01448328 </v>
   <v>      -0.04460082      -0.03344074       0.03203453 </v>
   <v>       0.00246101       0.00001571       0.00037626 </v>
   <v>       0.00805466       0.07892674      -0.00466604 </v>
   <v>       0.02089514       0.00635683      -0.01111556 </v>
   <v>       0.00013287      -0.01936676       0.01355193 </v>
   <v>       0.01130634      -0.00755521       0.00554290 </v>
   <v>       0.03138478       0.04310599       0.01743366 </v>
   <v>      -0.01070070       0.00170287      -0.00096259 </v>
   <v>      -0.00255623       0.02914319      -0.00637768 </v>
   <v>      -0.00697287       0.00240443       0.00577866 </v>
   <v>       0.00719037       0.01325895       0.00449199 </v>
   <v>       0.00304321      -0.01445680      -0.00107449 </v>
   <v>       0.01676440      -0.01836483       0.01185777 </v>
   <v>       0.00153691      -0.00325949      -0.00320006 </v>
   <v>      -0.01844201       0.00097562       0.00664096 </v>
   <v>      -0.00244192      -0.00689068       0.00479022 </v>
   <v>       0.00456475       0.00534870      -0.00783222 </v>
   <v>       0.00116988       0.00070845      -0.01183938 </v>
   <v>      -0.01867117       0.01753762      -0.03175612 </v>
   <v>       0.03585805      -0.02746052      -0.03762879 </v>
   <v>      -0.00200201      -0.00152517       0.01756573 </v>
   <v>       0.01056030       0.01197363      -0.00143737 </v>
   <v>      -0.00843149       0.00370979       0.00195744 </v>
   <v>      -0.01149312       0.01522954       0.09021661 </v>
   <v>      -0.00507581      -0.11890086      -0.00844407 </v>
   <v>      -0.00273178       0.00780948       0.00474127 </v>
   <v>      -0.00620869       0.01856243      -0.01652534 </v>
   <v>      -0.00983450       0.00420827      -0.00383454 </v>
   <v>      -0.00508833      -0.02066533       0.00104563 </v>
   <v>      -0.01078831      -0.01709301      -0.00671396 </v>
   <v>       0.00697585       0.01650651      -0.00435958 </v>
   <v>      -0.00737301       0.00526284       0.00522032 </v>
   <v>       0.00450181       0.01418962      -0.04464268 </v>
  </varray>
  <varray name="stress" >
   <v>      -0.45191635      -0.13210882       0.02355066 </v>
   <v>      -0.13210885      -0.67047490       0.00087251 </v>
   <v>       0.02355070       0.00087250      -0.34492187 </v>
  </varray>
  <energy>
   <i name="e_fr_energy">   -359.39155025 </i>
   <i name="e_wo_entrp">   -359.39945785 </i>
   <i name="e_0_energy">      0.02372282 </i>
  </energy>
  <time name="totalsc">    8.37    8.81</time>
 </calculation>
 <calculation>
  <scstep>
   <time name="dav">    0.98    0.99</time>
   <time name="total">    1.10    1.25</time>
   <energy>
    <i name="alphaZ">   1442.59512771 </i>
    <i name="ewald"> -18602.72422159 </i>
    <i name="hartreedc">  -6010.63017220 </i>
    <i name="XCdc">   -362.93660305 </i>
    <i name="pawpsdc">  33148.03996209 </i>
    <i name="pawaedc"> -31502.62256984 </i>
    <i name="eentropy">      0.02371409 </i>
    <i name="bandstr">  -2438.00747964 </i>
    <i name="atom">  23966.86378612 </i>
    <i name="e_fr_energy">   -359.39845630 </i>
    <i name="e_wo_entrp">   -359.42217039 </i>
    <i name="e_0_energy">   -359.40636100 </i>
   </energy>
  </scstep>
  <scstep>
   <time name="diag">    0.07    0.07</time>
   <time name="diis">    0.75    0.75</time>
   <time name="orth">    0.01    0.01</time>
   <time name="total">    0.90    0.92</time>
   <energy>
    <i name="e_fr_energy">   -359.39451741 </i>
    <i name="e_wo_entrp">   -359.41835756 </i>
    <i name="e_0_energy">   -359.40246413 </i>
   </energy>
  </scstep>
  <scstep>
   <time name="diag">    0.07    0.07</time>
   <time name="diis">    0.76    0.77</time>
   <time name="orth">    0.01    0.01</time>
   <time name="total">    0.94    0.98</time>
   <energy>
    <i name="e_fr_energy">   -359.39347644 </i>
    <i name="e_wo_entrp">   -359.41708932 </i>
    <i name="e_0_energy">   -359.40134740 </i>
   </energy>
  </scstep>
  <scstep>
   <time name="diag">    0.08    0.08</time>
   <time name="diis">    0.69    0.80</time>
   <time name="orth">    0.01    0.01</time>
   <time name="total">    0.84    1.00</time>
   <energy>
    <i name="e_fr_energy">   -359.39244983 </i>
    <i name="e_wo_entrp">   -359.41633753 </i>
    <i name="e_0_energy">   -359.40041240 </i>
   </energy>
  </scstep>
  <scstep>
   <time name="diag">    0.08    0.08</time>
   <time name="diis">    0.69    0.87</time>
   <time name="orth">    0.01    0.01</time>
   <time name="total">    0.84    1.07</time>
   <energy>
    <i name="e_fr_energy">   -359.39240451 </i>
    <i name="e_wo_entrp">   -359.41623849 </i>
    <i name="e_0_energy">   -359.40034917 </i>
   </energy>
  </scstep>
  <scstep>
   <time name="diag">    0.07    0.07</time>
   <time name="diis">    0.65    0.69</time>
   <time name="orth">    0.01    0.01</time>
   <time name="total">    0.80    0.86</time>
   <energy>
    <i name="e_fr_energy">   -359.39245089 </i>
    <i name="e_wo_entrp">   -359.41626405 </i>
    <i name="e_0_energy">   -359.40038861 </i>
   </energy>
  </scstep>
  <scstep>
   <time name="diag">    0.07    0.07</time>
   <time name="diis">    0.62    0.62</time>
   <time name="orth">    0.01    0.01</time>
   <time name="total">    0.77    0.79</time>
   <energy>
    <i name="e_fr_energy">   -359.39248085 </i>
    <i name="e_wo_entrp">   -359.41632080 </i>
    <i name="e_0_energy">   -359.40042750 </i>
   </energy>
  </scstep>
  <scstep>
   <time name="diag">    0.07    0.07</time>
   <time name="diis">    0.48    0.48</time>
   <time name="orth">    0.01    0.01</time>
   <time name="total">    0.63    0.67</time>
   <energy>
    <i name="e_fr_energy">   -359.39249825 </i>
    <i name="e_wo_entrp">   -359.41633195 </i>
    <i name="e_0_energy">   -359.40044282 </i>
   </energy>
  </scstep>
  <scstep>
   <time name="diag">    0.08    0.08</time>
   <time name="diis">    0.38    0.39</time>
   <time name="orth">    0.01    0.01</time>
   <time name="total">    0.54    0.56</time>
   <energy>
    <i name="e_fr_energy">   -359.39250993 </i>
    <i name="e_wo_entrp">   -359.41633866 </i>
    <i name="e_0_energy">   -359.40045284 </i>
   </energy>
  </scstep>
  <scstep>
   <time name="diag">    0.07    0.07</time>
   <time name="diis">    0.37    0.37</time>
   <time name="orth">    0.01    0.01</time>
   <time name="total">    0.49    0.51</time>
   <energy>
    <i name="alphaZ">   1442.59512771 </i>
    <i name="ewald"> -18602.72422159 </i>
    <i name="hartreedc">  -6003.85028781 </i>
    <i name="XCdc">   -363.22903416 </i>
    <i name="pawpsdc">  33227.52180895 </i>
    <i name="pawaedc"> -31581.97250118 </i>
    <i name="eentropy">      0.02383464 </i>
    <i name="bandstr">  -2444.62103223 </i>
    <i name="atom">  23966.86378612 </i>
    <i name="e_fr_energy">   -359.39251955 </i>
    <i name="e_wo_entrp">   -359.41635419 </i>
    <i name="e_0_energy">   -359.40046443 </i>
   </energy>
  </scstep>
  <structure>
   <crystal>
    <varray name="basis" >
     <v>       7.03332780       0.01716179       0.00911743 </v>
     <v>       0.02544895      10.26633533       0.01461493 </v>
     <v>       0.01284342       0.01446078      10.26535527 </v>
    </varray>
    <i name="volume">    741.21822698 </i>
    <varray name="rec_basis" >
     <v>       0.14218130      -0.00035220      -0.00017739 </v>
     <v>      -0.00023750       0.09740652      -0.00013692 </v>
     <v>      -0.00012594      -0.00013837       0.09741539 </v>
    </varray>
   </crystal>
   <varray name="positions" >
    <v>       0.73778339       0.83441049       0.15728836 </v>
    <v>       0.98305603       0.98572756       0.31680790 </v>
    <v>       0.25975780       0.84672853       0.16653395 </v>
    <v>       0.78426472       0.15469133       0.48719090 </v>
    <v>       0.49180980       0.67581353       0.00819834 </v>
    <v>       0.46476559       0.67377554       0.66019633 </v>
    <v>       0.23612215       0.51320610       0.51404316 </v>
    <v>       0.03296184       0.68396362       0.67449661 </v>
    <v>       0.72646952       0.50464395       0.15339054 </v>
    <v>       0.23885961       0.83282678       0.49683379 </v>
    <v>       0.51456825       0.33270153       0.34331028 </v>
    <v>       0.99206133       0.32163232       0.67547844 </v>
    <v>       0.27571320       0.48418404       0.15279717 </v>
    <v>       0.98582264       0.34777996       0.32634712 </v>
    <v>       0.49180311       0.66742923       0.33384417 </v>
    <v>       0.21317009       0.15506490       0.48398990 </v>
    <v>       0.00587751       0.67107259       0.00935227 </v>
    <v>       0.76547091       0.51978449       0.52137368 </v>
    <v>       0.75926962       0.82913075       0.50968395 </v>
    <v>       0.25770405       0.49614435       0.83358186 </v>
    <v>       0.25560622       0.16206929       0.16259490 </v>
    <v>       0.49516765       0.00698487       0.65513748 </v>
    <v>       0.28248806       0.17358710       0.85024269 </v>
    <v>       0.99291706       0.99866714       0.99732864 </v>
    <v>       0.00463690       0.99889198       0.68401361 </v>
    <v>       0.00576831       0.66805402       0.32287871 </v>
    <v>       0.51324666       0.99631344       0.33464845 </v>
    <v>       0.50564465       0.32569331       0.65109449 </v>
    <v>       0.97286833       0.32686007       0.99825190 </v>
    <v>       0.73087555       0.82326123       0.83092747 </v>
    <v>       0.73929980       0.51408899       0.83169645 </v>
    <v>       0.74683175       0.15904982       0.16806920 </v>
    <v>       0.72056875       0.16210598       0.84135386 </v>
    <v>       0.26878501       0.83122720       0.83716626 </v>
    <v>       0.53743432       0.32796063       0.00337443 </v>
    <v>       0.51053681       0.99447933       0.00647874 </v>
   </varray>
  </structure>
  <varray name="forces" >
   <v>       0.00421541       0.00166409       0.00269623 </v>
   <v>       0.00798435      -0.00334701       0.00078965 </v>
   <v>      -0.00603608      -0.00312665      -0.01136522 </v>
   <v>      -0.02970264      -0.02047763       0.02873830 </v>
   <v>       0.00165293      -0.00445259      -0.00225065 </v>
   <v>       0.01445242       0.06461718      -0.00266158 </v>
   <v>       0.02331244      -0.00286431      -0.01398498 </v>
   <v>      -0.00808557      -0.01932939       0.01446520 </v>
   <v>       0.01534646      -0.00424747       0.01180303 </v>
   <v>       0.02292106       0.03648917       0.01109338 </v>
   <v>      -0.01198247       0.00425816      -0.00121257 </v>
   <v>      -0.00096025       0.03056423      -0.00602030 </v>
   <v>      -0.01111145       0.00203254       0.00921080 </v>
   <v>       0.00821841       0.00485931       0.00890624 </v>
   <v>       0.00587396      -0.01390848      -0.00021458 </v>
   <v>       0.00548952      -0.00724628       0.00721796 </v>
   <v>       0.00174030      -0.00734597      -0.00861543 </v>
   <v>      -0.02539880      -0.00538482       0.00663754 </v>
   <v>      -0.00219719      -0.00572120       0.00197386 </v>
   <v>       0.00564279       0.00184885      -0.00721395 </v>
   <v>       0.00057059       0.00398178      -0.00646158 </v>
   <v>      -0.01241338       0.00609227      -0.02359525 </v>
   <v>       0.01188133      -0.02155202      -0.02795045 </v>
   <v>       0.00028316       0.00081293       0.00790737 </v>
   <v>       0.00795331       0.00993418       0.00184129 </v>
   <v>      -0.00690164       0.00221032       0.00252611 </v>
   <v>      -0.01318068       0.00936184       0.06409796 </v>
   <v>      -0.00099795      -0.09362258      -0.01241983 </v>
   <v>       0.00835970       0.00496798      -0.00007737 </v>
   <v>       0.00261337       0.02016074      -0.01288604 </v>
   <v>      -0.00882635       0.00050458      -0.00634364 </v>
   <v>      -0.00391490      -0.01260714       0.00366240 </v>
   <v>       0.00333954      -0.01418461      -0.00900726 </v>
   <v>       0.00081220       0.02203799      -0.00011934 </v>
   <v>      -0.01448925       0.00419639       0.00345157 </v>
   <v>       0.00353535       0.00882359      -0.03461888 </v>
  </varray>
  <varray name="stress" >
   <v>       1.96711468      -0.06631517       0.03542465 </v>
   <v>      -0.06631520       1.75177429       0.04076600 </v>
   <v>       0.03542465       0.04076600       1.97692011 </v>
  </varray>
  <energy>
   <i name="e_fr_energy">   -359.39251955 </i>
   <i name="e_wo_entrp">   -359.40046443 </i>
   <i name="e_0_energy">      0.02383464 </i>
  </energy>
  <time name="totalsc">    9.42   10.34</time>
 </calculation>
 <calculation>
  <scstep>
   <time name="dav">    0.92    0.93</time>
   <time name="total">    1.06    1.17</time>
   <energy>
    <i name="alphaZ">   1442.32928239 </i>
    <i name="ewald"> -18602.30959309 </i>
    <i name="hartreedc">  -6002.82020840 </i>
    <i name="XCdc">   -363.28080962 </i>
    <i name="pawpsdc">  33227.39680574 </i>
    <i name="pawaedc"> -31581.82025810 </i>
    <i name="eentropy">      0.02390881 </i>
    <i name="bandstr">  -2445.77636688 </i>
    <i name="atom">  23966.86378612 </i>
    <i name="e_fr_energy">   -359.39345303 </i>
    <i name="e_wo_entrp">   -359.41736183 </i>
    <i name="e_0_energy">   -359.40142263 </i>
   </energy>
  </scstep>
  <scstep>
   <time name="diag">    0.08    0.08</time>
   <time name="diis">    0.73    0.73</time>
   <time name="orth">    0.01    0.01</time>
   <time name="total">    0.90    0.94</time>
   <energy>
    <i name="e_fr_energy">   -359.39351074 </i>
    <i name="e_wo_entrp">   -359.41749474 </i>
    <i name="e_0_energy">   -359.40150541 </i>
   </energy>
  </scstep>
  <scstep>
   <time name="diag">    0.07    0.07</time>
   <time name="diis">    0.71    0.71</time>
   <time name="orth">    0.01    0.01</time>
   <time name="total">    0.86    0.89</time>
   <energy>
    <i name="e_fr_energy">   -359.39349221 </i>
    <i name="e_wo_entrp">   -359.41740818 </i>
    <i name="e_0_energy">   -359.40146420 </i>
   </energy>
  </scstep>
  <scstep>
   <time name="diag">    0.07    0.07</time>
   <time name="diis">    0.57    0.58</time>
   <time name="orth">    0.01    0.01</time>
   <time name="total">    0.73    0.76</time>
   <energy>
    <i name="e_fr_energy">   -359.39347802 </i>
    <i name="e_wo_entrp">   -359.41741030 </i>
    <i name="e_0_energy">   -359.40145544 </i>
   </energy>
  </scstep>
  <scstep>
   <time name="diag">    0.08    0.08</time>
   <time name="diis">    0.41    0.42</time>
   <time name="orth">    0.01    0.01</time>
   <time name="total">    0.56    0.59</time>
   <energy>
    <i name="alphaZ">   1442.32928239 </i>
    <i name="ewald"> -18602.30959309 </i>
    <i name="hartreedc">  -6003.56654615 </i>
    <i name="XCdc">   -363.24787983 </i>
    <i name="pawpsdc">  33217.70582531 </i>
    <i name="pawaedc"> -31572.06151442 </i>
    <i name="eentropy">      0.02394117 </i>
    <i name="bandstr">  -2445.13077577 </i>
    <i name="atom">  23966.86378612 </i>
    <i name="e_fr_energy">   -359.39347428 </i>
    <i name="e_wo_entrp">   -359.41741545 </i>
    <i name="e_0_energy">   -359.40145467 </i>
   </energy>
  </scstep>
  <structure>
   <crystal>
    <varray name="basis" >
     <v>       7.03385582       0.01693024       0.00917356 </v>
     <v>       0.02511266      10.26644831       0.01465535 </v>
     <v>       0.01292442       0.01449929      10.26636227 </v>
    </varray>
    <i name="volume">    741.35484585 </i>
    <varray name="rec_basis" >
     <v>       0.14217060      -0.00034751      -0.00017849 </v>
     <v>      -0.00023427       0.09740544      -0.00013727 </v>
     <v>      -0.00012670      -0.00013874       0.09740584 </v>
    </varray>
   </crystal>
   <varray name="positions" >
    <v>       0.73780422       0.83441020       0.15728247 </v>
    <v>       0.98308063       0.98572074       0.31680500 </v>
    <v>       0.25973435       0.84671926       0.16650346 </v>
    <v>       0.78413284       0.15462499       0.48726032 </v>
    <v>       0.49181742       0.67581073       0.00819769 </v>
    <v>       0.46479703       0.67394268       0.66018738 </v>
    <v>       0.23619172       0.51321487       0.51401651 </v>
    <v>       0.03295477       0.68392024       0.67452748 </v>
    <v>       0.72650985       0.50462897       0.15340645 </v>
    <v>       0.23895385       0.83291828       0.49686857 </v>
    <v>       0.51453303       0.33270715       0.34330703 </v>
    <v>       0.99205378       0.32169808       0.67546463 </v>
    <v>       0.27568757       0.48418881       0.15281164 </v>
    <v>       0.98584624       0.34780421       0.32635921 </v>
    <v>       0.49181566       0.66739746       0.33384199 </v>
    <v>       0.21321408       0.15503070       0.48401329 </v>
    <v>       0.00588198       0.67106338       0.00934208 </v>
    <v>       0.76540502       0.51978344       0.52138870 </v>
    <v>       0.75926226       0.82911565       0.50969310 </v>
    <v>       0.25771990       0.49615419       0.83356462 </v>
    <v>       0.25560994       0.16207278       0.16257105 </v>
    <v>       0.49511246       0.00701729       0.65507194 </v>
    <v>       0.28258331       0.17352995       0.85016418 </v>
    <v>       0.99291253       0.99866507       0.99736219 </v>
    <v>       0.00466834       0.99891738       0.68401178 </v>
    <v>       0.00574205       0.66806146       0.32288343 </v>
    <v>       0.51320696       0.99634350       0.33483369 </v>
    <v>       0.50563313       0.32544401       0.65107430 </v>
    <v>       0.97286945       0.32687626       0.99825974 </v>
    <v>       0.73086342       0.82330301       0.83089314 </v>
    <v>       0.73926909       0.51409630       0.83168658 </v>
    <v>       0.74681620       0.15900871       0.16807258 </v>
    <v>       0.72054527       0.16206988       0.84133890 </v>
    <v>       0.26880242       0.83126681       0.83715919 </v>
    <v>       0.53740526       0.32797144       0.00338558 </v>
    <v>       0.51055097       0.99450813       0.00638612 </v>
   </varray>
  </structure>
  <varray name="forces" >
   <v>       0.00100071       0.00499738       0.00430375 </v>
   <v>       0.00601771      -0.00448817       0.00076982 </v>
   <v>      -0.00343738      -0.00061031      -0.01016925 </v>
   <v>      -0.01808376      -0.01531895       0.02336236 </v>
   <v>       0.00217634      -0.00295773      -0.00062158 </v>
   <v>       0.00928539       0.05619508      -0.00322939 </v>
   <v>       0.02452403      -0.00157611      -0.00967243 </v>
   <v>      -0.00491280      -0.01691688       0.01126961 </v>
   <v>       0.01190544      -0.00331830       0.00938162 </v>
   <v>       0.01582996       0.02822793       0.00963998 </v>
   <v>      -0.01033789       0.00481028      -0.00102967 </v>
   <v>      -0.00091502       0.03010838      -0.00608312 </v>
   <v>      -0.00902040       0.00246537       0.00855934 </v>
   <v>       0.00594608       0.00187799       0.01129608 </v>
   <v>       0.00556545      -0.01228728      -0.00095464 </v>
   <v>      -0.00228039      -0.00480452       0.00506182 </v>
   <v>       0.00056252      -0.00773050      -0.00904603 </v>
   <v>      -0.02826163      -0.00659615       0.00932457 </v>
   <v>      -0.00058494      -0.00464304       0.00173647 </v>
   <v>       0.00808830       0.00208409      -0.00839254 </v>
   <v>       0.00082294       0.00318203      -0.00559510 </v>
   <v>      -0.00849739       0.00030407      -0.01871615 </v>
   <v>       0.00332226      -0.01789166      -0.02030968 </v>
   <v>      -0.00020551       0.00196246       0.00514561 </v>
   <v>       0.00653988       0.00781239       0.00335403 </v>
   <v>      -0.00473712       0.00356608       0.00346190 </v>
   <v>      -0.01149624       0.00558702       0.04660597 </v>
   <v>       0.00160361      -0.07905573      -0.01400955 </v>
   <v>       0.00792822       0.00165784      -0.00203416 </v>
   <v>       0.00492721       0.01901356      -0.00980003 </v>
   <v>      -0.00941951      -0.00080803      -0.00613588 </v>
   <v>      -0.00333415      -0.01125925       0.00465273 </v>
   <v>       0.00558343      -0.01234555      -0.00763080 </v>
   <v>       0.00042002       0.02140168      -0.00040673 </v>
   <v>      -0.01090543       0.00346226       0.00328100 </v>
   <v>       0.00438004       0.00389228      -0.02736994 </v>
  </varray>
  <varray name="stress" >
   <v>       1.77297870      -0.04967185       0.03396163 </v>
   <v>      -0.04967184       1.56104106       0.04243466 </v>
   <v>       0.03396163       0.04243466       1.77203275 </v>
  </varray>
  <energy>
   <i name="e_fr_energy">   -359.39347428 </i>
   <i name="e_wo_entrp">   -359.40145467 </i>
   <i name="e_0_energy">      0.02394117 </i>
  </energy>
  <time name="totalsc">    5.70    6.13</time>
 </calculation>
 <calculation>
  <scstep>
   <time name="dav">    0.89    0.89</time>
   <time name="total">    1.06    1.18</time>
   <energy>
    <i name="alphaZ">   1441.53219350 </i>
    <i name="ewald"> -18601.04415003 </i>
    <i name="hartreedc">  -6000.42412023 </i>
    <i name="XCdc">   -363.40625927 </i>
    <i name="pawpsdc">  33218.11371854 </i>
    <i name="pawaedc"> -31572.46070289 </i>
    <i name="eentropy">      0.02413751 </i>
    <i name="bandstr">  -2448.59359207 </i>
    <i name="atom">  23966.86378612 </i>
    <i name="e_fr_energy">   -359.39498882 </i>
    <i name="e_wo_entrp">   -359.41912633 </i>
    <i name="e_0_energy">   -359.40303466 </i>
   </energy>
  </scstep>
  <scstep>
   <time name="diag">    0.09    0.09</time>
   <time name="diis">    0.74    0.75</time>
   <time name="orth">    0.01    0.01</time>
   <time name="total">    0.90    0.93</time>
   <energy>
    <i name="e_fr_energy">   -359.39547840 </i>
    <i name="e_wo_entrp">   -359.41985181 </i>
    <i name="e_0_energy">   -359.40360287 </i>
   </energy>
  </scstep>
  <scstep>
   <time name="diag">    0.07    0.07</time>
   <time name="diis">    0.73    0.74</time>
   <time name="orth">    0.01    0.01</time>
   <time name="total">    0.88    0.91</time>
   <energy>
    <i name="e_fr_energy">   -359.39531452 </i>
    <i name="e_wo_entrp">   -359.41947679 </i>
    <i name="e_0_energy">   -359.40336861 </i>
   </energy>
  </scstep>
  <scstep>
   <time name="diag">    0.07    0.07</time>
   <time name="diis">    0.66    0.82</time>
   <time name="orth">    0.01    0.01</time>
   <time name="total">    0.83    1.01</time>
   <energy>
    <i name="e_fr_energy">   -359.39519984 </i>
    <i name="e_wo_entrp">   -359.41941519 </i>
    <i name="e_0_energy">   -359.40327163 </i>
   </energy>
  </scstep>
  <scstep>
   <time name="diag">    0.08    0.08</time>
   <time name="diis">    0.72    0.73</time>
   <time name="orth">    0.01    0.01</time>
   <time name="total">    0.88    0.90</time>
   <energy>
    <i name="e_fr_energy">   -359.39518224 </i>
    <i name="e_wo_entrp">   -359.41942355 </i>
    <i name="e_0_energy">   -359.40326267 </i>
   </energy>
  </scstep>
  <scstep>
   <time name="diag">    0.08    0.08</time>
   <time name="diis">    0.60    0.60</time>
   <time name="orth">    0.02    0.02</time>
   <time name="total">    0.78    0.80</time>
   <energy>
    <i name="e_fr_energy">   -359.39517200 </i>
    <i name="e_wo_entrp">   -359.41938342 </i>
    <i name="e_0_energy">   -359.40324247 </i>
   </energy>
  </scstep>
  <scstep>
   <time name="diag">    0.07    0.07</time>
   <time name="diis">    0.38    0.38</time>
   <time name="orth">    0.01    0.01</time>
   <time name="total">    0.50    0.53</time>
   <energy>
    <i name="alphaZ">   1441.53219350 </i>
    <i name="ewald"> -18601.04415003 </i>
    <i name="hartreedc">  -6002.37913319 </i>
    <i name="XCdc">   -363.31967051 </i>
    <i name="pawpsdc">  33188.42261697 </i>
    <i name="pawaedc"> -31542.76490326 </i>
    <i name="eentropy">      0.02421471 </i>
    <i name="bandstr">  -2446.73012315 </i>
    <i name="atom">  23966.86378612 </i>
    <i name="e_fr_energy">   -359.39516884 </i>
    <i name="e_wo_entrp">   -359.41938354 </i>
    <i name="e_0_energy">   -359.40324041 </i>
   </energy>
  </scstep>
  <structure>
   <crystal>
    <varray name="basis" >
     <v>       7.03543991       0.01623557       0.00934193 </v>
     <v>       0.02410378      10.26678725       0.01477660 </v>
     <v>       0.01316743       0.01461485      10.26938328 </v>
    </varray>
    <i name="volume">    741.76477475 </i>
    <varray name="rec_basis" >
     <v>       0.14213853      -0.00033344      -0.00018178 </v>
     <v>      -0.00022459       0.09740218      -0.00013833 </v>
     <v>      -0.00012898      -0.00013985       0.09737720 </v>
    </varray>
   </crystal>
   <varray name="positions" >
    <v>       0.73786670       0.83440932       0.15726478 </v>
    <v>       0.98315444       0.98570029       0.31679633 </v>
    <v>       0.25966401       0.84669145       0.16641200 </v>
    <v>       0.78373722       0.15442595       0.48746854 </v>
    <v>       0.49184028       0.67580234       0.00819572 </v>
    <v>       0.46489139       0.67444411       0.66016051 </v>
    <v>       0.23640040       0.51324118       0.51393655 </v>
    <v>       0.03293355       0.68379011       0.67462010 </v>
    <v>       0.72663081       0.50458405       0.15345417 </v>
    <v>       0.23923654       0.83319279       0.49697288 </v>
    <v>       0.51442737       0.33272401       0.34329728 </v>
    <v>       0.99203115       0.32189533       0.67542319 </v>
    <v>       0.27561069       0.48420309       0.15285505 </v>
    <v>       0.98591702       0.34787695       0.32639550 </v>
    <v>       0.49185330       0.66730215       0.33383548 </v>
    <v>       0.21334604       0.15492811       0.48408345 </v>
    <v>       0.00589541       0.67103574       0.00931149 </v>
    <v>       0.76520734       0.51978030       0.52143377 </v>
    <v>       0.75924019       0.82907035       0.50972055 </v>
    <v>       0.25776745       0.49618372       0.83351293 </v>
    <v>       0.25562107       0.16208324       0.16249950 </v>
    <v>       0.49494689       0.00711453       0.65487534 </v>
    <v>       0.28286903       0.17335851       0.84992867 </v>
    <v>       0.99289895       0.99865887       0.99746281 </v>
    <v>       0.00476266       0.99899357       0.68400632 </v>
    <v>       0.00566328       0.66808379       0.32289759 </v>
    <v>       0.51308788       0.99643368       0.33538937 </v>
    <v>       0.50559853       0.32469610       0.65101376 </v>
    <v>       0.97287278       0.32692483       0.99828324 </v>
    <v>       0.73082706       0.82342835       0.83079017 </v>
    <v>       0.73917696       0.51411823       0.83165695 </v>
    <v>       0.74676954       0.15888536       0.16808272 </v>
    <v>       0.72047485       0.16196158       0.84129404 </v>
    <v>       0.26885464       0.83138562       0.83713797 </v>
    <v>       0.53731810       0.32800386       0.00341905 </v>
    <v>       0.51059345       0.99459454       0.00610827 </v>
   </varray>
  </structure>
  <varray name="forces" >
   <v>      -0.00918832       0.01328885       0.00917500 </v>
   <v>       0.00055063      -0.00820514       0.00137769 </v>
   <v>       0.00461827       0.00656668      -0.00634974 </v>
   <v>       0.01583302       0.00062804       0.00742048 </v>
   <v>       0.00389292      -0.00054081       0.00443088 </v>
   <v>      -0.00580992       0.03418177      -0.00394197 </v>
   <v>       0.02789163       0.00196808       0.00079179 </v>
   <v>       0.00472954      -0.00828565       0.00307516 </v>
   <v>       0.00383163      -0.00133315       0.00445283 </v>
   <v>      -0.00473216       0.00406094       0.00496103 </v>
   <v>      -0.00482237       0.00649581      -0.00389883 </v>
   <v>      -0.00150533       0.02590054      -0.00698322 </v>
   <v>      -0.00268265       0.00379485       0.00606802 </v>
   <v>      -0.00082986      -0.01136816       0.01867061 </v>
   <v>       0.00553467      -0.00603806      -0.00275329 </v>
   <v>      -0.02929458       0.00608460      -0.00334676 </v>
   <v>      -0.00145232      -0.00813889      -0.01242986 </v>
   <v>      -0.03673289      -0.01027282       0.01551434 </v>
   <v>       0.00574976      -0.00212021       0.00017353 </v>
   <v>       0.01618760       0.00327122      -0.01149103 </v>
   <v>       0.00206934       0.00081721      -0.00180887 </v>
   <v>       0.00211512      -0.01810139      -0.00408027 </v>
   <v>      -0.02125955      -0.00766882       0.00173585 </v>
   <v>      -0.00083785       0.00506681      -0.00427991 </v>
   <v>       0.00296096       0.00082671       0.00696350 </v>
   <v>       0.00103913       0.00646382       0.00555422 </v>
   <v>      -0.00761105      -0.00460722      -0.00289941 </v>
   <v>       0.00962542      -0.03639850      -0.01936229 </v>
   <v>       0.00727839      -0.00616621      -0.00668896 </v>
   <v>       0.01198804       0.01520056      -0.00120263 </v>
   <v>      -0.01137803      -0.00425672      -0.00495446 </v>
   <v>      -0.00236336      -0.00506485       0.00566933 </v>
   <v>       0.01470167      -0.00461431       0.00015108 </v>
   <v>      -0.00343125       0.01700173       0.00167633 </v>
   <v>      -0.00294873       0.00042753       0.00346185 </v>
   <v>       0.00628249      -0.00886480      -0.00485202 </v>
  </varray>
  <varray name="stress" >
   <v>       0.98963921       0.05714805       0.02874574 </v>
   <v>       0.05714806       0.86489480       0.04930819 </v>
   <v>       0.02874576       0.04930817       0.91962364 </v>
  </varray>
  <energy>
   <i name="e_fr_energy">   -359.39516884 </i>
   <i name="e_wo_entrp">   -359.40324041 </i>
   <i name="e_0_energy">      0.02421471 </i>
  </energy>
  <time name="totalsc">    7.35    7.86</time>
 </calculation>
 <calculation>
  <scstep>
   <time name="dav">    1.01    1.04</time>
   <time name="total">    1.15    1.29</time>
   <energy>
    <i name="alphaZ">   1439.94002500 </i>
    <i name="ewald"> -18598.41588781 </i>
    <i name="hartreedc">  -5996.12247200 </i>
    <i name="XCdc">   -363.63826850 </i>
    <i name="pawpsdc">  33188.90355458 </i>
    <i name="pawaedc"> -31543.26296988 </i>
    <i name="eentropy">      0.02453082 </i>
    <i name="bandstr">  -2453.68509039 </i>
    <i name="atom">  23966.86378612 </i>
    <i name="e_fr_energy">   -359.39279208 </i>
    <i name="e_wo_entrp">   -359.41732289 </i>
    <i name="e_0_energy">   -359.40096901 </i>
   </energy>
  </scstep>
  <scstep>
   <time name="diag">    0.07    0.07</time>
   <time name="diis">    0.73    0.74</time>
   <time name="orth">    0.01    0.01</time>
   <time name="total">    0.88    0.91</time>
   <energy>
    <i name="e_fr_energy">   -359.39469562 </i>
    <i name="e_wo_entrp">   -359.41972440 </i>
    <i name="e_0_energy">   -359.40303855 </i>
   </energy>
  </scstep>
  <scstep>
   <time name="diag">    0.07    0.07</time>
   <time name="diis">    0.74    0.77</time>
   <time name="orth">    0.01    0.01</time>
   <time name="total">    0.89    0.95</time>
   <energy>
    <i name="e_fr_energy">   -359.39403105 </i>
    <i name="e_wo_entrp">   -359.41863241 </i>
    <i name="e_0_energy">   -359.40223151 </i>
   </energy>
  </scstep>
  <scstep>
   <time name="diag">    0.08    0.08</time>
   <time name="diis">    0.78    0.79</time>
   <time name="orth">    0.01    0.01</time>
   <time name="total">    0.94    0.97</time>
   <energy>
    <i name="e_fr_energy">   -359.39356984 </i>
    <i name="e_wo_entrp">   -359.41827162 </i>
    <i name="e_0_energy">   -359.40180377 </i>
   </energy>
  </scstep>
  <scstep>
   <time name="diag">    0.08    0.08</time>
   <time name="diis">    0.77    0.77</time>
   <time name="orth">    0.01    0.01</time>
   <time name="total">    0.93    0.95</time>
   <energy>
    <i name="e_fr_energy">   -359.39350776 </i>
    <i name="e_wo_entrp">   -359.41827387 </i>
    <i name="e_0_energy">   -359.40176313 </i>
   </energy>
  </scstep>
  <scstep>
   <time name="diag">    0.08    0.08</time>
   <time name="diis">    0.66    0.81</time>
   <time name="orth">    0.01    0.01</time>
   <time name="total">    0.81    0.98</time>
   <energy>
    <i name="e_fr_energy">   -359.39347705 </i>
    <i name="e_wo_entrp">   -359.41817684 </i>
    <i name="e_0_energy">   -359.40171032 </i>
   </energy>
  </scstep>
  <scstep>
   <time name="diag">    0.08    0.08</time>
   <time name="diis">    0.54    0.55</time>
   <time name="orth">    0.02    0.02</time>
   <time name="total">    0.70    0.73</time>
   <energy>
    <i name="e_fr_energy">   -359.39347518 </i>
    <i name="e_wo_entrp">   -359.41818404 </i>
    <i name="e_0_energy">   -359.40171147 </i>
   </energy>
  </scstep>
  <scstep>
   <time name="diag">    0.07    0.07</time>
   <time name="diis">    0.50    0.50</time>
   <time name="orth">    0.01    0.01</time>
   <time name="total">    0.61    0.64</time>
   <energy>
    <i name="alphaZ">   1439.94002500 </i>
    <i name="ewald"> -18598.41588781 </i>
    <i name="hartreedc">  -6000.01912928 </i>
    <i name="XCdc">   -363.46631173 </i>
    <i name="pawpsdc">  33129.91114207 </i>
    <i name="pawaedc"> -31484.33762446 </i>
    <i name="eentropy">      0.02470665 </i>
    <i name="bandstr">  -2449.89418281 </i>
    <i name="atom">  23966.86378612 </i>
    <i name="e_fr_energy">   -359.39347623 </i>
    <i name="e_wo_entrp">   -359.41818289 </i>
    <i name="e_0_energy">   -359.40171178 </i>
   </energy>
  </scstep>
  <structure>
   <crystal>
    <varray name="basis" >
     <v>       7.03860809       0.01484625       0.00967867 </v>
     <v>       0.02208602      10.26746511       0.01501911 </v>
     <v>       0.01365345       0.01484595      10.27542529 </v>
    </varray>
    <i name="volume">    742.58495788 </i>
    <varray name="rec_basis" >
     <v>       0.14207445      -0.00030534      -0.00018834 </v>
     <v>      -0.00020524       0.09739567      -0.00014044 </v>
     <v>      -0.00013352      -0.00014207       0.09731996 </v>
    </varray>
   </crystal>
   <varray name="positions" >
    <v>       0.73799163       0.83440757       0.15722941 </v>
    <v>       0.98330202       0.98565939       0.31677898 </v>
    <v>       0.25952336       0.84663584       0.16622915 </v>
    <v>       0.78294610       0.15402783       0.48788489 </v>
    <v>       0.49188599       0.67578554       0.00819178 </v>
    <v>       0.46508019       0.67544694       0.66010678 </v>
    <v>       0.23681769       0.51329382       0.51377668 </v>
    <v>       0.03289109       0.68352986       0.67480528 </v>
    <v>       0.72687267       0.50449422       0.15354958 </v>
    <v>       0.23980188       0.83374181       0.49718144 </v>
    <v>       0.51421610       0.33275771       0.34327778 </v>
    <v>       0.99198595       0.32228983       0.67534034 </v>
    <v>       0.27545698       0.48423165       0.15294184 </v>
    <v>       0.98605857       0.34802245       0.32646806 </v>
    <v>       0.49192854       0.66711156       0.33382244 </v>
    <v>       0.21360987       0.15472294       0.48422374 </v>
    <v>       0.00592224       0.67098048       0.00925033 </v>
    <v>       0.76481206       0.51977399       0.52152387 </v>
    <v>       0.75919605       0.82897975       0.50977544 </v>
    <v>       0.25786253       0.49624279       0.83340956 </v>
    <v>       0.25564335       0.16210418       0.16235643 </v>
    <v>       0.49461589       0.00730898       0.65448225 </v>
    <v>       0.28344032       0.17301568       0.84945779 </v>
    <v>       0.99287178       0.99864646       0.99766400 </v>
    <v>       0.00495127       0.99914596       0.68399538 </v>
    <v>       0.00550578       0.66812843       0.32292589 </v>
    <v>       0.51284977       0.99661402       0.33650040 </v>
    <v>       0.50552915       0.32320034       0.65089272 </v>
    <v>       0.97287946       0.32702198       0.99833023 </v>
    <v>       0.73075438       0.82367901       0.83058427 </v>
    <v>       0.73899276       0.51416207       0.83159772 </v>
    <v>       0.74667621       0.15863867       0.16810299 </v>
    <v>       0.72033400       0.16174499       0.84120434 </v>
    <v>       0.26895910       0.83162324       0.83709555 </v>
    <v>       0.53714383       0.32806867       0.00348596 </v>
    <v>       0.51067844       0.99476736       0.00555273 </v>
   </varray>
  </structure>
  <varray name="forces" >
   <v>      -0.02792309       0.02992831       0.01794369 </v>
   <v>      -0.01038074      -0.01729454       0.00200951 </v>
   <v>       0.01910188       0.01908007      -0.00012815 </v>
   <v>       0.08281121       0.03059747      -0.02301017 </v>
   <v>       0.00766060       0.00588113       0.01280177 </v>
   <v>      -0.03374432      -0.01010408      -0.00460660 </v>
   <v>       0.03354875       0.00992083       0.02320309 </v>
   <v>       0.02175496       0.00667554      -0.01309148 </v>
   <v>      -0.01378836       0.00506624      -0.00798649 </v>
   <v>      -0.04588923      -0.04381454      -0.00425524 </v>
   <v>       0.00633498       0.01009385      -0.00848046 </v>
   <v>      -0.00229145       0.01954134      -0.00922109 </v>
   <v>       0.01048932       0.00686090       0.00081524 </v>
   <v>      -0.01437595      -0.03502410       0.03338001 </v>
   <v>       0.00556498       0.00631109      -0.00680555 </v>
   <v>      -0.08127343       0.02744856      -0.01986653 </v>
   <v>      -0.00563986      -0.00925386      -0.01865304 </v>
   <v>      -0.05311861      -0.01712905       0.02797022 </v>
   <v>       0.01735349       0.00253339      -0.00434981 </v>
   <v>       0.03109153       0.00476481      -0.01753323 </v>
   <v>       0.00623909      -0.00425678       0.00596711 </v>
   <v>       0.02496224      -0.05681134       0.02731116 </v>
   <v>      -0.07260120       0.01261089       0.04503565 </v>
   <v>      -0.00265756       0.00946206      -0.02256113 </v>
[...]
       <r>    6.4980    1.0000 </r>
       <r>    6.5589    1.0000 </r>
       <r>    6.6138    1.0000 </r>
       <r>    6.6318    1.0000 </r>
       <r>    6.6657    1.0000 </r>
       <r>    6.7017    1.0000 </r>
       <r>    6.7675    1.0000 </r>
       <r>    6.7873    1.0000 </r>
       <r>    6.8288    1.0000 </r>
       <r>    6.8638    1.0001 </r>
       <r>    6.9057    1.0005 </r>
       <r>    6.9317    1.0010 </r>
       <r>    6.9702    1.0030 </r>
       <r>    7.0176    1.0092 </r>
       <r>    7.0631    1.0207 </r>
       <r>    7.0991    1.0314 </r>
       <r>    7.1227    1.0353 </r>
       <r>    7.1639    1.0229 </r>
       <r>    7.2103    0.9490 </r>
       <r>    7.2390    0.8584 </r>
       <r>    7.2717    0.7124 </r>
       <r>    7.3102    0.5032 </r>
       <r>    7.3520    0.2772 </r>
       <r>    7.4142    0.0440 </r>
       <r>    7.4528   -0.0187 </r>
       <r>    7.4779   -0.0333 </r>
       <r>    7.5207   -0.0318 </r>
       <r>    7.5334   -0.0284 </r>
       <r>    7.5599   -0.0203 </r>
       <r>    7.6327   -0.0048 </r>
       <r>    7.6520   -0.0030 </r>
       <r>    7.6910   -0.0010 </r>
       <r>    7.7063   -0.0006 </r>
       <r>    7.7618   -0.0001 </r>
       <r>    7.7951   -0.0000 </r>
       <r>    7.8394   -0.0000 </r>
       <r>    7.8500   -0.0000 </r>
       <r>    7.9186   -0.0000 </r>
       <r>    7.9640   -0.0000 </r>
       <r>    8.0116   -0.0000 </r>
       <r>    8.0632   -0.0000 </r>
       <r>    8.1148   -0.0000 </r>
       <r>    8.1603   -0.0000 </r>
       <r>    8.2047   -0.0000 </r>
       <r>    8.2651   -0.0000 </r>
       <r>    8.4922   -0.0000 </r>
       <r>    8.5999   -0.0000 </r>
       <r>    8.6526   -0.0000 </r>
       <r>    9.1513   -0.0000 </r>
      </set>
     </set>
    </set>
   </array>
  </eigenvalues>
  <separator name="orbital magnetization" >
   <v name="MAGDIPOLOUT">      0.00000000      0.00000000      0.00000000</v>
  </separator>
  <dos>
   <i name="efermi">      7.31081377 </i>
   <total>
    <array>
     <dimension dim="1">gridpoints</dimension>
     <dimension dim="2">spin</dimension>
     <field>energy</field>
     <field>total</field>
     <field>integrated</field>
     <set>
      <set comment="spin 1">
       <r>   -49.7574     0.0000     0.0000 </r>
       <r>   -49.5517     0.0000     0.0000 </r>
       <r>   -49.3460     0.0000     0.0000 </r>
       <r>   -49.1403     0.0000     0.0000 </r>
       <r>   -48.9346     0.0000     0.0000 </r>
       <r>   -48.7289     0.0000     0.0000 </r>
       <r>   -48.5231     0.0000     0.0000 </r>
       <r>   -48.3174    -0.0000    -0.0000 </r>
       <r>   -48.1117    -0.0000    -0.0000 </r>
       <r>   -47.9060    -0.0000    -0.0000 </r>
       <r>   -47.7003    -0.0000    -0.0000 </r>
       <r>   -47.4946    -0.0000    -0.0000 </r>
       <r>   -47.2889    -0.0457    -0.0094 </r>
       <r>   -47.0831    -0.7962    -0.1732 </r>
       <r>   -46.8774    21.3705     4.2230 </r>
       <r>   -46.6717    27.2818     9.8352 </r>
       <r>   -46.4660     0.9704    10.0348 </r>
       <r>   -46.2603    -0.1692    10.0001 </r>
       <r>   -46.0546    -0.0002    10.0000 </r>
       <r>   -45.8489    -0.0000    10.0000 </r>
       <r>   -45.6432    -0.0000    10.0000 </r>
       <r>   -45.4374     0.0000    10.0000 </r>
       <r>   -45.2317     0.0000    10.0000 </r>
       <r>   -45.0260     0.0000    10.0000 </r>
       <r>   -44.8203     0.0000    10.0000 </r>
       <r>   -44.6146     0.0000    10.0000 </r>
       <r>   -44.4089     0.0000    10.0000 </r>
       <r>   -44.2032     0.0000    10.0000 </r>
       <r>   -43.9974     0.0000    10.0000 </r>
       <r>   -43.7917     0.0000    10.0000 </r>
       <r>   -43.5860     0.0000    10.0000 </r>
       <r>   -43.3803     0.0000    10.0000 </r>
       <r>   -43.1746     0.0000    10.0000 </r>
       <r>   -42.9689     0.0000    10.0000 </r>
       <r>   -42.7632     0.0000    10.0000 </r>
       <r>   -42.5575     0.0000    10.0000 </r>
       <r>   -42.3517    -0.0000    10.0000 </r>
       <r>   -42.1460    -0.0000    10.0000 </r>
       <r>   -41.9403    -0.0000    10.0000 </r>
       <r>   -41.7346    -0.0000    10.0000 </r>
       <r>   -41.5289    -0.0001    10.0000 </r>
       <r>   -41.3232    -0.1020     9.9790 </r>
       <r>   -41.1175    -2.2068     9.5250 </r>
       <r>   -40.9118    54.7874    20.7955 </r>
       <r>   -40.7060    56.8979    32.5002 </r>
       <r>   -40.5003    -2.3276    32.0214 </r>
       <r>   -40.2946    -0.1038    32.0000 </r>
       <r>   -40.0889    -0.0000    32.0000 </r>
       <r>   -39.8832    -0.0000    32.0000 </r>
       <r>   -39.6775     0.0000    32.0000 </r>
       <r>   -39.4718     0.0000    32.0000 </r>
       <r>   -39.2660     0.0000    32.0000 </r>
       <r>   -39.0603     0.0000    32.0000 </r>
       <r>   -38.8546     0.0000    32.0000 </r>
       <r>   -38.6489     0.0000    32.0000 </r>
       <r>   -38.4432     0.0000    32.0000 </r>
       <r>   -38.2375     0.0000    32.0000 </r>
       <r>   -38.0318     0.0000    32.0000 </r>
       <r>   -37.8261     0.0000    32.0000 </r>
       <r>   -37.6203     0.0000    32.0000 </r>
       <r>   -37.4146     0.0000    32.0000 </r>
       <r>   -37.2089     0.0000    32.0000 </r>
       <r>   -37.0032     0.0000    32.0000 </r>
       <r>   -36.7975     0.0000    32.0000 </r>
       <r>   -36.5918     0.0000    32.0000 </r>
       <r>   -36.3861     0.0000    32.0000 </r>
       <r>   -36.1804     0.0000    32.0000 </r>
       <r>   -35.9746     0.0000    32.0000 </r>
       <r>   -35.7689     0.0000    32.0000 </r>
       <r>   -35.5632     0.0000    32.0000 </r>
       <r>   -35.3575     0.0000    32.0000 </r>
       <r>   -35.1518     0.0000    32.0000 </r>
       <r>   -34.9461     0.0000    32.0000 </r>
       <r>   -34.7404     0.0000    32.0000 </r>
       <r>   -34.5346     0.0000    32.0000 </r>
       <r>   -34.3289     0.0000    32.0000 </r>
       <r>   -34.1232     0.0000    32.0000 </r>
       <r>   -33.9175     0.0000    32.0000 </r>
       <r>   -33.7118     0.0000    32.0000 </r>
       <r>   -33.5061     0.0000    32.0000 </r>
       <r>   -33.3004     0.0000    32.0000 </r>
       <r>   -33.0947     0.0000    32.0000 </r>
       <r>   -32.8889     0.0000    32.0000 </r>
       <r>   -32.6832     0.0000    32.0000 </r>
       <r>   -32.4775     0.0000    32.0000 </r>
       <r>   -32.2718     0.0000    32.0000 </r>
       <r>   -32.0661     0.0000    32.0000 </r>
       <r>   -31.8604     0.0000    32.0000 </r>
       <r>   -31.6547     0.0000    32.0000 </r>
       <r>   -31.4490     0.0000    32.0000 </r>
       <r>   -31.2432     0.0000    32.0000 </r>
       <r>   -31.0375     0.0000    32.0000 </r>
       <r>   -30.8318     0.0000    32.0000 </r>
       <r>   -30.6261     0.0000    32.0000 </r>
       <r>   -30.4204     0.0000    32.0000 </r>
       <r>   -30.2147     0.0000    32.0000 </r>
       <r>   -30.0090     0.0000    32.0000 </r>
       <r>   -29.8032     0.0000    32.0000 </r>
       <r>   -29.5975     0.0000    32.0000 </r>
       <r>   -29.3918     0.0000    32.0000 </r>
       <r>   -29.1861     0.0000    32.0000 </r>
       <r>   -28.9804     0.0000    32.0000 </r>
       <r>   -28.7747     0.0000    32.0000 </r>
       <r>   -28.5690     0.0000    32.0000 </r>
       <r>   -28.3633     0.0000    32.0000 </r>
       <r>   -28.1575     0.0000    32.0000 </r>
       <r>   -27.9518     0.0000    32.0000 </r>
       <r>   -27.7461     0.0000    32.0000 </r>
       <r>   -27.5404     0.0000    32.0000 </r>
       <r>   -27.3347     0.0000    32.0000 </r>
       <r>   -27.1290     0.0000    32.0000 </r>
       <r>   -26.9233     0.0000    32.0000 </r>
       <r>   -26.7176     0.0000    32.0000 </r>
       <r>   -26.5118     0.0000    32.0000 </r>
       <r>   -26.3061     0.0000    32.0000 </r>
       <r>   -26.1004     0.0000    32.0000 </r>
       <r>   -25.8947     0.0000    32.0000 </r>
       <r>   -25.6890     0.0000    32.0000 </r>
       <r>   -25.4833     0.0000    32.0000 </r>
       <r>   -25.2776     0.0000    32.0000 </r>
       <r>   -25.0718     0.0000    32.0000 </r>
       <r>   -24.8661     0.0000    32.0000 </r>
       <r>   -24.6604    -0.0000    32.0000 </r>
       <r>   -24.4547    -0.0000    32.0000 </r>
       <r>   -24.2490    -0.0000    32.0000 </r>
       <r>   -24.0433    -0.0000    32.0000 </r>
       <r>   -23.8376    -0.0015    31.9997 </r>
       <r>   -23.6319    -0.2660    31.9450 </r>
       <r>   -23.4261     2.8427    32.5298 </r>
       <r>   -23.2204    20.8955    36.8282 </r>
       <r>   -23.0147    44.1844    45.9175 </r>
       <r>   -22.8090    42.9990    54.7630 </r>
       <r>   -22.6033    30.3403    61.0044 </r>
       <r>   -22.3976     5.2868    62.0919 </r>
       <r>   -22.1919    -0.4447    62.0005 </r>
       <r>   -21.9861    -0.0023    62.0000 </r>
       <r>   -21.7804    -0.0000    62.0000 </r>
       <r>   -21.5747    -0.0000    62.0000 </r>
       <r>   -21.3690     0.0000    62.0000 </r>
       <r>   -21.1633     0.0000    62.0000 </r>
       <r>   -20.9576     0.0000    62.0000 </r>
       <r>   -20.7519    -0.0000    62.0000 </r>
       <r>   -20.5462    -0.0000    62.0000 </r>
       <r>   -20.3404    -0.0000    62.0000 </r>
       <r>   -20.1347    -0.0000    62.0000 </r>
       <r>   -19.9290    -0.0001    62.0000 </r>
       <r>   -19.7233    -0.0968    61.9801 </r>
       <r>   -19.5176    -0.8591    61.8033 </r>
       <r>   -19.3119    31.9564    68.3772 </r>
       <r>   -19.1062    72.6210    83.3163 </r>
       <r>   -18.9005   112.6014   106.4799 </r>
       <r>   -18.6947    94.4796   125.9156 </r>
       <r>   -18.4890    11.1961   128.2187 </r>
       <r>   -18.2833    -1.0576   128.0012 </r>
       <r>   -18.0776    -0.0057   128.0000 </r>
       <r>   -17.8719    -0.0000   128.0000 </r>
       <r>   -17.6662    -0.0000   128.0000 </r>
       <r>   -17.4605     0.0000   128.0000 </r>
       <r>   -17.2547     0.0000   128.0000 </r>
       <r>   -17.0490     0.0000   128.0000 </r>
       <r>   -16.8433     0.0000   128.0000 </r>
       <r>   -16.6376     0.0000   128.0000 </r>
       <r>   -16.4319     0.0000   128.0000 </r>
       <r>   -16.2262     0.0000   128.0000 </r>
       <r>   -16.0205     0.0000   128.0000 </r>
       <r>   -15.8148     0.0000   128.0000 </r>
       <r>   -15.6090     0.0000   128.0000 </r>
       <r>   -15.4033     0.0000   128.0000 </r>
       <r>   -15.1976     0.0000   128.0000 </r>
       <r>   -14.9919     0.0000   128.0000 </r>
       <r>   -14.7862     0.0000   128.0000 </r>
       <r>   -14.5805     0.0000   128.0000 </r>
       <r>   -14.3748     0.0000   128.0000 </r>
       <r>   -14.1691     0.0000   128.0000 </r>
       <r>   -13.9633     0.0000   128.0000 </r>
       <r>   -13.7576     0.0000   128.0000 </r>
       <r>   -13.5519     0.0000   128.0000 </r>
       <r>   -13.3462     0.0000   128.0000 </r>
       <r>   -13.1405     0.0000   128.0000 </r>
       <r>   -12.9348     0.0000   128.0000 </r>
       <r>   -12.7291     0.0000   128.0000 </r>
       <r>   -12.5233     0.0000   128.0000 </r>
       <r>   -12.3176     0.0000   128.0000 </r>
       <r>   -12.1119     0.0000   128.0000 </r>
       <r>   -11.9062     0.0000   128.0000 </r>
       <r>   -11.7005     0.0000   128.0000 </r>
       <r>   -11.4948     0.0000   128.0000 </r>
       <r>   -11.2891     0.0000   128.0000 </r>
       <r>   -11.0834     0.0000   128.0000 </r>
       <r>   -10.8776     0.0000   128.0000 </r>
       <r>   -10.6719     0.0000   128.0000 </r>
       <r>   -10.4662     0.0000   128.0000 </r>
       <r>   -10.2605     0.0000   128.0000 </r>
       <r>   -10.0548     0.0000   128.0000 </r>
       <r>    -9.8491     0.0000   128.0000 </r>
       <r>    -9.6434     0.0000   128.0000 </r>
       <r>    -9.4377     0.0000   128.0000 </r>
       <r>    -9.2319     0.0000   128.0000 </r>
       <r>    -9.0262     0.0000   128.0000 </r>
       <r>    -8.8205     0.0000   128.0000 </r>
       <r>    -8.6148     0.0000   128.0000 </r>
       <r>    -8.4091     0.0000   128.0000 </r>
       <r>    -8.2034     0.0000   128.0000 </r>
       <r>    -7.9977     0.0000   128.0000 </r>
       <r>    -7.7919     0.0000   128.0000 </r>
       <r>    -7.5862     0.0000   128.0000 </r>
       <r>    -7.3805     0.0000   128.0000 </r>
       <r>    -7.1748     0.0000   128.0000 </r>
       <r>    -6.9691     0.0000   128.0000 </r>
       <r>    -6.7634     0.0000   128.0000 </r>
       <r>    -6.5577     0.0000   128.0000 </r>
       <r>    -6.3520     0.0000   128.0000 </r>
       <r>    -6.1462     0.0000   128.0000 </r>
       <r>    -5.9405     0.0000   128.0000 </r>
       <r>    -5.7348     0.0000   128.0000 </r>
       <r>    -5.5291     0.0000   128.0000 </r>
       <r>    -5.3234     0.0000   128.0000 </r>
       <r>    -5.1177     0.0000   128.0000 </r>
       <r>    -4.9120     0.0000   128.0000 </r>
       <r>    -4.7063     0.0000   128.0000 </r>
       <r>    -4.5005     0.0000   128.0000 </r>
       <r>    -4.2948     0.0000   128.0000 </r>
       <r>    -4.0891     0.0000   128.0000 </r>
       <r>    -3.8834     0.0000   128.0000 </r>
       <r>    -3.6777     0.0000   128.0000 </r>
       <r>    -3.4720     0.0000   128.0000 </r>
       <r>    -3.2663     0.0000   128.0000 </r>
       <r>    -3.0605     0.0000   128.0000 </r>
       <r>    -2.8548     0.0000   128.0000 </r>
       <r>    -2.6491     0.0000   128.0000 </r>
       <r>    -2.4434     0.0000   128.0000 </r>
       <r>    -2.2377     0.0000   128.0000 </r>
       <r>    -2.0320     0.0000   128.0000 </r>
       <r>    -1.8263     0.0000   128.0000 </r>
       <r>    -1.6206     0.0000   128.0000 </r>
       <r>    -1.4148     0.0000   128.0000 </r>
       <r>    -1.2091     0.0000   128.0000 </r>
       <r>    -1.0034     0.0000   128.0000 </r>
       <r>    -0.7977    -0.0000   128.0000 </r>
       <r>    -0.5920    -0.0000   128.0000 </r>
       <r>    -0.3863    -0.0000   128.0000 </r>
       <r>    -0.1806    -0.0000   128.0000 </r>
       <r>     0.0252    -0.0000   128.0000 </r>
       <r>     0.2309    -0.0017   127.9996 </r>
       <r>     0.4366     0.0021   128.0001 </r>
       <r>     0.6423     0.3246   128.0668 </r>
       <r>     0.8480     1.2553   128.3251 </r>
       <r>     1.0537     1.7716   128.6895 </r>
       <r>     1.2594     2.2211   129.1464 </r>
       <r>     1.4651     3.7340   129.9145 </r>
       <r>     1.6709     3.1299   130.5584 </r>
       <r>     1.8766     2.7458   131.1232 </r>
       <r>     2.0823     4.6073   132.0710 </r>
       <r>     2.2880     3.7067   132.8335 </r>
       <r>     2.4937     5.5324   133.9716 </r>
       <r>     2.6994     7.2337   135.4597 </r>
       <r>     2.9051     7.7658   137.0572 </r>
       <r>     3.1108     7.6713   138.6353 </r>
       <r>     3.3166     8.4217   140.3677 </r>
       <r>     3.5223     9.1414   142.2482 </r>
       <r>     3.7280    16.0478   145.5495 </r>
       <r>     3.9337    21.5028   149.9729 </r>
       <r>     4.1394    23.5324   154.8138 </r>
       <r>     4.3451    27.5480   160.4808 </r>
       <r>     4.5508    30.9879   166.8554 </r>
       <r>     4.7566    37.3888   174.5467 </r>
       <r>     4.9623    39.0469   182.5792 </r>
       <r>     5.1680    37.5126   190.2960 </r>
       <r>     5.3737    34.9528   197.4863 </r>
       <r>     5.5794    32.0619   204.0818 </r>
       <r>     5.7851    21.9363   208.5944 </r>
       <r>     5.9908    33.1329   215.4103 </r>
       <r>     6.1965    54.9783   226.7200 </r>
       <r>     6.4023    57.9450   238.6401 </r>
       <r>     6.6080    55.0700   249.9687 </r>
       <r>     6.8137    54.0769   261.0930 </r>
       <r>     7.0194    56.3118   272.6771 </r>
       <r>     7.2251    51.2249   283.2147 </r>
       <r>     7.4308    44.0851   292.2836 </r>
       <r>     7.6365    51.2128   302.8187 </r>
       <r>     7.8422    50.8353   313.2762 </r>
       <r>     8.0480    37.7673   321.0455 </r>
       <r>     8.2537    33.1957   327.8742 </r>
       <r>     8.4594    27.9108   333.6159 </r>
       <r>     8.6651    20.0872   337.7481 </r>
       <r>     8.8708    14.3409   340.6982 </r>
       <r>     9.0765    12.5014   343.2699 </r>
       <r>     9.2822     3.7442   344.0401 </r>
       <r>     9.4880    -0.1878   344.0015 </r>
       <r>     9.6937    -0.0072   344.0000 </r>
       <r>     9.8994    -0.0000   344.0000 </r>
       <r>    10.1051    -0.0000   344.0000 </r>
       <r>    10.3108     0.0000   344.0000 </r>
       <r>    10.5165     0.0000   344.0000 </r>
       <r>    10.7222     0.0000   344.0000 </r>
       <r>    10.9279     0.0000   344.0000 </r>
       <r>    11.1337     0.0000   344.0000 </r>
       <r>    11.3394     0.0000   344.0000 </r>
       <r>    11.5451     0.0000   344.0000 </r>
       <r>    11.7508     0.0000   344.0000 </r>
       <r>    11.9565     0.0000   344.0000 </r>
      </set>
     </set>
    </array>
   </total>
  </dos>
 </calculation>
 <structure name="finalpos" >
  <crystal>
   <varray name="basis" >
    <v>       7.03989052       0.01301544       0.01095891 </v>
    <v>       0.01943888      10.26239828       0.01294787 </v>
    <v>       0.01553029       0.01276256      10.27202744 </v>
   </varray>
   <i name="volume">    742.10903837 </i>
   <varray name="rec_basis" >
    <v>       0.14204849      -0.00026880      -0.00021443 </v>
    <v>      -0.00017997       0.09744360      -0.00012080 </v>
    <v>      -0.00015132      -0.00012254       0.09735215 </v>
   </varray>
  </crystal>
  <varray name="positions" >
   <v>       0.73767844       0.83470313       0.15749279 </v>
   <v>       0.98354645       0.98520770       0.31630087 </v>
   <v>       0.26006092       0.84664762       0.16577832 </v>
   <v>       0.78441361       0.15411405       0.48774705 </v>
   <v>       0.49207311       0.67596737       0.00851166 </v>
   <v>       0.46463784       0.67749434       0.66100489 </v>
   <v>       0.24132082       0.51372298       0.51401848 </v>
   <v>       0.03182185       0.68146343       0.67434236 </v>
   <v>       0.72702022       0.50432823       0.15332112 </v>
   <v>       0.23753910       0.83248411       0.49766854 </v>
   <v>       0.51462769       0.33279139       0.34311039 </v>
   <v>       0.99294092       0.32469527       0.67457444 </v>
   <v>       0.27566366       0.48418113       0.15286950 </v>
   <v>       0.98553226       0.34829729       0.32733000 </v>
   <v>       0.49195434       0.66764927       0.33349304 </v>
   <v>       0.21193566       0.15549494       0.48392338 </v>
   <v>       0.00590118       0.67034943       0.00895031 </v>
   <v>       0.75839093       0.52013573       0.52227779 </v>
   <v>       0.76063542       0.82926476       0.50943416 </v>
   <v>       0.25968797       0.49627931       0.83306252 </v>
   <v>       0.25558146       0.16213895       0.16237792 </v>
   <v>       0.49418306       0.00623877       0.65477992 </v>
   <v>       0.28248237       0.17302444       0.84993660 </v>
   <v>       0.99279762       0.99889004       0.99739585 </v>
   <v>       0.00525803       0.99909274       0.68453287 </v>
   <v>       0.00554646       0.66768972       0.32365757 </v>
   <v>       0.51214250       0.99671324       0.33548451 </v>
   <v>       0.50615677       0.32159833       0.65041116 </v>
   <v>       0.97331948       0.32698579       0.99757278 </v>
   <v>       0.73168276       0.82396414       0.83120631 </v>
   <v>       0.73851202       0.51392314       0.83141416 </v>
   <v>       0.74697143       0.15878311       0.16799985 </v>
   <v>       0.72125706       0.16162020       0.84106285 </v>
   <v>       0.26787427       0.83170471       0.83729247 </v>
   <v>       0.53778883       0.32769003       0.00348650 </v>
   <v>       0.51105048       0.99467717       0.00617305 </v>
  </varray>
 </structure>
</modeling>
