       N       E                     dE             d eps       ncg     rms          rms(c)
DAV:   1     0.159186523351E+04    0.15919E+04   -0.10182E+05  5216   0.103E+03
DAV:   2    -0.132789954035E+03   -0.17247E+04   -0.16634E+04  5416   0.368E+02
DAV:   3    -0.357791503694E+03   -0.22500E+03   -0.21288E+03  7992   0.924E+01
DAV:   4    -0.384047858160E+03   -0.26256E+02   -0.24864E+02  7808   0.290E+01
DAV:   5    -0.386626295206E+03   -0.25784E+01   -0.25212E+01  7720   0.954E+00    0.655E+01
RMM:   6    -0.376020045101E+03    0.10606E+02   -0.20826E+01  6536   0.963E+00    0.319E+01
RMM:   7    -0.376119894807E+03   -0.99850E-01   -0.23791E+01  6868   0.868E+00    0.983E+00
RMM:   8    -0.371631438261E+03    0.44885E+01   -0.48971E+00  7381   0.342E+00    0.384E+00
RMM:   9    -0.371561761859E+03    0.69676E-01   -0.17023E+00  7319   0.173E+00    0.264E+00
RMM:  10    -0.371501095201E+03    0.60667E-01   -0.35227E-01  7257   0.118E+00    0.115E+00
RMM:  11    -0.371483795834E+03    0.17299E-01   -0.97229E-02  7318   0.505E-01    0.580E-01
RMM:  12    -0.371480644238E+03    0.31516E-02   -0.34707E-02  7374   0.273E-01    0.353E-01
RMM:  13    -0.371479828932E+03    0.81531E-03   -0.11838E-02  7350   0.160E-01    0.211E-01
RMM:  14    -0.371479949370E+03   -0.12044E-03   -0.49197E-03  7582   0.913E-02    0.108E-01
RMM:  15    -0.371480082755E+03   -0.13338E-03   -0.22380E-03  7481   0.562E-02    0.528E-02
RMM:  16    -0.371480085537E+03   -0.27822E-05   -0.86673E-04  6387   0.328E-02    0.275E-02
RMM:  17    -0.371480099194E+03   -0.13657E-04   -0.35451E-04  5748   0.223E-02    0.150E-02
RMM:  18    -0.371480107005E+03   -0.78109E-05   -0.17378E-04  5169   0.165E-02    0.753E-03
RMM:  19    -0.371480109085E+03   -0.20798E-05   -0.65767E-05  4046   0.120E-02
   1 F= -.37148011E+03 E0= -.37148683E+03  d E =-.371480E+03
       N       E                     dE             d eps       ncg     rms          rms(c)
DAV:   1    -0.371484070223E+03   -0.39632E-02   -0.11304E-01  6256   0.117E+00    0.426E-01
RMM:   2    -0.371483117462E+03    0.95276E-03   -0.16694E-02  7244   0.341E-01    0.173E-01
RMM:   3    -0.371482144564E+03    0.97290E-03   -0.31839E-03  7314   0.957E-02    0.113E-01
RMM:   4    -0.371481872944E+03    0.27162E-03   -0.92602E-04  7379   0.609E-02    0.630E-02
RMM:   5    -0.371481795401E+03    0.77543E-04   -0.28427E-04  6897   0.364E-02    0.407E-02
RMM:   6    -0.371481807891E+03   -0.12491E-04   -0.11295E-04  5850   0.203E-02    0.289E-02
RMM:   7    -0.371481821166E+03   -0.13275E-04   -0.36302E-05  3636   0.134E-02    0.176E-02
RMM:   8    -0.371481830072E+03   -0.89056E-05   -0.27893E-05  3362   0.118E-02
   2 F= -.37148183E+03 E0= -.37148858E+03  d E =-.172099E-02
       N       E                     dE             d eps       ncg     rms          rms(c)
DAV:   1    -0.371489175095E+03   -0.73539E-02   -0.32196E-01  5904   0.198E+00    0.717E-01
RMM:   2    -0.371486421551E+03    0.27535E-02   -0.47071E-02  7238   0.574E-01    0.289E-01
RMM:   3    -0.371483655451E+03    0.27661E-02   -0.88787E-03  7315   0.159E-01    0.188E-01
RMM:   4    -0.371482892495E+03    0.76296E-03   -0.25605E-03  7427   0.102E-01    0.106E-01
RMM:   5    -0.371482676465E+03    0.21603E-03   -0.78754E-04  7208   0.600E-02    0.708E-02
RMM:   6    -0.371482707766E+03   -0.31301E-04   -0.32399E-04  6851   0.316E-02    0.500E-02
RMM:   7    -0.371482739465E+03   -0.31699E-04   -0.11648E-04  5842   0.214E-02    0.280E-02
RMM:   8    -0.371482759830E+03   -0.20365E-04   -0.82296E-05  4145   0.157E-02    0.192E-02
RMM:   9    -0.371482774481E+03   -0.14651E-04   -0.45185E-05  3854   0.139E-02    0.126E-02
RMM:  10    -0.371482784268E+03   -0.97873E-05   -0.12775E-05  3104   0.110E-02
   3 F= -.37148278E+03 E0= -.37148957E+03  d E =-.267518E-02
       N       E                     dE             d eps       ncg     rms          rms(c)
DAV:   1    -0.371483961555E+03   -0.11871E-02   -0.91533E-02  4928   0.821E-01    0.973E-02
RMM:   2    -0.371484266623E+03   -0.30507E-03   -0.38185E-03  6786   0.169E-01    0.541E-02
RMM:   3    -0.371484165725E+03    0.10090E-03   -0.47108E-04  6841   0.455E-02    0.396E-02
RMM:   4    -0.371484152701E+03    0.13024E-04   -0.10395E-04  6120   0.164E-02    0.255E-02
RMM:   5    -0.371484148862E+03    0.38396E-05   -0.33379E-05  3624   0.107E-02
   4 F= -.37148415E+03 E0= -.37149098E+03  d E =-.136459E-02
       N       E                     dE             d eps       ncg     rms          rms(c)
DAV:   1    -0.371485190193E+03   -0.10375E-02   -0.82228E-01  4912   0.246E+00    0.293E-01
RMM:   2    -0.371487888860E+03   -0.26987E-02   -0.33902E-02  6514   0.505E-01    0.156E-01
RMM:   3    -0.371486995513E+03    0.89335E-03   -0.41997E-03  7191   0.138E-01    0.116E-01
RMM:   4    -0.371486885405E+03    0.11011E-03   -0.93387E-04  7301   0.441E-02    0.721E-02
RMM:   5    -0.371486864790E+03    0.20615E-04   -0.37081E-04  6794   0.310E-02    0.412E-02
RMM:   6    -0.371486848182E+03    0.16608E-04   -0.15611E-04  6805   0.244E-02    0.166E-02
RMM:   7    -0.371486845825E+03    0.23574E-05   -0.41798E-05  3738   0.121E-02
   5 F= -.37148685E+03 E0= -.37149382E+03  d E =-.406156E-02
       N       E                     dE             d eps       ncg     rms          rms(c)
DAV:   1    -0.371479447919E+03    0.74003E-02   -0.32953E+00  4704   0.493E+00    0.591E-01
RMM:   2    -0.371490239216E+03   -0.10791E-01   -0.13611E-01  6473   0.102E+00    0.310E-01
RMM:   3    -0.371486736982E+03    0.35022E-02   -0.16817E-02  7211   0.279E-01    0.234E-01
RMM:   4    -0.371486272433E+03    0.46455E-03   -0.36444E-03  7597   0.877E-02    0.146E-01
RMM:   5    -0.371486196466E+03    0.75967E-04   -0.14490E-03  7293   0.612E-02    0.842E-02
RMM:   6    -0.371486136932E+03    0.59534E-04   -0.63090E-04  7411   0.491E-02    0.343E-02
RMM:   7    -0.371486136103E+03    0.82827E-06   -0.23143E-04  6420   0.217E-02    0.231E-02
RMM:   8    -0.371486133200E+03    0.29036E-05   -0.58088E-05  4399   0.140E-02
   6 F= -.37148613E+03 E0= -.37149337E+03  d E =-.334893E-02
       N       E                     dE             d eps       ncg     rms          rms(c)
DAV:   1    -0.371485292776E+03    0.84333E-03   -0.12175E+00  4752   0.299E+00    0.353E-01
RMM:   2    -0.371489199972E+03   -0.39072E-02   -0.49921E-02  6443   0.612E-01    0.188E-01
RMM:   3    -0.371487741164E+03    0.14588E-02   -0.56916E-03  7171   0.167E-01    0.136E-01
RMM:   4    -0.371487572108E+03    0.16906E-03   -0.12330E-03  7341   0.519E-02    0.838E-02
RMM:   5    -0.371487536779E+03    0.35329E-04   -0.47025E-04  6997   0.365E-02    0.475E-02
RMM:   6    -0.371487525026E+03    0.11753E-04   -0.20078E-04  6980   0.281E-02    0.202E-02
RMM:   7    -0.371487526204E+03   -0.11783E-05   -0.59925E-05  4479   0.134E-02
   7 F= -.37148753E+03 E0= -.37149460E+03  d E =-.474194E-02
       N       E                     dE             d eps       ncg     rms          rms(c)
DAV:   1    -0.371489349743E+03   -0.18247E-02   -0.73014E-02  5424   0.926E-01    0.325E-01
RMM:   2    -0.371488779549E+03    0.57019E-03   -0.87641E-03  7229   0.253E-01    0.126E-01
RMM:   3    -0.371488355703E+03    0.42385E-03   -0.18697E-03  7322   0.745E-02    0.897E-02
RMM:   4    -0.371488154101E+03    0.20160E-03   -0.52278E-04  7321   0.480E-02    0.479E-02
RMM:   5    -0.371488108103E+03    0.45998E-04   -0.18252E-04  6834   0.277E-02    0.322E-02
RMM:   6    -0.371488101375E+03    0.67280E-05   -0.61017E-05  4452   0.153E-02
   8 F= -.37148810E+03 E0= -.37149518E+03  d E =-.575170E-03
       N       E                     dE             d eps       ncg     rms          rms(c)
DAV:   1    -0.371488858654E+03   -0.75055E-03   -0.40154E-02  5440   0.690E-01    0.233E-01
RMM:   2    -0.371488558099E+03    0.30056E-03   -0.47085E-03  7195   0.188E-01    0.911E-02
RMM:   3    -0.371488305369E+03    0.25273E-03   -0.93096E-04  7247   0.533E-02    0.621E-02
RMM:   4    -0.371488206594E+03    0.98776E-04   -0.27107E-04  7084   0.347E-02    0.349E-02
RMM:   5    -0.371488182857E+03    0.23737E-04   -0.98505E-05  6132   0.214E-02    0.244E-02
RMM:   6    -0.371488179196E+03    0.36611E-05   -0.28882E-05  3333   0.122E-02
   9 F= -.37148818E+03 E0= -.37149527E+03  d E =-.652991E-03
       N       E                     dE             d eps       ncg     rms          rms(c)
DAV:   1    -0.371488532249E+03   -0.34939E-03   -0.37130E-02  4928   0.544E-01    0.696E-02
RMM:   2    -0.371488609197E+03   -0.76948E-04   -0.16668E-03  7204   0.116E-01    0.398E-02
RMM:   3    -0.371488598767E+03    0.10429E-04   -0.22677E-04  6311   0.296E-02    0.290E-02
RMM:   4    -0.371488589683E+03    0.90838E-05   -0.73883E-05  5264   0.156E-02
  10 F= -.37148859E+03 E0= -.37149567E+03  d E =-.410488E-03
       N       E                     dE             d eps       ncg     rms          rms(c)
DAV:   1    -0.371488694427E+03   -0.95660E-04   -0.33327E-01  4800   0.163E+00    0.200E-01
RMM:   2    -0.371489350919E+03   -0.65649E-03   -0.14244E-02  7224   0.341E-01    0.108E-01
RMM:   3    -0.371489284381E+03    0.66538E-04   -0.17882E-03  7233   0.814E-02    0.755E-02
RMM:   4    -0.371489224038E+03    0.60343E-04   -0.53313E-04  7187   0.379E-02    0.439E-02
RMM:   5    -0.371489216186E+03    0.78524E-05   -0.23027E-04  6771   0.262E-02    0.253E-02
RMM:   6    -0.371489212727E+03    0.34589E-05   -0.82579E-05  5365   0.152E-02
  11 F= -.37148921E+03 E0= -.37149627E+03  d E =-.103353E-02
       N       E                     dE             d eps       ncg     rms          rms(c)
DAV:   1    -0.371489211884E+03    0.43020E-05   -0.80583E-03  5008   0.254E-01    0.310E-02
RMM:   2    -0.371489232478E+03   -0.20594E-04   -0.38417E-04  7086   0.543E-02    0.181E-02
RMM:   3    -0.371489231149E+03    0.13288E-05   -0.50308E-05  4000   0.145E-02
  12 F= -.37148923E+03 E0= -.37149628E+03  d E =-.105195E-02
       N       E                     dE             d eps       ncg     rms          rms(c)
DAV:   1    -0.371489605390E+03   -0.37291E-03   -0.24103E-02  5040   0.475E-01    0.120E-01
RMM:   2    -0.371489574316E+03    0.31074E-04   -0.18601E-03  6911   0.116E-01    0.494E-02
RMM:   3    -0.371489507134E+03    0.67183E-04   -0.30534E-04  6583   0.354E-02    0.340E-02
RMM:   4    -0.371489485092E+03    0.22041E-04   -0.81434E-05  5342   0.184E-02    0.198E-02
RMM:   5    -0.371489480059E+03    0.50331E-05   -0.22452E-05  2959   0.139E-02
  13 F= -.37148948E+03 E0= -.37149654E+03  d E =-.248910E-03
       N       E                     dE             d eps       ncg     rms          rms(c)
DAV:   1    -0.371490488191E+03   -0.10031E-02   -0.15383E-01  4880   0.120E+00    0.300E-01
RMM:   2    -0.371490298578E+03    0.18961E-03   -0.11524E-02  7052   0.291E-01    0.122E-01
RMM:   3    -0.371489890424E+03    0.40815E-03   -0.19010E-03  7216   0.869E-02    0.872E-02
RMM:   4    -0.371489737503E+03    0.15292E-03   -0.52718E-04  7316   0.441E-02    0.486E-02
RMM:   5    -0.371489705853E+03    0.31650E-04   -0.18753E-04  6939   0.270E-02    0.333E-02
RMM:   6    -0.371489714869E+03   -0.90159E-05   -0.74277E-05  5098   0.158E-02
  14 F= -.37148971E+03 E0= -.37149680E+03  d E =-.483720E-03
       N       E                     dE             d eps       ncg     rms          rms(c)
DAV:   1    -0.371489846430E+03   -0.14058E-03   -0.51309E-03  5040   0.201E-01    0.347E-02
RMM:   2    -0.371489867070E+03   -0.20640E-04   -0.28313E-04  7008   0.454E-02    0.207E-02
RMM:   3    -0.371489864882E+03    0.21879E-05   -0.45051E-05  4482   0.136E-02
  15 F= -.37148986E+03 E0= -.37149696E+03  d E =-.150013E-03
       N       E                     dE             d eps       ncg     rms          rms(c)
DAV:   1    -0.371490143332E+03   -0.27626E-03   -0.45919E-02  4864   0.599E-01    0.847E-02
RMM:   2    -0.371490234966E+03   -0.91634E-04   -0.20992E-03  7188   0.126E-01    0.451E-02
RMM:   3    -0.371490211318E+03    0.23648E-04   -0.28958E-04  6744   0.311E-02    0.317E-02
RMM:   4    -0.371490200551E+03    0.10767E-04   -0.87043E-05  5526   0.163E-02    0.194E-02
RMM:   5    -0.371490195074E+03    0.54769E-05   -0.29373E-05  3392   0.112E-02
  16 F= -.37149020E+03 E0= -.37149731E+03  d E =-.480205E-03
       N       E                     dE             d eps       ncg     rms          rms(c)
DAV:   1    -0.371490327591E+03   -0.12704E-03   -0.18322E-01  4704   0.120E+00    0.159E-01
RMM:   2    -0.371490704241E+03   -0.37665E-03   -0.79762E-03  7226   0.249E-01    0.835E-02
RMM:   3    -0.371490620638E+03    0.83603E-04   -0.99260E-04  7224   0.582E-02    0.578E-02
RMM:   4    -0.371490580179E+03    0.40459E-04   -0.28236E-04  6889   0.274E-02    0.351E-02
RMM:   5    -0.371490566573E+03    0.13605E-04   -0.12080E-04  6546   0.193E-02    0.199E-02
RMM:   6    -0.371490560248E+03    0.63252E-05   -0.37971E-05  3657   0.120E-02
  17 F= -.37149056E+03 E0= -.37149771E+03  d E =-.845379E-03
       N       E                     dE             d eps       ncg     rms          rms(c)
DAV:   1    -0.371489290885E+03    0.12757E-02   -0.73363E-01  4704   0.240E+00    0.319E-01
RMM:   2    -0.371490763331E+03   -0.14724E-02   -0.31703E-02  7238   0.498E-01    0.166E-01
RMM:   3    -0.371490426154E+03    0.33718E-03   -0.38198E-03  7289   0.115E-01    0.114E-01
RMM:   4    -0.371490268593E+03    0.15756E-03   -0.10919E-03  7289   0.540E-02    0.697E-02
RMM:   5    -0.371490216639E+03    0.51954E-04   -0.47223E-04  7324   0.388E-02    0.393E-02
RMM:   6    -0.371490202477E+03    0.14161E-04   -0.18073E-04  6772   0.233E-02    0.235E-02
RMM:   7    -0.371490199301E+03    0.31759E-05   -0.56430E-05  4389   0.137E-02
  18 F= -.37149020E+03 E0= -.37149740E+03  d E =-.484433E-03
       N       E                     dE             d eps       ncg     rms          rms(c)
DAV:   1    -0.371490131773E+03    0.70704E-04   -0.41080E-01  4704   0.180E+00    0.243E-01
RMM:   2    -0.371490916502E+03   -0.78473E-03   -0.17645E-02  7215   0.373E-01    0.123E-01
RMM:   3    -0.371490718226E+03    0.19828E-03   -0.20041E-03  7255   0.875E-02    0.861E-02
RMM:   4    -0.371490620703E+03    0.97522E-04   -0.54314E-04  7207   0.400E-02    0.521E-02
RMM:   5    -0.371490591786E+03    0.28917E-04   -0.22797E-04  7057   0.278E-02    0.293E-02
RMM:   6    -0.371490587761E+03    0.40249E-05   -0.83662E-05  6287   0.170E-02
  19 F= -.37149059E+03 E0= -.37149775E+03  d E =-.872892E-03
       N       E                     dE             d eps       ncg     rms          rms(c)
DAV:   1    -0.371490724430E+03   -0.13264E-03   -0.70740E-03  5040   0.226E-01    0.422E-02
RMM:   2    -0.371490735016E+03   -0.10587E-04   -0.32675E-04  7217   0.488E-02    0.205E-02
RMM:   3    -0.371490729768E+03    0.52484E-05   -0.55228E-05  4803   0.134E-02
  20 F= -.37149073E+03 E0= -.37149790E+03  d E =-.142007E-03
       N       E                     dE             d eps       ncg     rms          rms(c)
DAV:   1    -0.371491094170E+03   -0.35915E-03   -0.63608E-02  4720   0.674E-01    0.115E-01
RMM:   2    -0.371491129004E+03   -0.34834E-04   -0.28299E-03  7232   0.141E-01    0.583E-02
RMM:   3    -0.371491068219E+03    0.60785E-04   -0.43659E-04  6982   0.350E-02    0.407E-02
RMM:   4    -0.371491041598E+03    0.26622E-04   -0.13634E-04  6373   0.201E-02    0.242E-02
RMM:   5    -0.371491030970E+03    0.10628E-04   -0.53945E-05  4913   0.139E-02    0.143E-02
RMM:   6    -0.371491027708E+03    0.32622E-05   -0.14831E-05  2759   0.981E-03
  21 F= -.37149103E+03 E0= -.37149819E+03  d E =-.439947E-03
       N       E                     dE             d eps       ncg     rms          rms(c)
DAV:   1    -0.371491438061E+03   -0.40709E-03   -0.25447E-01  4704   0.135E+00    0.222E-01
RMM:   2    -0.371491631887E+03   -0.19383E-03   -0.10847E-02  7241   0.279E-01    0.112E-01
RMM:   3    -0.371491407628E+03    0.22426E-03   -0.16136E-03  7337   0.671E-02    0.775E-02
RMM:   4    -0.371491307463E+03    0.10017E-03   -0.50062E-04  7152   0.374E-02    0.455E-02
RMM:   5    -0.371491274589E+03    0.32873E-04   -0.21395E-04  7033   0.272E-02    0.262E-02
RMM:   6    -0.371491268616E+03    0.59738E-05   -0.73911E-05  4867   0.148E-02
  22 F= -.37149127E+03 E0= -.37149843E+03  d E =-.680855E-03
       N       E                     dE             d eps       ncg     rms          rms(c)
DAV:   1    -0.371491448229E+03   -0.17364E-03   -0.12102E-02  5152   0.317E-01    0.815E-02
RMM:   2    -0.371491440975E+03    0.72547E-05   -0.82754E-04  7213   0.735E-02    0.364E-02
RMM:   3    -0.371491417738E+03    0.23237E-04   -0.17366E-04  6467   0.230E-02    0.262E-02
RMM:   4    -0.371491405285E+03    0.12452E-04   -0.49450E-05  4499   0.155E-02    0.134E-02
RMM:   5    -0.371491402508E+03    0.27769E-05   -0.14669E-05  2755   0.107E-02
  23 F= -.37149140E+03 E0= -.37149855E+03  d E =-.133893E-03
       N       E                     dE             d eps       ncg     rms          rms(c)
DAV:   1    -0.371491943511E+03   -0.53823E-03   -0.10777E-01  4816   0.947E-01    0.222E-01
RMM:   2    -0.371491883016E+03    0.60495E-04   -0.64800E-03  7098   0.216E-01    0.936E-02
RMM:   3    -0.371491693204E+03    0.18981E-03   -0.10981E-03  7169   0.627E-02    0.661E-02
RMM:   4    -0.371491608826E+03    0.84379E-04   -0.31320E-04  7245   0.346E-02    0.352E-02
RMM:   5    -0.371491593723E+03    0.15103E-04   -0.11481E-04  6460   0.200E-02    0.238E-02
RMM:   6    -0.371491598450E+03   -0.47274E-05   -0.37064E-05  3608   0.118E-02
  24 F= -.37149160E+03 E0= -.37149872E+03  d E =-.329834E-03
       N       E                     dE             d eps       ncg     rms          rms(c)
DAV:   1    -0.371491606987E+03   -0.13265E-04   -0.15760E-03  5024   0.115E-01    0.252E-02
RMM:   2    -0.371491609997E+03   -0.30092E-05   -0.10419E-04  5669   0.256E-02    0.120E-02
RMM:   3    -0.371491607304E+03    0.26925E-05   -0.14177E-05  2876   0.101E-02
  25 F= -.37149161E+03 E0= -.37149873E+03  d E =-.338688E-03
       N       E                     dE             d eps       ncg     rms          rms(c)
DAV:   1    -0.371491666178E+03   -0.56181E-04   -0.25705E-03  4928   0.140E-01    0.212E-02
RMM:   2    -0.371491668156E+03   -0.19789E-05   -0.11680E-04  6153   0.302E-02    0.110E-02
RMM:   3    -0.371491667605E+03    0.55171E-06   -0.16722E-05  2866   0.976E-03
  26 F= -.37149167E+03 E0= -.37149879E+03  d E =-.603007E-04
       N       E                     dE             d eps       ncg     rms          rms(c)
DAV:   1    -0.371491824478E+03   -0.15632E-03   -0.22815E-02  4704   0.417E-01    0.640E-02
RMM:   2    -0.371491818985E+03    0.54929E-05   -0.97885E-04  7191   0.867E-02    0.328E-02
RMM:   3    -0.371491810462E+03    0.85232E-05   -0.18363E-04  6240   0.234E-02    0.226E-02
RMM:   4    -0.371491802460E+03    0.80016E-05   -0.69858E-05  5129   0.156E-02
  27 F= -.37149180E+03 E0= -.37149891E+03  d E =-.195156E-03
       N       E                     dE             d eps       ncg     rms          rms(c)
DAV:   1    -0.371491996110E+03   -0.18565E-03   -0.91043E-02  4704   0.836E-01    0.126E-01
RMM:   2    -0.371491993068E+03    0.30429E-05   -0.38380E-03  7236   0.172E-01    0.652E-02
RMM:   3    -0.371491963627E+03    0.29441E-04   -0.71709E-04  7126   0.450E-02    0.469E-02
RMM:   4    -0.371491917760E+03    0.45866E-04   -0.25289E-04  6927   0.276E-02    0.224E-02
RMM:   5    -0.371491913957E+03    0.38028E-05   -0.94263E-05  5147   0.165E-02
  28 F= -.37149191E+03 E0= -.37149902E+03  d E =-.306653E-03
       N       E                     dE             d eps       ncg     rms          rms(c)
DAV:   1    -0.371492006873E+03   -0.89113E-04   -0.49626E-03  5232   0.217E-01    0.626E-02
RMM:   2    -0.371491997896E+03    0.89774E-05   -0.43068E-04  7255   0.534E-02    0.245E-02
RMM:   3    -0.371491987715E+03    0.10181E-04   -0.97383E-05  6401   0.168E-02    0.189E-02
RMM:   4    -0.371491979713E+03    0.80021E-05   -0.26132E-05  3143   0.119E-02
  29 F= -.37149198E+03 E0= -.37149909E+03  d E =-.657554E-04
       N       E                     dE             d eps       ncg     rms          rms(c)
DAV:   1    -0.371492345767E+03   -0.35805E-03   -0.44328E-02  4816   0.654E-01    0.176E-01
RMM:   2    -0.371492230299E+03    0.11547E-03   -0.34625E-03  7208   0.160E-01    0.690E-02
RMM:   3    -0.371492107630E+03    0.12267E-03   -0.61184E-04  7180   0.475E-02    0.523E-02
RMM:   4    -0.371492045146E+03    0.62485E-04   -0.18363E-04  7082   0.271E-02    0.289E-02
RMM:   5    -0.371492028729E+03    0.16416E-04   -0.65775E-05  5624   0.166E-02    0.198E-02
RMM:   6    -0.371492024411E+03    0.43185E-05   -0.22278E-05  2954   0.106E-02
  30 F= -.37149202E+03 E0= -.37149914E+03  d E =-.110454E-03
       N       E                     dE             d eps       ncg     rms          rms(c)
DAV:   1    -0.371492034506E+03   -0.57763E-05   -0.12187E-03  5200   0.108E-01    0.328E-02
RMM:   2    -0.371492029679E+03    0.48270E-05   -0.11683E-04  6556   0.281E-02    0.147E-02
RMM:   3    -0.371492025339E+03    0.43395E-05   -0.21337E-05  3078   0.996E-03
  31 F= -.37149203E+03 E0= -.37149914E+03  d E =-.111382E-03
       N       E                     dE             d eps       ncg     rms          rms(c)
DAV:   1    -0.371492075125E+03   -0.45446E-04   -0.77785E-03  4912   0.271E-01    0.763E-02
RMM:   2    -0.371492043058E+03    0.32067E-04   -0.64819E-04  7175   0.686E-02    0.307E-02
RMM:   3    -0.371492020137E+03    0.22921E-04   -0.11533E-04  6076   0.209E-02    0.229E-02
RMM:   4    -0.371492009746E+03    0.10391E-04   -0.23112E-05  2627   0.138E-02    0.142E-02
RMM:   5    -0.371492008040E+03    0.17058E-05   -0.93087E-06  2474   0.114E-02
  32 F= -.37149201E+03 E0= -.37149912E+03  d E =-.940826E-04
       N       E                     dE             d eps       ncg     rms          rms(c)
DAV:   1    -0.371492039054E+03   -0.29308E-04   -0.21713E-03  5152   0.145E-01    0.428E-02
RMM:   2    -0.371492035648E+03    0.34056E-05   -0.17609E-04  6636   0.362E-02    0.172E-02
RMM:   3    -0.371492029078E+03    0.65701E-05   -0.28754E-05  3152   0.120E-02
  33 F= -.37149203E+03 E0= -.37149914E+03  d E =-.115121E-03
       N       E                     dE             d eps       ncg     rms          rms(c)
DAV:   1    -0.371492036089E+03   -0.44018E-06   -0.66053E-04  4928   0.783E-02    0.239E-02
RMM:   2    -0.371492032360E+03    0.37283E-05   -0.69917E-05  5827   0.212E-02
  34 F= -.37149203E+03 E0= -.37149915E+03  d E =-.118403E-03
       N       E                     dE             d eps       ncg     rms          rms(c)
DAV:   1    -0.371492061572E+03   -0.25483E-04   -0.15142E-03  4880   0.105E-01    0.143E-02
RMM:   2    -0.371492061669E+03   -0.97261E-07   -0.52655E-05  4161   0.225E-02
  35 F= -.37149206E+03 E0= -.37149918E+03  d E =-.293087E-04
       N       E                     dE             d eps       ncg     rms          rms(c)
DAV:   1    -0.371492153320E+03   -0.91748E-04   -0.13460E-02  4704   0.313E-01    0.415E-02
RMM:   2    -0.371492159791E+03   -0.64708E-05   -0.49539E-04  7057   0.636E-02    0.227E-02
RMM:   3    -0.371492153346E+03    0.64449E-05   -0.81526E-05  4886   0.171E-02
  36 F= -.37149215E+03 E0= -.37149929E+03  d E =-.120986E-03
       N       E                     dE             d eps       ncg     rms          rms(c)
DAV:   1    -0.371492269765E+03   -0.10997E-03   -0.53227E-02  4704   0.621E-01    0.803E-02
RMM:   2    -0.371492297126E+03   -0.27362E-04   -0.19435E-03  7125   0.126E-01    0.439E-02
RMM:   3    -0.371492277249E+03    0.19877E-04   -0.36483E-04  6620   0.343E-02    0.296E-02
RMM:   4    -0.371492267063E+03    0.10185E-04   -0.13640E-04  6153   0.193E-02    0.147E-02
RMM:   5    -0.371492264937E+03    0.21261E-05   -0.39581E-05  3649   0.112E-02
  37 F= -.37149226E+03 E0= -.37149942E+03  d E =-.232577E-03
