       N       E                     dE             d eps       ncg     rms          rms(c)
DAV:   1     0.172735322435E+04    0.17274E+04   -0.10639E+05  5288   0.105E+03
DAV:   2    -0.116249809603E+03   -0.18436E+04   -0.17776E+04  5500   0.379E+02
DAV:   3    -0.358284179993E+03   -0.24203E+03   -0.22966E+03  8208   0.964E+01
DAV:   4    -0.386532091116E+03   -0.28248E+02   -0.26778E+02  8112   0.299E+01
DAV:   5    -0.389311905185E+03   -0.27798E+01   -0.27198E+01  7760   0.974E+00    0.668E+01
RMM:   6    -0.378360706348E+03    0.10951E+02   -0.23594E+01  6757   0.998E+00    0.322E+01
RMM:   7    -0.377834564405E+03    0.52614E+00   -0.24597E+01  6924   0.858E+00    0.934E+00
RMM:   8    -0.373935032415E+03    0.38995E+01   -0.50757E+00  7537   0.356E+00    0.392E+00
RMM:   9    -0.373826313565E+03    0.10872E+00   -0.16731E+00  7469   0.160E+00    0.280E+00
RMM:  10    -0.373776622726E+03    0.49691E-01   -0.39008E-01  7413   0.115E+00    0.127E+00
RMM:  11    -0.373751025726E+03    0.25597E-01   -0.11850E-01  7495   0.580E-01    0.587E-01
RMM:  12    -0.373748748779E+03    0.22769E-02   -0.42249E-02  7549   0.285E-01    0.353E-01
RMM:  13    -0.373747746291E+03    0.10025E-02   -0.14365E-02  7496   0.155E-01    0.218E-01
RMM:  14    -0.373747824018E+03   -0.77727E-04   -0.58838E-03  7697   0.910E-02    0.126E-01
RMM:  15    -0.373748025092E+03   -0.20107E-03   -0.26954E-03  7584   0.596E-02    0.544E-02
RMM:  16    -0.373748061359E+03   -0.36267E-04   -0.10970E-03  6472   0.341E-02    0.287E-02
RMM:  17    -0.373748084361E+03   -0.23002E-04   -0.51906E-04  6033   0.246E-02    0.154E-02
RMM:  18    -0.373748093674E+03   -0.93125E-05   -0.20644E-04  5277   0.168E-02    0.738E-03
RMM:  19    -0.373748099542E+03   -0.58679E-05   -0.10266E-04  4178   0.125E-02    0.513E-03
RMM:  20    -0.373748100172E+03   -0.63031E-06   -0.38714E-05  3923   0.109E-02
   1 F= -.37374810E+03 E0= -.37375230E+03  d E =-.373748E+03
       N       E                     dE             d eps       ncg     rms          rms(c)
DAV:   1    -0.373811069174E+03   -0.62970E-01   -0.27415E+00  5624   0.552E+00    0.177E+00
RMM:   2    -0.373796477088E+03    0.14592E-01   -0.29557E-01  6966   0.150E+00    0.594E-01
RMM:   3    -0.373787566411E+03    0.89107E-02   -0.47702E-02  7341   0.437E-01    0.414E-01
RMM:   4    -0.373783836365E+03    0.37300E-02   -0.12464E-02  7577   0.241E-01    0.229E-01
RMM:   5    -0.373783236865E+03    0.59950E-03   -0.38398E-03  7471   0.122E-01    0.190E-01
RMM:   6    -0.373783310530E+03   -0.73664E-04   -0.17699E-03  7722   0.702E-02    0.114E-01
RMM:   7    -0.373783393552E+03   -0.83023E-04   -0.75658E-04  7284   0.515E-02    0.586E-02
RMM:   8    -0.373783464302E+03   -0.70750E-04   -0.39470E-04  6653   0.304E-02    0.419E-02
RMM:   9    -0.373783505759E+03   -0.41456E-04   -0.15997E-04  5561   0.232E-02    0.309E-02
RMM:  10    -0.373783542481E+03   -0.36722E-04   -0.85630E-05  4755   0.169E-02    0.179E-02
RMM:  11    -0.373783563297E+03   -0.20816E-04   -0.44325E-05  4040   0.145E-02    0.655E-03
RMM:  12    -0.373783568071E+03   -0.47740E-05   -0.24071E-05  3623   0.130E-02
   2 F= -.37378357E+03 E0= -.37378798E+03  d E =-.354679E-01
       N       E                     dE             d eps       ncg     rms          rms(c)
DAV:   1    -0.373888222764E+03   -0.10466E+00   -0.81738E+00  5272   0.956E+00    0.309E+00
RMM:   2    -0.373845218354E+03    0.43004E-01   -0.87740E-01  6840   0.262E+00    0.102E+00
RMM:   3    -0.373818892864E+03    0.26325E-01   -0.13777E-01  7306   0.760E-01    0.717E-01
RMM:   4    -0.373807578320E+03    0.11315E-01   -0.35672E-02  7567   0.407E-01    0.396E-01
RMM:   5    -0.373805928984E+03    0.16493E-02   -0.10523E-02  7468   0.205E-01    0.335E-01
RMM:   6    -0.373806010083E+03   -0.81100E-04   -0.50619E-03  7727   0.119E-01    0.197E-01
RMM:   7    -0.373806202742E+03   -0.19266E-03   -0.22701E-03  7840   0.891E-02    0.100E-01
RMM:   8    -0.373806387065E+03   -0.18432E-03   -0.12189E-03  7716   0.502E-02    0.725E-02
RMM:   9    -0.373806479017E+03   -0.91952E-04   -0.41097E-04  6760   0.358E-02    0.547E-02
RMM:  10    -0.373806573517E+03   -0.94500E-04   -0.24422E-04  6063   0.250E-02    0.344E-02
RMM:  11    -0.373806622780E+03   -0.49263E-04   -0.12630E-04  5225   0.206E-02    0.128E-02
RMM:  12    -0.373806636070E+03   -0.13290E-04   -0.71175E-05  4792   0.163E-02    0.615E-03
RMM:  13    -0.373806638131E+03   -0.20608E-05   -0.19836E-05  3613   0.132E-02
   3 F= -.37380664E+03 E0= -.37381139E+03  d E =-.585380E-01
       N       E                     dE             d eps       ncg     rms          rms(c)
DAV:   1    -0.373828522379E+03   -0.21886E-01   -0.33168E+00  4912   0.531E+00    0.825E-01
RMM:   2    -0.373840029378E+03   -0.11507E-01   -0.19094E-01  6720   0.115E+00    0.369E-01
RMM:   3    -0.373835876270E+03    0.41531E-02   -0.21934E-02  7046   0.345E-01    0.287E-01
RMM:   4    -0.373834678131E+03    0.11981E-02   -0.47941E-03  7555   0.118E-01    0.177E-01
RMM:   5    -0.373834386862E+03    0.29127E-03   -0.20115E-03  7517   0.818E-02    0.107E-01
RMM:   6    -0.373834355362E+03    0.31500E-04   -0.89667E-04  7552   0.558E-02    0.608E-02
RMM:   7    -0.373834329276E+03    0.26086E-04   -0.34695E-04  7302   0.302E-02    0.385E-02
RMM:   8    -0.373834327497E+03    0.17788E-05   -0.12399E-04  5903   0.173E-02    0.243E-02
RMM:   9    -0.373834326256E+03    0.12414E-05   -0.60751E-05  4556   0.146E-02
   4 F= -.37383433E+03 E0= -.37383929E+03  d E =-.276881E-01
       N       E                     dE             d eps       ncg     rms          rms(c)
DAV:   1    -0.373824371294E+03    0.99562E-02   -0.19775E+01  4816   0.130E+01    0.198E+00
RMM:   2    -0.373893135459E+03   -0.68764E-01   -0.11371E+00  6599   0.280E+00    0.870E-01
RMM:   3    -0.373871369667E+03    0.21766E-01   -0.13325E-01  7124   0.874E-01    0.704E-01
RMM:   4    -0.373864182751E+03    0.71869E-02   -0.27853E-02  7539   0.285E-01    0.434E-01
RMM:   5    -0.373862590398E+03    0.15924E-02   -0.11977E-02  7530   0.197E-01    0.267E-01
RMM:   6    -0.373862416722E+03    0.17368E-03   -0.53260E-03  7570   0.138E-01    0.148E-01
RMM:   7    -0.373862311209E+03    0.10551E-03   -0.21152E-03  8226   0.741E-02    0.953E-02
RMM:   8    -0.373862336309E+03   -0.25100E-04   -0.84731E-04  7437   0.400E-02    0.622E-02
RMM:   9    -0.373862349403E+03   -0.13094E-04   -0.35059E-04  7068   0.301E-02    0.392E-02
RMM:  10    -0.373862362094E+03   -0.12691E-04   -0.15969E-04  6210   0.206E-02    0.197E-02
RMM:  11    -0.373862358537E+03    0.35572E-05   -0.72747E-05  4896   0.159E-02
   5 F= -.37386236E+03 E0= -.37386777E+03  d E =-.557204E-01
       N       E                     dE             d eps       ncg     rms          rms(c)
DAV:   1    -0.373866661216E+03   -0.42991E-02   -0.29029E-01  5248   0.160E+00    0.321E-01
RMM:   2    -0.373866869038E+03   -0.20782E-03   -0.15515E-02  6808   0.342E-01    0.133E-01
RMM:   3    -0.373866463290E+03    0.40575E-03   -0.23732E-03  7284   0.108E-01    0.927E-02
RMM:   4    -0.373866275508E+03    0.18778E-03   -0.62813E-04  7496   0.450E-02    0.508E-02
RMM:   5    -0.373866236820E+03    0.38688E-04   -0.25608E-04  7428   0.287E-02    0.334E-02
RMM:   6    -0.373866231761E+03    0.50585E-05   -0.87935E-05  5566   0.161E-02
   6 F= -.37386623E+03 E0= -.37387164E+03  d E =-.387322E-02
       N       E                     dE             d eps       ncg     rms          rms(c)
DAV:   1    -0.373875357978E+03   -0.91212E-02   -0.26081E+00  4880   0.480E+00    0.949E-01
RMM:   2    -0.373877431550E+03   -0.20736E-02   -0.14010E-01  6897   0.102E+00    0.405E-01
RMM:   3    -0.373873680842E+03    0.37507E-02   -0.21595E-02  7349   0.318E-01    0.284E-01
RMM:   4    -0.373872022301E+03    0.16585E-02   -0.55877E-03  7489   0.132E-01    0.163E-01
RMM:   5    -0.373871647691E+03    0.37461E-03   -0.22957E-03  7609   0.850E-02    0.106E-01
RMM:   6    -0.373871634212E+03    0.13479E-04   -0.85653E-04  7890   0.476E-02    0.708E-02
RMM:   7    -0.373871625514E+03    0.86977E-05   -0.40034E-04  7081   0.315E-02    0.405E-02
RMM:   8    -0.373871623619E+03    0.18953E-05   -0.17972E-04  6128   0.216E-02    0.253E-02
RMM:   9    -0.373871625179E+03   -0.15605E-05   -0.88556E-05  4824   0.174E-02
   7 F= -.37387163E+03 E0= -.37387700E+03  d E =-.926664E-02
       N       E                     dE             d eps       ncg     rms          rms(c)
DAV:   1    -0.373875776765E+03   -0.41531E-02   -0.24878E-01  5264   0.154E+00    0.392E-01
RMM:   2    -0.373875203589E+03    0.57318E-03   -0.16984E-02  6866   0.352E-01    0.150E-01
RMM:   3    -0.373874717490E+03    0.48610E-03   -0.30195E-03  7396   0.113E-01    0.105E-01
RMM:   4    -0.373874510984E+03    0.20651E-03   -0.80868E-04  7562   0.574E-02    0.564E-02
RMM:   5    -0.373874478961E+03    0.32023E-04   -0.29941E-04  7195   0.306E-02    0.448E-02
RMM:   6    -0.373874485466E+03   -0.65050E-05   -0.10633E-04  6428   0.176E-02    0.263E-02
RMM:   7    -0.373874493513E+03   -0.80477E-05   -0.45517E-05  3965   0.130E-02
   8 F= -.37387449E+03 E0= -.37387986E+03  d E =-.286833E-02
       N       E                     dE             d eps       ncg     rms          rms(c)
DAV:   1    -0.373888341901E+03   -0.13856E-01   -0.22315E+00  5000   0.462E+00    0.116E+00
RMM:   2    -0.373883562303E+03    0.47796E-02   -0.14979E-01  6547   0.106E+00    0.436E-01
RMM:   3    -0.373879089314E+03    0.44730E-02   -0.25048E-02  7293   0.341E-01    0.297E-01
RMM:   4    -0.373877355666E+03    0.17336E-02   -0.67495E-03  7583   0.165E-01    0.164E-01
RMM:   5    -0.373877085411E+03    0.27025E-03   -0.23756E-03  7622   0.872E-02    0.134E-01
RMM:   6    -0.373877132703E+03   -0.47291E-04   -0.89644E-04  7927   0.491E-02    0.808E-02
RMM:   7    -0.373877193759E+03   -0.61056E-04   -0.44087E-04  7080   0.365E-02    0.428E-02
RMM:   8    -0.373877233286E+03   -0.39527E-04   -0.22173E-04  6460   0.243E-02    0.289E-02
RMM:   9    -0.373877253709E+03   -0.20424E-04   -0.99237E-05  4843   0.187E-02    0.220E-02
RMM:  10    -0.373877272351E+03   -0.18642E-04   -0.51634E-05  4384   0.144E-02    0.126E-02
RMM:  11    -0.373877282893E+03   -0.10541E-04   -0.21756E-05  3473   0.123E-02    0.616E-03
RMM:  12    -0.373877285484E+03   -0.25918E-05   -0.14080E-05  3200   0.114E-02
   9 F= -.37387729E+03 E0= -.37388264E+03  d E =-.566031E-02
       N       E                     dE             d eps       ncg     rms          rms(c)
DAV:   1    -0.373877854761E+03   -0.57187E-03   -0.76500E-02  5240   0.856E-01    0.216E-01
RMM:   2    -0.373877708096E+03    0.14666E-03   -0.51903E-03  6685   0.195E-01    0.826E-02
RMM:   3    -0.373877547822E+03    0.16027E-03   -0.89599E-04  7284   0.635E-02    0.574E-02
RMM:   4    -0.373877478592E+03    0.69230E-04   -0.22986E-04  7303   0.313E-02    0.313E-02
RMM:   5    -0.373877462877E+03    0.15715E-04   -0.78111E-05  5601   0.176E-02    0.244E-02
RMM:   6    -0.373877456334E+03    0.65424E-05   -0.23864E-05  3015   0.111E-02
  10 F= -.37387746E+03 E0= -.37388281E+03  d E =-.583115E-02
       N       E                     dE             d eps       ncg     rms          rms(c)
DAV:   1    -0.373878472385E+03   -0.10095E-02   -0.18494E-01  4904   0.125E+00    0.117E-01
RMM:   2    -0.373879032370E+03   -0.55998E-03   -0.65982E-03  6387   0.241E-01    0.604E-02
RMM:   3    -0.373878912108E+03    0.12026E-03   -0.79516E-04  7191   0.676E-02    0.470E-02
RMM:   4    -0.373878890270E+03    0.21838E-04   -0.15350E-04  6418   0.205E-02    0.292E-02
RMM:   5    -0.373878886354E+03    0.39166E-05   -0.61561E-05  4943   0.129E-02
  11 F= -.37387889E+03 E0= -.37388426E+03  d E =-.143002E-02
       N       E                     dE             d eps       ncg     rms          rms(c)
DAV:   1    -0.373878278283E+03    0.61199E-03   -0.16637E+00  4816   0.374E+00    0.359E-01
RMM:   2    -0.373883403642E+03   -0.51254E-02   -0.59944E-02  6680   0.724E-01    0.194E-01
RMM:   3    -0.373882360205E+03    0.10434E-02   -0.76849E-03  7370   0.198E-01    0.150E-01
RMM:   4    -0.373882179760E+03    0.18044E-03   -0.15337E-03  8049   0.634E-02    0.937E-02
RMM:   5    -0.373882161350E+03    0.18409E-04   -0.67655E-04  7559   0.445E-02    0.561E-02
RMM:   6    -0.373882130070E+03    0.31280E-04   -0.28898E-04  7407   0.317E-02    0.261E-02
RMM:   7    -0.373882122814E+03    0.72566E-05   -0.10668E-04  5508   0.155E-02    0.170E-02
RMM:   8    -0.373882121563E+03    0.12504E-05   -0.37905E-05  3567   0.130E-02
  12 F= -.37388212E+03 E0= -.37388752E+03  d E =-.466523E-02
       N       E                     dE             d eps       ncg     rms          rms(c)
DAV:   1    -0.373868377778E+03    0.13745E-01   -0.66637E+00  4816   0.748E+00    0.721E-01
RMM:   2    -0.373889225281E+03   -0.20848E-01   -0.24182E-01  6674   0.145E+00    0.390E-01
RMM:   3    -0.373884856132E+03    0.43691E-02   -0.30611E-02  7412   0.400E-01    0.303E-01
RMM:   4    -0.373884124923E+03    0.73121E-03   -0.60612E-03  8117   0.126E-01    0.191E-01
RMM:   5    -0.373884042428E+03    0.82494E-04   -0.26039E-03  7666   0.881E-02    0.115E-01
RMM:   6    -0.373883919105E+03    0.12332E-03   -0.11565E-03  7743   0.645E-02    0.539E-02
RMM:   7    -0.373883889224E+03    0.29881E-04   -0.45523E-04  7615   0.313E-02    0.338E-02
RMM:   8    -0.373883889185E+03    0.38232E-07   -0.14459E-04  5683   0.187E-02    0.223E-02
RMM:   9    -0.373883888511E+03    0.67382E-06   -0.73871E-05  4633   0.153E-02
  13 F= -.37388389E+03 E0= -.37388933E+03  d E =-.643218E-02
       N       E                     dE             d eps       ncg     rms          rms(c)
DAV:   1    -0.373883136647E+03    0.75254E-03   -0.41805E-01  4840   0.187E+00    0.179E-01
RMM:   2    -0.373884385115E+03   -0.12485E-02   -0.14928E-02  6515   0.362E-01    0.953E-02
RMM:   3    -0.373884094332E+03    0.29078E-03   -0.17803E-03  7362   0.100E-01    0.738E-02
RMM:   4    -0.373884041981E+03    0.52351E-04   -0.33416E-04  7479   0.303E-02    0.460E-02
RMM:   5    -0.373884033971E+03    0.80098E-05   -0.14002E-04  6545   0.206E-02    0.276E-02
RMM:   6    -0.373884029464E+03    0.45073E-05   -0.58862E-05  5129   0.152E-02
  14 F= -.37388403E+03 E0= -.37388946E+03  d E =-.657313E-02
       N       E                     dE             d eps       ncg     rms          rms(c)
DAV:   1    -0.373884977607E+03   -0.94364E-03   -0.39252E-01  4840   0.184E+00    0.189E-01
RMM:   2    -0.373885983061E+03   -0.10055E-02   -0.15688E-02  6937   0.361E-01    0.849E-02
RMM:   3    -0.373885882774E+03    0.10029E-03   -0.14994E-03  7257   0.945E-02    0.648E-02
RMM:   4    -0.373885860053E+03    0.22722E-04   -0.38522E-04  7607   0.311E-02    0.448E-02
RMM:   5    -0.373885858924E+03    0.11288E-05   -0.14616E-04  6704   0.213E-02    0.263E-02
RMM:   6    -0.373885858597E+03    0.32648E-06   -0.63020E-05  5064   0.149E-02
  15 F= -.37388586E+03 E0= -.37389139E+03  d E =-.182913E-02
       N       E                     dE             d eps       ncg     rms          rms(c)
DAV:   1    -0.373882967434E+03    0.28915E-02   -0.20342E+00  4816   0.420E+00    0.438E-01
RMM:   2    -0.373888165614E+03   -0.51982E-02   -0.82065E-02  7048   0.823E-01    0.201E-01
RMM:   3    -0.373887703220E+03    0.46239E-03   -0.82598E-03  7298   0.211E-01    0.148E-01
RMM:   4    -0.373887580551E+03    0.12267E-03   -0.21420E-03  8066   0.728E-02    0.103E-01
RMM:   5    -0.373887566231E+03    0.14320E-04   -0.83228E-04  7849   0.495E-02    0.588E-02
RMM:   6    -0.373887557041E+03    0.91902E-05   -0.35508E-04  7744   0.327E-02    0.325E-02
RMM:   7    -0.373887565147E+03   -0.81061E-05   -0.12618E-04  6036   0.172E-02    0.199E-02
RMM:   8    -0.373887569165E+03   -0.40188E-05   -0.41883E-05  3849   0.137E-02
  16 F= -.37388757E+03 E0= -.37389334E+03  d E =-.353970E-02
       N       E                     dE             d eps       ncg     rms          rms(c)
DAV:   1    -0.373889919802E+03   -0.23547E-02   -0.37309E-01  5000   0.189E+00    0.438E-01
RMM:   2    -0.373889726772E+03    0.19303E-03   -0.25001E-02  6583   0.430E-01    0.170E-01
RMM:   3    -0.373889028970E+03    0.69780E-03   -0.38280E-03  7285   0.136E-01    0.115E-01
RMM:   4    -0.373888769807E+03    0.25916E-03   -0.10454E-03  7544   0.650E-02    0.619E-02
RMM:   5    -0.373888722603E+03    0.47205E-04   -0.34834E-04  7457   0.328E-02    0.493E-02
RMM:   6    -0.373888710582E+03    0.12020E-04   -0.14252E-04  6706   0.196E-02    0.289E-02
RMM:   7    -0.373888700896E+03    0.96858E-05   -0.56271E-05  4504   0.148E-02
  17 F= -.37388870E+03 E0= -.37389459E+03  d E =-.113173E-02
       N       E                     dE             d eps       ncg     rms          rms(c)
DAV:   1    -0.373889417078E+03   -0.70650E-03   -0.18367E-01  5072   0.132E+00    0.302E-01
RMM:   2    -0.373889315157E+03    0.10192E-03   -0.12032E-02  6425   0.301E-01    0.116E-01
RMM:   3    -0.373888971340E+03    0.34382E-03   -0.17870E-03  7181   0.963E-02    0.759E-02
RMM:   4    -0.373888855944E+03    0.11540E-03   -0.50033E-04  7425   0.445E-02    0.422E-02
RMM:   5    -0.373888834739E+03    0.21205E-04   -0.16285E-04  6601   0.231E-02    0.338E-02
RMM:   6    -0.373888829586E+03    0.51537E-05   -0.67011E-05  4749   0.142E-02
  18 F= -.37388883E+03 E0= -.37389479E+03  d E =-.126042E-02
       N       E                     dE             d eps       ncg     rms          rms(c)
DAV:   1    -0.373889225712E+03   -0.39097E-03   -0.31501E-01  4840   0.159E+00    0.141E-01
RMM:   2    -0.373890068421E+03   -0.84271E-03   -0.10629E-02  6644   0.306E-01    0.734E-02
RMM:   3    -0.373890023071E+03    0.45349E-04   -0.15016E-03  7351   0.848E-02    0.633E-02
RMM:   4    -0.373889986790E+03    0.36281E-04   -0.30544E-04  7149   0.261E-02    0.411E-02
RMM:   5    -0.373889983498E+03    0.32924E-05   -0.12323E-04  6345   0.183E-02    0.220E-02
RMM:   6    -0.373889977787E+03    0.57104E-05   -0.46679E-05  4269   0.130E-02
  19 F= -.37388998E+03 E0= -.37389605E+03  d E =-.114820E-02
       N       E                     dE             d eps       ncg     rms          rms(c)
DAV:   1    -0.373885301320E+03    0.46822E-02   -0.28345E+00  4816   0.479E+00    0.410E-01
RMM:   2    -0.373892790780E+03   -0.74895E-02   -0.94291E-02  6353   0.911E-01    0.202E-01
RMM:   3    -0.373892386333E+03    0.40445E-03   -0.12917E-02  7378   0.256E-01    0.178E-01
RMM:   4    -0.373892072140E+03    0.31419E-03   -0.24996E-03  8178   0.743E-02    0.113E-01
RMM:   5    -0.373892065833E+03    0.63074E-05   -0.10336E-03  7630   0.556E-02    0.642E-02
RMM:   6    -0.373892040856E+03    0.24977E-04   -0.46055E-04  7803   0.387E-02    0.308E-02
RMM:   7    -0.373892041142E+03   -0.28585E-06   -0.16494E-04  6110   0.183E-02    0.209E-02
RMM:   8    -0.373892042800E+03   -0.16578E-05   -0.51449E-05  3874   0.147E-02
  20 F= -.37389204E+03 E0= -.37389844E+03  d E =-.321321E-02
       N       E                     dE             d eps       ncg     rms          rms(c)
DAV:   1    -0.373891301351E+03    0.73979E-03   -0.38924E-01  4840   0.178E+00    0.153E-01
RMM:   2    -0.373892359474E+03   -0.10581E-02   -0.13095E-02  6441   0.339E-01    0.765E-02
RMM:   3    -0.373892310406E+03    0.49068E-04   -0.18582E-03  7290   0.943E-02    0.667E-02
RMM:   4    -0.373892273341E+03    0.37064E-04   -0.38118E-04  7420   0.286E-02    0.430E-02
RMM:   5    -0.373892276132E+03   -0.27910E-05   -0.15294E-04  6669   0.209E-02    0.239E-02
RMM:   6    -0.373892273821E+03    0.23110E-05   -0.63912E-05  4916   0.148E-02
  21 F= -.37389227E+03 E0= -.37389879E+03  d E =-.344424E-02
       N       E                     dE             d eps       ncg     rms          rms(c)
DAV:   1    -0.373893283625E+03   -0.10075E-02   -0.13605E-01  5000   0.110E+00    0.234E-01
RMM:   2    -0.373893234981E+03    0.48643E-04   -0.79904E-03  6899   0.242E-01    0.951E-02
RMM:   3    -0.373893058636E+03    0.17634E-03   -0.11950E-03  7294   0.754E-02    0.654E-02
RMM:   4    -0.373892987286E+03    0.71351E-04   -0.32179E-04  7324   0.339E-02    0.375E-02
RMM:   5    -0.373892973865E+03    0.13421E-04   -0.12525E-04  6521   0.194E-02    0.288E-02
RMM:   6    -0.373892977582E+03   -0.37166E-05   -0.40828E-05  3775   0.117E-02
  22 F= -.37389298E+03 E0= -.37389949E+03  d E =-.703760E-03
       N       E                     dE             d eps       ncg     rms          rms(c)
DAV:   1    -0.373893442468E+03   -0.46860E-03   -0.11848E-01  4880   0.103E+00    0.219E-01
RMM:   2    -0.373893391078E+03    0.51389E-04   -0.69129E-03  6987   0.225E-01    0.885E-02
RMM:   3    -0.373893249087E+03    0.14199E-03   -0.10634E-03  7323   0.699E-02    0.628E-02
RMM:   4    -0.373893188558E+03    0.60529E-04   -0.30325E-04  7279   0.317E-02    0.371E-02
RMM:   5    -0.373893174935E+03    0.13623E-04   -0.12439E-04  6562   0.194E-02    0.280E-02
RMM:   6    -0.373893180778E+03   -0.58428E-05   -0.41202E-05  3790   0.114E-02
  23 F= -.37389318E+03 E0= -.37389968E+03  d E =-.906957E-03
       N       E                     dE             d eps       ncg     rms          rms(c)
DAV:   1    -0.373893672447E+03   -0.49751E-03   -0.41252E-02  5120   0.600E-01    0.134E-01
RMM:   2    -0.373893702716E+03   -0.30268E-04   -0.24975E-03  7161   0.135E-01    0.578E-02
RMM:   3    -0.373893633908E+03    0.68808E-04   -0.46317E-04  7242   0.423E-02    0.412E-02
RMM:   4    -0.373893601385E+03    0.32523E-04   -0.12136E-04  6576   0.196E-02    0.233E-02
RMM:   5    -0.373893590835E+03    0.10550E-04   -0.40520E-05  4153   0.128E-02    0.145E-02
RMM:   6    -0.373893588284E+03    0.25518E-05   -0.14128E-05  2777   0.101E-02
  24 F= -.37389359E+03 E0= -.37390008E+03  d E =-.407505E-03
       N       E                     dE             d eps       ncg     rms          rms(c)
DAV:   1    -0.373894833023E+03   -0.12422E-02   -0.36893E-01  4824   0.180E+00    0.377E-01
RMM:   2    -0.373895020797E+03   -0.18777E-03   -0.21216E-02  6914   0.388E-01    0.158E-01
RMM:   3    -0.373894375704E+03    0.64509E-03   -0.34634E-03  7370   0.121E-01    0.109E-01
RMM:   4    -0.373894127480E+03    0.24822E-03   -0.82718E-04  7425   0.514E-02    0.643E-02
RMM:   5    -0.373894056314E+03    0.71167E-04   -0.33901E-04  7527   0.329E-02    0.419E-02
RMM:   6    -0.373894048185E+03    0.81288E-05   -0.13351E-04  6495   0.196E-02    0.283E-02
RMM:   7    -0.373894041375E+03    0.68096E-05   -0.53978E-05  4371   0.135E-02
  25 F= -.37389404E+03 E0= -.37390051E+03  d E =-.860597E-03
       N       E                     dE             d eps       ncg     rms          rms(c)
DAV:   1    -0.373894175396E+03   -0.12721E-03   -0.94613E-03  5136   0.280E-01    0.365E-02
RMM:   2    -0.373894196138E+03   -0.20742E-04   -0.41700E-04  6933   0.573E-02    0.199E-02
RMM:   3    -0.373894183872E+03    0.12266E-04   -0.53758E-05  4642   0.163E-02    0.148E-02
RMM:   4    -0.373894179825E+03    0.40470E-05   -0.16308E-05  2924   0.109E-02
  26 F= -.37389418E+03 E0= -.37390065E+03  d E =-.138450E-03
       N       E                     dE             d eps       ncg     rms          rms(c)
DAV:   1    -0.373894399792E+03   -0.21592E-03   -0.84787E-02  4888   0.838E-01    0.111E-01
RMM:   2    -0.373894577673E+03   -0.17788E-03   -0.36183E-03  7314   0.170E-01    0.612E-02
RMM:   3    -0.373894508397E+03    0.69276E-04   -0.53830E-04  7272   0.438E-02    0.427E-02
RMM:   4    -0.373894477708E+03    0.30689E-04   -0.15184E-04  6490   0.213E-02    0.226E-02
RMM:   5    -0.373894472331E+03    0.53776E-05   -0.70177E-05  5409   0.137E-02
  27 F= -.37389447E+03 E0= -.37390096E+03  d E =-.430956E-03
       N       E                     dE             d eps       ncg     rms          rms(c)
DAV:   1    -0.373894164421E+03    0.31329E-03   -0.33932E-01  4816   0.168E+00    0.222E-01
RMM:   2    -0.373894863193E+03   -0.69877E-03   -0.14359E-02  7359   0.340E-01    0.122E-01
RMM:   3    -0.373894591902E+03    0.27129E-03   -0.20914E-03  7446   0.864E-02    0.854E-02
RMM:   4    -0.373894474230E+03    0.11767E-03   -0.59031E-04  7447   0.416E-02    0.459E-02
RMM:   5    -0.373894455330E+03    0.18901E-04   -0.27386E-04  7259   0.289E-02    0.259E-02
RMM:   6    -0.373894449263E+03    0.60671E-05   -0.88844E-05  4903   0.157E-02
  28 F= -.37389445E+03 E0= -.37390095E+03  d E =-.407887E-03
       N       E                     dE             d eps       ncg     rms          rms(c)
DAV:   1    -0.373894495695E+03   -0.40365E-04   -0.99297E-02  4840   0.906E-01    0.123E-01
RMM:   2    -0.373894678778E+03   -0.18308E-03   -0.41136E-03  7341   0.184E-01    0.652E-02
RMM:   3    -0.373894596295E+03    0.82483E-04   -0.53331E-04  7396   0.466E-02    0.463E-02
RMM:   4    -0.373894556132E+03    0.40162E-04   -0.13523E-04  6539   0.216E-02    0.239E-02
RMM:   5    -0.373894548915E+03    0.72171E-05   -0.56544E-05  5384   0.135E-02
  29 F= -.37389455E+03 E0= -.37390104E+03  d E =-.507540E-03
       N       E                     dE             d eps       ncg     rms          rms(c)
DAV:   1    -0.373894777094E+03   -0.22096E-03   -0.13960E-02  5216   0.374E-01    0.103E-01
RMM:   2    -0.373894723825E+03    0.53269E-04   -0.10705E-03  6288   0.897E-02    0.385E-02
RMM:   3    -0.373894690205E+03    0.33620E-04   -0.18928E-04  6398   0.294E-02    0.274E-02
RMM:   4    -0.373894674439E+03    0.15766E-04   -0.41329E-05  3531   0.158E-02    0.169E-02
RMM:   5    -0.373894672143E+03    0.22955E-05   -0.13433E-05  2682   0.123E-02
  30 F= -.37389467E+03 E0= -.37390117E+03  d E =-.123228E-03
       N       E                     dE             d eps       ncg     rms          rms(c)
DAV:   1    -0.373895473677E+03   -0.79924E-03   -0.10602E-01  5064   0.103E+00    0.288E-01
RMM:   2    -0.373895066795E+03    0.40688E-03   -0.82653E-03  6716   0.247E-01    0.102E-01
RMM:   3    -0.373894815841E+03    0.25095E-03   -0.14940E-03  7249   0.788E-02    0.710E-02
RMM:   4    -0.373894714381E+03    0.10146E-03   -0.39960E-04  7336   0.423E-02    0.381E-02
RMM:   5    -0.373894708392E+03    0.59888E-05   -0.12730E-04  6271   0.218E-02    0.319E-02
RMM:   6    -0.373894716893E+03   -0.85015E-05   -0.48607E-05  4045   0.132E-02
  31 F= -.37389472E+03 E0= -.37390124E+03  d E =-.167978E-03
       N       E                     dE             d eps       ncg     rms          rms(c)
DAV:   1    -0.373894846679E+03   -0.13829E-03   -0.10394E-02  5168   0.320E-01    0.971E-02
RMM:   2    -0.373894821368E+03    0.25311E-04   -0.86473E-04  6956   0.786E-02    0.368E-02
RMM:   3    -0.373894795912E+03    0.25456E-04   -0.16629E-04  6293   0.257E-02    0.258E-02
RMM:   4    -0.373894781372E+03    0.14541E-04   -0.36552E-05  3303   0.157E-02    0.137E-02
RMM:   5    -0.373894778316E+03    0.30554E-05   -0.10367E-05  2554   0.113E-02
  32 F= -.37389478E+03 E0= -.37390129E+03  d E =-.229401E-03
       N       E                     dE             d eps       ncg     rms          rms(c)
DAV:   1    -0.373894797466E+03   -0.16095E-04   -0.27285E-03  5072   0.164E-01    0.436E-02
RMM:   2    -0.373894791789E+03    0.56775E-05   -0.21516E-04  6988   0.392E-02    0.168E-02
RMM:   3    -0.373894781914E+03    0.98747E-05   -0.29087E-05  3491   0.124E-02
  33 F= -.37389478E+03 E0= -.37390129E+03  d E =-.232999E-03
       N       E                     dE             d eps       ncg     rms          rms(c)
DAV:   1    -0.373894837882E+03   -0.46093E-04   -0.92972E-03  4896   0.269E-01    0.198E-02
RMM:   2    -0.373894858948E+03   -0.21067E-04   -0.28856E-04  5787   0.519E-02    0.119E-02
RMM:   3    -0.373894854257E+03    0.46909E-05   -0.25376E-05  3124   0.158E-02
  34 F= -.37389485E+03 E0= -.37390137E+03  d E =-.723432E-04
       N       E                     dE             d eps       ncg     rms          rms(c)
DAV:   1    -0.373894888429E+03   -0.29481E-04   -0.59424E-02  4832   0.674E-01    0.505E-02
RMM:   2    -0.373895019945E+03   -0.13152E-03   -0.18299E-03  6718   0.127E-01    0.283E-02
RMM:   3    -0.373895015844E+03    0.41013E-05   -0.26066E-04  6388   0.347E-02    0.214E-02
RMM:   4    -0.373895014180E+03    0.16642E-05   -0.78648E-05  4828   0.141E-02
  35 F= -.37389501E+03 E0= -.37390155E+03  d E =-.232266E-03
       N       E                     dE             d eps       ncg     rms          rms(c)
DAV:   1    -0.373894660679E+03    0.35516E-03   -0.23668E-01  4816   0.135E+00    0.978E-02
RMM:   2    -0.373895199928E+03   -0.53925E-03   -0.71792E-03  6677   0.257E-01    0.545E-02
RMM:   3    -0.373895207151E+03   -0.72226E-05   -0.10930E-03  7132   0.685E-02    0.430E-02
RMM:   4    -0.373895195595E+03    0.11556E-04   -0.26399E-04  6504   0.243E-02    0.263E-02
RMM:   5    -0.373895193507E+03    0.20885E-05   -0.91843E-05  5599   0.145E-02
  36 F= -.37389519E+03 E0= -.37390177E+03  d E =-.411593E-03
       N       E                     dE             d eps       ncg     rms          rms(c)
DAV:   1    -0.373895313458E+03   -0.11786E-03   -0.18694E-02  5072   0.413E-01    0.808E-02
RMM:   2    -0.373895341556E+03   -0.28098E-04   -0.12048E-03  6664   0.923E-02    0.326E-02
RMM:   3    -0.373895316286E+03    0.25270E-04   -0.15093E-04  6476   0.278E-02    0.236E-02
RMM:   4    -0.373895305327E+03    0.10959E-04   -0.38054E-05  3825   0.136E-02    0.137E-02
RMM:   5    -0.373895301625E+03    0.37017E-05   -0.12513E-05  2800   0.102E-02
  37 F= -.37389530E+03 E0= -.37390188E+03  d E =-.108119E-03
       N       E                     dE             d eps       ncg     rms          rms(c)
DAV:   1    -0.373895381549E+03   -0.76222E-04   -0.46273E-02  4864   0.651E-01    0.125E-01
RMM:   2    -0.373895441256E+03   -0.59707E-04   -0.29083E-03  6604   0.144E-01    0.490E-02
RMM:   3    -0.373895383542E+03    0.57714E-04   -0.34424E-04  6953   0.422E-02    0.349E-02
RMM:   4    -0.373895361112E+03    0.22430E-04   -0.92206E-05  5746   0.184E-02    0.200E-02
RMM:   5    -0.373895355843E+03    0.52680E-05   -0.31483E-05  3500   0.128E-02
  38 F= -.37389536E+03 E0= -.37390195E+03  d E =-.162337E-03
