 vasp.5.4.1 05Feb16 (build Jan 29 2020 16:04:39) complex                        
  
 executed on           IFC91_ompi date 2020.06.15  06:36:31
 running on  160 total cores
 distrk:  each k-point on   20 cores,    8 groups
 distr:  one band on NCORES_PER_BAND=   5 cores,    4 groups


--------------------------------------------------------------------------------------------------------


 INCAR:
 POTCAR:    PAW_PBE Ta 17Jan2003                  
 POTCAR:    PAW_PBE Hf 20Jan2003                  
 POTCAR:    PAW_PBE Zr_sv 04Jan2005               
 POTCAR:    PAW_PBE Nb_sv 25May2007               

 ----------------------------------------------------------------------------- 
|                                                                             |
|           W    W    AA    RRRRR   N    N  II  N    N   GGGG   !!!           |
|           W    W   A  A   R    R  NN   N  II  NN   N  G    G  !!!           |
|           W    W  A    A  R    R  N N  N  II  N N  N  G       !!!           |
|           W WW W  AAAAAA  RRRRR   N  N N  II  N  N N  G  GGG   !            |
|           WW  WW  A    A  R   R   N   NN  II  N   NN  G    G                |
|           W    W  A    A  R    R  N    N  II  N    N   GGGG   !!!           |
|                                                                             |
|      For optimal performance we recommend to set                            |
|        NCORE= 4 - approx SQRT( number of cores)                             |
|      NCORE specifies how many cores store one orbital (NPAR=cpu/NCORE).     |
|      This setting can  greatly improve the performance of VASP for DFT.     |
|      The default, NPAR=number of cores might be grossly inefficient         |
|      on modern multi-core architectures or massively parallel machines.     |
|      Do your own testing !!!!                                               |
|      Unfortunately you need to use the default for GW and RPA calculations. |
|      (for HF NCORE is supported but not extensively tested yet)             |
|                                                                             |
 ----------------------------------------------------------------------------- 


 ----------------------------------------------------------------------------- 
|                                                                             |
|           W    W    AA    RRRRR   N    N  II  N    N   GGGG   !!!           |
|           W    W   A  A   R    R  NN   N  II  NN   N  G    G  !!!           |
|           W    W  A    A  R    R  N N  N  II  N N  N  G       !!!           |
|           W WW W  AAAAAA  RRRRR   N  N N  II  N  N N  G  GGG   !            |
|           WW  WW  A    A  R   R   N   NN  II  N   NN  G    G                |
|           W    W  A    A  R    R  N    N  II  N    N   GGGG   !!!           |
|                                                                             |
|      You have enabled k-point parallelism (KPAR>1).                         |
|      This developmental code was originally  written by Paul Kent at ORNL,  |
|      and carefully double checked in Vienna.                                |
|      GW as well as linear response parallelism added by Martijn Marsman     |
|      and Georg Kresse.                                                      |
|      Carefully verify results versus KPAR=1.                                |
|      Report problems to Paul Kent and Vienna.                               |
|                                                                             |
 ----------------------------------------------------------------------------- 

 POTCAR:    PAW_PBE Ta 17Jan2003                  
   VRHFIN =Ta:  6s5d                                                            
   LEXCH  = PE                                                                  
   EATOM  =   130.6506 eV,    9.6025 Ry                                         
                                                                                
   TITEL  = PAW_PBE Ta 17Jan2003                                                
   LULTRA =        F    use ultrasoft PP ?                                      
   IUNSCR =        1    unscreen: 0-lin 1-nonlin 2-no                           
   RPACOR =    2.330    partial core radius                                     
   POMASS =  180.948; ZVAL   =    5.000    mass and valenz                      
   RCORE  =    2.900    outmost cutoff radius                                   
   RWIGS  =    2.840; RWIGS  =    1.503    wigner-seitz radius (au A)           
   ENMAX  =  223.667; ENMIN  =  167.750 eV                                      
   RCLOC  =    2.205    cutoff for local pot                                    
   LCOR   =        T    correct aug charges                                     
   LPAW   =        T    paw PP                                                  
   EAUG   =  332.075                                                            
   DEXC   =    0.000                                                            
   RMAX   =    2.970    core radius for proj-oper                               
   RAUG   =    1.300    factor for augmentation sphere                          
   RDEP   =    3.060    radius for radial grids                                 
   RDEPT  =    2.354    core radius for aug-charge                              
                                                                                
   Atomic configuration                                                         
   16 entries                                                                   
     n  l   j            E        occ.                                          
     1  0  0.50    -67341.2807   2.0000                                         
     2  0  0.50    -11566.9376   2.0000                                         
     2  1  1.50    -10134.1182   6.0000                                         
     3  0  0.50     -2648.5620   2.0000                                         
     3  1  1.50     -2222.6012   6.0000                                         
     3  2  2.50     -1726.3120  10.0000                                         
     4  0  0.50      -538.6961   2.0000                                         
     4  1  1.50      -399.0129   6.0000                                         
     4  2  2.50      -220.3959  10.0000                                         
     4  3  3.50       -23.0374  14.0000                                         
     5  0  0.50       -71.2901   2.0000                                         
     5  1  1.50       -37.8225   6.0000                                         
     5  2  2.50        -2.6455   4.0000                                         
     6  0  0.50        -4.9623   1.0000                                         
     6  1  1.50        -1.3606   0.0000                                         
     5  3  2.50        -1.3606   0.0000                                         
   Description                                                                  
     l       E           TYP  RCUT    TYP  RCUT                                 
     2     -2.6455043     23  2.500                                             
     2     -0.6258895     23  2.500                                             
     0     -4.9622780     23  2.500                                             
     0      4.7531321     23  2.500                                             
     1     -1.3605826     23  2.900                                             
     1     27.2116520     23  2.900                                             
  local pseudopotential read in
  partial core-charges read in
  partial kinetic energy density read in
  atomic valenz-charges read in
  non local Contribution for L=           2  read in
    real space projection operators read in
  non local Contribution for L=           2  read in
    real space projection operators read in
  non local Contribution for L=           0  read in
    real space projection operators read in
  non local Contribution for L=           0  read in
    real space projection operators read in
  non local Contribution for L=           1  read in
    real space projection operators read in
  non local Contribution for L=           1  read in
    real space projection operators read in
    PAW grid and wavefunctions read in
 
   number of l-projection  operators is LMAX  =           6
   number of lm-projection operators is LMMAX =          18
 
 POTCAR:    PAW_PBE Hf 20Jan2003                  
   VRHFIN =Hf: 6s5d                                                             
   LEXCH  = PE                                                                  
   EATOM  =    75.9011 eV,    5.5786 Ry                                         
                                                                                
   TITEL  = PAW_PBE Hf 20Jan2003                                                
   LULTRA =        F    use ultrasoft PP ?                                      
   IUNSCR =        1    unscreen: 0-lin 1-nonlin 2-no                           
   RPACOR =    2.500    partial core radius                                     
   POMASS =  178.490; ZVAL   =    4.000    mass and valenz                      
   RCORE  =    3.000    outmost cutoff radius                                   
   RWIGS  =    3.050; RWIGS  =    1.614    wigner-seitz radius (au A)           
   ENMAX  =  220.334; ENMIN  =  165.250 eV                                      
   RCLOC  =    2.212    cutoff for local pot                                    
   LCOR   =        T    correct aug charges                                     
   LPAW   =        T    paw PP                                                  
   EAUG   =  335.116                                                            
   DEXC   =    0.000                                                            
   RMAX   =    3.077    core radius for proj-oper                               
   RAUG   =    1.300    factor for augmentation sphere                          
   RDEP   =    3.047    radius for radial grids                                 
   RDEPT  =    2.344    core radius for aug-charge                              
                                                                                
   Atomic configuration                                                         
   16 entries                                                                   
     n  l   j            E        occ.                                          
     1  0  0.50    -65259.4397   2.0000                                         
     2  0  0.50    -11157.9882   2.0000                                         
     2  1  1.50     -9795.2113   6.0000                                         
     3  0  0.50     -2541.4058   2.0000                                         
     3  1  1.50     -2134.4770   6.0000                                         
     3  2  2.50     -1653.5418  10.0000                                         
     4  0  0.50      -510.9575   2.0000                                         
     4  1  1.50      -377.5023   6.0000                                         
     4  2  2.50      -205.2085  10.0000                                         
     4  3  3.50       -15.4905  14.0000                                         
     5  0  0.50       -65.6020   2.0000                                         
     5  1  1.50       -34.2798   6.0000                                         
     5  2  2.50        -1.9877   3.0000                                         
     6  0  0.50        -4.7357   1.0000                                         
     6  1  1.50        -1.3606   0.0000                                         
     5  3  2.50        -1.3606   0.0000                                         
   Description                                                                  
     l       E           TYP  RCUT    TYP  RCUT                                 
     2     -1.9876627     23  2.500                                             
     2      0.0744703     23  2.500                                             
     0     -4.7356889     23  2.600                                             
     0      3.2364747     23  2.600                                             
     1     -1.3605826     23  3.000                                             
     1     27.2116520     23  3.000                                             
  local pseudopotential read in
  partial core-charges read in
  partial kinetic energy density read in
  atomic valenz-charges read in
  non local Contribution for L=           2  read in
    real space projection operators read in
  non local Contribution for L=           2  read in
    real space projection operators read in
  non local Contribution for L=           0  read in
    real space projection operators read in
  non local Contribution for L=           0  read in
    real space projection operators read in
  non local Contribution for L=           1  read in
    real space projection operators read in
  non local Contribution for L=           1  read in
    real space projection operators read in
    PAW grid and wavefunctions read in
 
   number of l-projection  operators is LMAX  =           6
   number of lm-projection operators is LMMAX =          18
 
 POTCAR:    PAW_PBE Zr_sv 04Jan2005               
   VRHFIN =Zr: 4s4p5s4d                                                         
   LEXCH  = PE                                                                  
   EATOM  =  1284.2219 eV,   94.3876 Ry                                         
                                                                                
   TITEL  = PAW_PBE Zr_sv 04Jan2005                                             
   LULTRA =        F    use ultrasoft PP ?                                      
   IUNSCR =        1    unscreen: 0-lin 1-nonlin 2-no                           
   RPACOR =    2.200    partial core radius                                     
   POMASS =   91.224; ZVAL   =   12.000    mass and valenz                      
   RCORE  =    2.500    outmost cutoff radius                                   
   RWIGS  =    3.070; RWIGS  =    1.625    wigner-seitz radius (au A)           
   ENMAX  =  229.898; ENMIN  =  172.424 eV                                      
   ICORE  =        3    local potential                                         
   LCOR   =        T    correct aug charges                                     
   LPAW   =        T    paw PP                                                  
   EAUG   =  461.257                                                            
   DEXC   =    0.000                                                            
   RMAX   =    2.561    core radius for proj-oper                               
   RAUG   =    1.300    factor for augmentation sphere                          
   RDEP   =    2.597    radius for radial grids                                 
   RDEPT  =    2.007    core radius for aug-charge                              
                                                                                
   Atomic configuration                                                         
   11 entries                                                                   
     n  l   j            E        occ.                                          
     1  0  0.50    -17820.0161   2.0000                                         
     2  0  0.50     -2467.0882   2.0000                                         
     2  1  1.50     -2199.6095   6.0000                                         
     3  0  0.50      -402.4863   2.0000                                         
     3  1  1.50      -315.3675   6.0000                                         
     3  2  2.50      -172.4472  10.0000                                         
     4  0  0.50       -52.4146   2.0000                                         
     5  0  0.50        -3.8421   1.0000                                         
     4  1  1.50       -30.5054   6.0000                                         
     4  2  2.50        -2.3341   3.0000                                         
     4  3  2.50        -1.3606   0.0000                                         
   Description                                                                  
     l       E           TYP  RCUT    TYP  RCUT                                 
     0    -52.4145962     23  2.200                                             
     0     -3.8421270     23  2.500                                             
     1    -30.5053914     23  2.200                                             
     1     20.4087390     23  2.200                                             
     2     -2.3340816     23  2.500                                             
     2     -0.6120942     23  2.500                                             
     3     -4.0817478     23  2.500                                             
  local pseudopotential read in
  partial core-charges read in
  partial kinetic energy density read in
  atomic valenz-charges read in
  non local Contribution for L=           0  read in
    real space projection operators read in
  non local Contribution for L=           0  read in
    real space projection operators read in
  non local Contribution for L=           1  read in
    real space projection operators read in
  non local Contribution for L=           1  read in
    real space projection operators read in
  non local Contribution for L=           2  read in
    real space projection operators read in
  non local Contribution for L=           2  read in
    real space projection operators read in
    PAW grid and wavefunctions read in
 
   number of l-projection  operators is LMAX  =           6
   number of lm-projection operators is LMMAX =          18
 
 POTCAR:    PAW_PBE Nb_sv 25May2007               
   VRHFIN =Nb: 4p5s4d                                                           
   LEXCH  = PE                                                                  
   EATOM  =  1555.1913 eV,  114.3033 Ry                                         
                                                                                
   TITEL  = PAW_PBE Nb_sv 25May2007                                             
   LULTRA =        F    use ultrasoft PP ?                                      
   IUNSCR =        1    unscreen: 0-lin 1-nonlin 2-no                           
   RPACOR =    1.800    partial core radius                                     
   POMASS =   92.910; ZVAL   =   13.000    mass and valenz                      
   RCORE  =    2.400    outmost cutoff radius                                   
   RWIGS  =    2.400; RWIGS  =    1.270    wigner-seitz radius (au A)           
   ENMAX  =  293.235; ENMIN  =  219.927 eV                                      
   ICORE  =        3    local potential                                         
   LCOR   =        T    correct aug charges                                     
   LPAW   =        T    paw PP                                                  
   EAUG   =  455.659                                                            
   DEXC   =    0.000                                                            
   RMAX   =    2.456    core radius for proj-oper                               
   RAUG   =    1.300    factor for augmentation sphere                          
   RDEP   =    2.451    radius for radial grids                                 
   RDEPT  =    1.956    core radius for aug-charge                              
                                                                                
   Atomic configuration                                                         
   11 entries                                                                   
     n  l   j            E        occ.                                          
     1  0  0.50    -18805.2457   2.0000                                         
     2  0  0.50     -2630.2869   2.0000                                         
     2  1  1.50     -2348.4046   6.0000                                         
     3  0  0.50      -438.8757   2.0000                                         
     3  1  1.50      -346.7588   6.0000                                         
     3  2  2.50      -196.2560  10.0000                                         
     4  0  0.50       -58.3859   2.0000                                         
     5  0  0.50        -3.9816   1.0000                                         
     4  1  1.50       -34.5141   6.0000                                         
     4  2  2.50        -3.0408   4.0000                                         
     4  3  2.50        -1.3606   0.0000                                         
   Description                                                                  
     l       E           TYP  RCUT    TYP  RCUT                                 
     0    -58.3859094     23  2.200                                             
     0     -3.9816262     23  2.200                                             
     1    -34.5140738     23  2.200                                             
     1     13.6058260     23  2.200                                             
     2     -3.0408010     23  2.200                                             
     2     -0.1283038     23  2.200                                             
     3     -1.3605826     23  2.400                                             
  local pseudopotential read in
  partial core-charges read in
  partial kinetic energy density read in
  atomic valenz-charges read in
  non local Contribution for L=           0  read in
    real space projection operators read in
  non local Contribution for L=           0  read in
    real space projection operators read in
  non local Contribution for L=           1  read in
    real space projection operators read in
  non local Contribution for L=           1  read in
    real space projection operators read in
  non local Contribution for L=           2  read in
    real space projection operators read in
  non local Contribution for L=           2  read in
    real space projection operators read in
    PAW grid and wavefunctions read in
 
   number of l-projection  operators is LMAX  =           6
   number of lm-projection operators is LMMAX =          18
 
 Optimization of the real space projectors (new method)

 maximal supplied QI-value         = 12.85
 optimisation between [QCUT,QGAM] = [  8.87, 17.73] = [ 22.01, 88.06] Ry 
 Optimized for a Real-space Cutoff    1.90 Angstroem

   l    n(q)    QCUT    max X(q) W(low)/X(q) W(high)/X(q)  e(spline) 
   2      9     8.867    62.315    0.23E-03    0.62E-04    0.11E-05
   2      9     8.867    52.185    0.23E-03    0.62E-04    0.11E-05
   0     10     8.867   103.837    0.15E-04    0.23E-04    0.98E-07
   0     10     8.867    59.728    0.12E-04    0.21E-04    0.89E-07
   1     10     8.867    13.958    0.50E-04    0.22E-04    0.14E-06
   1     10     8.867     8.441    0.36E-04    0.19E-04    0.98E-07
 Optimization of the real space projectors (new method)

 maximal supplied QI-value         = 12.47
 optimisation between [QCUT,QGAM] = [  8.86, 17.71] = [ 21.96, 87.83] Ry 
 Optimized for a Real-space Cutoff    1.90 Angstroem

   l    n(q)    QCUT    max X(q) W(low)/X(q) W(high)/X(q)  e(spline) 
   2      9     8.855    48.111    0.22E-03    0.80E-04    0.10E-05
   2      9     8.855    40.545    0.21E-03    0.76E-04    0.95E-06
   0     10     8.855   121.658    0.27E-04    0.12E-04    0.11E-06
   0     10     8.855    71.177    0.22E-04    0.11E-04    0.99E-07
   1     10     8.855    14.183    0.65E-04    0.10E-03    0.98E-07
   1     10     8.855     8.257    0.43E-04    0.73E-04    0.72E-07
 Optimization of the real space projectors (new method)

 maximal supplied QI-value         = 15.12
 optimisation between [QCUT,QGAM] = [  8.77, 17.69] = [ 21.53, 87.61] Ry 
 Optimized for a Real-space Cutoff    1.74 Angstroem

   l    n(q)    QCUT    max X(q) W(low)/X(q) W(high)/X(q)  e(spline) 
   0      9     8.768    12.107    0.28E-04    0.53E-06    0.29E-07
   0      9     8.768     9.948    0.36E-04    0.50E-05    0.64E-07
   1      9     8.768     3.563    0.14E-04    0.16E-04    0.88E-07
   1      9     8.768     4.524    0.21E-03    0.33E-03    0.19E-06
   2      8     8.768    87.261    0.19E-03    0.25E-03    0.24E-06
   2      8     8.768    70.950    0.19E-03    0.24E-03    0.24E-06
 Optimization of the real space projectors (new method)

 maximal supplied QI-value         = 15.68
 optimisation between [QCUT,QGAM] = [  8.78, 17.72] = [ 21.60, 87.97] Ry 
 Optimized for a Real-space Cutoff    1.96 Angstroem

   l    n(q)    QCUT    max X(q) W(low)/X(q) W(high)/X(q)  e(spline) 
   0     10     8.783    10.201    0.29E-04    0.25E-05    0.69E-07
   0     10     8.783     8.174    0.45E-04    0.57E-05    0.14E-06
   1     10     8.783     3.488    0.76E-05    0.24E-04    0.95E-07
   1     10     8.783     4.917    0.78E-04    0.14E-03    0.46E-06
   2      9     8.783   153.744    0.22E-03    0.34E-04    0.15E-05
   2      9     8.783   126.342    0.22E-03    0.35E-04    0.15E-05
  PAW_PBE Ta 17Jan2003                  :
 energy of atom  1       EATOM= -130.6506
 kinetic energy error for atom=    0.0121 (will be added to EATOM!!)
  PAW_PBE Hf 20Jan2003                  :
 energy of atom  2       EATOM=  -75.9011
 kinetic energy error for atom=    0.0071 (will be added to EATOM!!)
  PAW_PBE Zr_sv 04Jan2005               :
 energy of atom  3       EATOM=-1284.2219
 kinetic energy error for atom=    0.0483 (will be added to EATOM!!)
  PAW_PBE Nb_sv 25May2007               :
 energy of atom  4       EATOM=-1555.1913
 kinetic energy error for atom=    0.0655 (will be added to EATOM!!)
 
 
 POSCAR: generated by pypospack                  
  positions in direct lattice
  No initial velocities read in
 exchange correlation table for  LEXCH =        8
   RHO(1)=    0.500       N(1)  =     2000
   RHO(2)=  100.500       N(2)  =     4000
 


--------------------------------------------------------------------------------------------------------


 ion  position               nearest neighbor table
   1  0.500  0.342  0.343-   5 2.85   8 2.87   9 2.94  16 3.00  24 3.03  12 3.03  29 3.04  26 3.07
                            20 3.13  23 3.32  22 3.41  22 3.55  19 3.65
   2  0.733  0.831  0.836-  11 2.79  36 2.83  10 2.87   7 2.88  32 2.89  17 2.95  14 2.99  25 3.03
                             3 3.27  33 3.28  35 3.30  27 3.34
   3  0.738  0.838  0.156-  36 2.76   4 2.84  10 2.85  19 2.93  14 2.93  25 2.96  23 3.01  18 3.04
                             2 3.27   6 3.29  16 3.39   8 3.54  27 3.60
   4  0.998  0.982  0.316-   3 2.84   6 2.90  16 2.94   9 2.99  27 3.02  29 3.04  24 3.07  30 3.08
                            18 3.23  14 3.26  19 3.47  19 3.49
   5  0.280  0.486  0.155-  34 2.74   1 2.85  10 2.89  23 2.93  22 2.95  21 3.08  25 3.08  18 3.09
                             8 3.12  29 3.27  28 3.31
   6  0.264  0.841  0.151-  36 2.75  10 2.88   4 2.90  19 2.92  14 2.94  23 2.97  25 2.97  18 3.00
                            33 3.22   3 3.29  29 3.36  30 3.72
   7  0.516  0.000  0.663-  31 2.81   2 2.88  27 2.94  13 2.96   9 2.99  30 3.01  33 3.04  24 3.04
                            17 3.21  19 3.32  20 3.41  11 3.42
   8  0.728  0.493  0.165-  34 2.71   1 2.87  10 2.89  23 2.93  22 2.95  21 2.98  25 3.06  18 3.06
                             5 3.12  16 3.34  26 3.48   3 3.54
   9  0.758  0.159  0.481-  19 2.91   1 2.94  17 2.97   7 2.99   4 2.99  20 2.99  15 3.00  22 3.05
                            16 3.10  24 3.35  27 3.42  24 3.61  26 3.71
  10  0.504  0.668  0.001-   3 2.85  35 2.87   2 2.87   6 2.88   8 2.89   5 2.89  33 2.92  28 3.01
                            11 3.25  23 3.30  36 3.30  25 3.43  25 3.52
  11  0.503  0.668  0.682-  35 2.77   2 2.79  33 2.86  28 2.89  12 2.94  30 2.96  26 3.00  27 3.02
                            10 3.25   7 3.42  20 3.46  23 3.64
  12  0.248  0.511  0.515-  11 2.94  20 2.95  22 2.99  32 3.00  23 3.03   1 3.03  18 3.05  15 3.11
                            28 3.23  30 3.23  26 3.35  24 3.60  26 3.61
  13  0.276  0.167  0.832-  36 2.93   7 2.96  34 2.99  17 3.03  31 3.03  20 3.04  15 3.08  14 3.11
                            21 3.16  28 3.38  29 3.41  33 3.43  24 3.45
  14  0.991  0.001  0.997-   3 2.93   6 2.94  31 2.98   2 2.99  33 3.05  29 3.05  16 3.06  13 3.11
                            17 3.20   4 3.26  21 3.40  36 3.40  25 3.44
  15  0.980  0.325  0.671-  26 2.99   9 3.00  35 3.04  31 3.06  24 3.07  28 3.07  13 3.08  12 3.11
                            20 3.21  17 3.23  21 3.30  22 3.48  20 3.76
  16  0.743  0.168  0.177-   4 2.94  34 2.96   1 3.00  19 3.00  21 3.01  14 3.06  22 3.06  36 3.07
                             9 3.10   8 3.34  29 3.37   3 3.39  31 3.42  29 3.58
  17  0.978  0.010  0.683-  31 2.92   2 2.95   9 2.97  27 2.99  13 3.03  24 3.07  33 3.08  30 3.15
                            14 3.20   7 3.21  15 3.23
  18  0.014  0.667  0.314-   6 3.00  26 3.02   3 3.04  12 3.05  30 3.06   8 3.06   5 3.09  27 3.12
                            25 3.14   4 3.23  22 3.25  23 3.32  23 3.63
  19  0.499  0.987  0.337-   9 2.91   6 2.92   3 2.93  27 3.00  16 3.00  24 3.01  29 3.04  30 3.04
                            23 3.29   7 3.32  36 3.46   4 3.47   4 3.49   1 3.65
  20  0.519  0.333  0.650-  31 2.94  12 2.95  26 2.97   9 2.99  35 3.03  13 3.04  24 3.06  28 3.10
                             1 3.13  15 3.21   7 3.41  11 3.46  15 3.76
  21  0.980  0.333  0.995-  35 2.95   8 2.98  31 2.99  16 3.01  28 3.06   5 3.08  29 3.09  13 3.16
                            34 3.21  15 3.30  14 3.40  25 3.42  22 3.43
  22  0.009  0.351  0.331-   8 2.95   5 2.95  12 2.99  26 3.01  24 3.01   9 3.05  29 3.06  16 3.06
                            18 3.25   1 3.41  21 3.43  15 3.48   1 3.55
  23  0.491  0.666  0.325-   8 2.93   5 2.93   6 2.97   3 3.01  12 3.03  26 3.03  30 3.09  27 3.12
                            19 3.29  10 3.30  18 3.32   1 3.32  18 3.63  11 3.64
  24  0.239  0.161  0.494-  19 3.01  22 3.01   1 3.03   7 3.04  20 3.06  15 3.07  17 3.07   4 3.07
                            29 3.35   9 3.35  30 3.43  13 3.45  12 3.60   9 3.61
  25  0.998  0.666  0.006-   3 2.96  35 2.97   6 2.97   2 3.03   8 3.06  33 3.06   5 3.08  28 3.08
                            18 3.14  32 3.21  21 3.42  10 3.43  14 3.44  10 3.52
  26  0.766  0.520  0.505-  32 2.92  20 2.97  15 2.99  11 3.00  22 3.01  18 3.02  23 3.03   1 3.07
                            27 3.15  12 3.35  35 3.37   8 3.48  12 3.61   9 3.71
  27  0.763  0.827  0.508-  32 2.94   7 2.94  17 2.99  19 3.00  11 3.02   4 3.02  23 3.12  18 3.12
                            26 3.15  30 3.33   2 3.34   9 3.42   3 3.60  30 3.63
  28  0.256  0.497  0.831-  32 2.89  11 2.89  34 2.96  10 3.01  21 3.06  15 3.07  25 3.08  20 3.10
                            12 3.23   5 3.31  35 3.36  13 3.38  33 3.45
  29  0.257  0.168  0.166-  19 3.04   4 3.04  36 3.04   1 3.04  14 3.05  34 3.06  22 3.06  21 3.09
                             5 3.27  24 3.35   6 3.36  16 3.37  13 3.41  16 3.58
  30  0.242  0.826  0.515-  32 2.95  11 2.96   7 3.01  19 3.04  18 3.06   4 3.08  23 3.09  17 3.15
                            12 3.23  33 3.26  27 3.33  24 3.43  27 3.63   6 3.72
  31  0.712  0.162  0.842-  36 2.79  34 2.81   7 2.81  17 2.92  20 2.94  14 2.98  21 2.99  13 3.03
                            15 3.06  16 3.42
  32  0.998  0.670  0.691-  35 2.85  33 2.87  28 2.89   2 2.89  26 2.92  27 2.94  30 2.95  12 3.00
                            25 3.21
  33  0.261  0.833  0.835-  36 2.85  11 2.86  32 2.87  10 2.92   7 3.04  14 3.05  25 3.06  17 3.08
                             6 3.22  30 3.26   2 3.28  13 3.43  28 3.45
  34  0.518  0.341  0.001-   8 2.71   5 2.74  31 2.81  35 2.87  28 2.96  16 2.96  13 2.99  29 3.06
                            21 3.21
  35  0.739  0.510  0.835-  11 2.77  32 2.85  10 2.87  34 2.87  21 2.95  25 2.97  20 3.03  15 3.04
                             2 3.30  28 3.36  26 3.37
  36  0.503  0.990  0.998-   6 2.75   3 2.76  31 2.79   2 2.83  33 2.85  13 2.93  29 3.04  16 3.07
                            10 3.30  14 3.40  19 3.46
 
  LATTYP: Found a triclinic cell.
 ALAT       =    20.1211144771
 B/A-ratio  =     0.3455298141
 C/A-ratio  =     0.5096281550
 COS(alpha) =     0.0018028798
 COS(beta)  =     0.5092630655
 COS(gamma) =     0.6967169237
  
  Lattice vectors:
  
 A1 = ( -13.9621799238, -10.2503634879,  10.2394740071)
 A2 = (  -6.9523672729,  -0.0062204226,   0.0322693774)
 A3 = (  -0.0093879994, -10.2542693346,  -0.0162120075)


Analysis of symmetry for initial positions (statically):
=====================================================================
 Subroutine PRICEL returns:
 Original cell was already a primitive cell.
 

 Routine SETGRP: Setting up the symmetry group for a 
 triclinic supercell.


 Subroutine GETGRP returns: Found  1 space group operations
 (whereof  1 operations were pure point group operations)
 out of a pool of  2 trial point group operations.


The static configuration has the point symmetry C_1 .


Analysis of symmetry for dynamics (positions and initial velocities):
=====================================================================
 Subroutine PRICEL returns:
 Original cell was already a primitive cell.
 

 Routine SETGRP: Setting up the symmetry group for a 
 triclinic supercell.


 Subroutine GETGRP returns: Found  1 space group operations
 (whereof  1 operations were pure point group operations)
 out of a pool of  2 trial point group operations.


The dynamic configuration has the point symmetry C_1 .


 Subroutine INISYM returns: Found  1 space group operations
 (whereof  1 operations are pure point group operations),
 and found     1 'primitive' translations

 
 
 KPOINTS: k-points                                

Automatic generation of k-mesh.
Space group operators:
 irot       det(A)        alpha          n_x          n_y          n_z        tau_x        tau_y        tau_z
    1     1.000000     0.000000     1.000000     0.000000     0.000000     0.000000     0.000000     0.000000
 
 Subroutine IBZKPT returns following result:
 ===========================================
 
 Found     14 irreducible k-points:
 
 Following reciprocal coordinates:
            Coordinates               Weight
  0.000000  0.000000  0.000000      1.000000
  0.333333 -0.000000  0.000000      2.000000
  0.000000  0.333333 -0.000000      2.000000
  0.333333  0.333333  0.000000      2.000000
 -0.333333  0.333333 -0.000000      2.000000
 -0.000000  0.000000  0.333333      2.000000
  0.333333  0.000000  0.333333      2.000000
 -0.333333  0.000000  0.333333      2.000000
 -0.000000  0.333333  0.333333      2.000000
  0.333333  0.333333  0.333333      2.000000
 -0.333333  0.333333  0.333333      2.000000
  0.000000 -0.333333  0.333333      2.000000
  0.333333 -0.333333  0.333333      2.000000
 -0.333333 -0.333333  0.333333      2.000000
 
 Following cartesian coordinates:
            Coordinates               Weight
  0.000000  0.000000  0.000000      1.000000
  0.239171 -0.000221  0.001128      2.000000
 -0.000146  0.162154 -0.000261      2.000000
  0.239025  0.161934  0.000867      2.000000
 -0.239318  0.162375 -0.001389      2.000000
  0.000758 -0.000259  0.163162      2.000000
  0.239929 -0.000479  0.164290      2.000000
 -0.238414 -0.000038  0.162034      2.000000
  0.000611  0.161896  0.162901      2.000000
  0.239783  0.161675  0.164030      2.000000
 -0.238560  0.162117  0.161773      2.000000
  0.000904 -0.162413  0.163423      2.000000
  0.240075 -0.162634  0.164551      2.000000
 -0.238268 -0.162192  0.162295      2.000000
 


--------------------------------------------------------------------------------------------------------




 Dimension of arrays:
   k-points           NKPTS =     14   k-points in BZ     NKDIM =     14   number of bands    NBANDS=    172
   number of dos      NEDOS =    301   number of ions     NIONS =     36
   non local maximal  LDIM  =      6   non local SUM 2l+1 LMDIM =     18
   total plane-waves  NPLWV = 144000
   max r-space proj   IRMAX =   6306   max aug-charges    IRDMAX=  13690
   dimension x,y,z NGX =    40 NGY =   60 NGZ =   60
   dimension x,y,z NGXF=    80 NGYF=  120 NGZF=  120
   support grid    NGXF=    80 NGYF=  120 NGZF=  120
   ions per type =              12   9   9   6
 NGX,Y,Z   is equivalent  to a cutoff of   9.56,  9.73,  9.79 a.u.
 NGXF,Y,Z  is equivalent  to a cutoff of  19.13, 19.45, 19.58 a.u.


 I would recommend the setting:
   dimension x,y,z NGX =    39 NGY =   58 NGZ =   58
 SYSTEM =  automatically generated by mexm         
 POSCAR =  generated by pypospack                  

 Startparameter for this run:
   NWRITE =      2    write-flag & timer
   PREC   = accura    normal or accurate (medium, high low for compatibility)
   ISTART =      0    job   : 0-new  1-cont  2-samecut
   ICHARG =      2    charge: 1-file 2-atom 10-const
   ISPIN  =      1    spin polarized calculation?
   LNONCOLLINEAR =      F non collinear calculations
   LSORBIT =      F    spin-orbit coupling
   INIWAV =      1    electr: 0-lowe 1-rand  2-diag
   LASPH  =      F    aspherical Exc in radial PAW
   METAGGA=      F    non-selfconsistent MetaGGA calc.

 Electronic Relaxation 1
   ENCUT  =  300.0 eV  22.05 Ry    4.70 a.u.   9.82 14.48 14.39*2*pi/ulx,y,z
   ENINI  =  300.0     initial cutoff
   ENAUG  =  461.3 eV  augmentation charge cutoff
   NELM   =     70;   NELMIN=  2; NELMDL= -5     # of ELM steps 
   EDIFF  = 0.1E-04   stopping-criterion for ELM
   LREAL  =      T    real-space projection
   NLSPLINE    = F    spline interpolate recip. space projectors
   LCOMPAT=      F    compatible to vasp.4.4
   GGA_COMPAT  = T    GGA compatible to vasp.4.4-vasp.4.6
   LMAXPAW     = -100 max onsite density
   LMAXMIX     =    2 max onsite mixed and CHGCAR
   VOSKOWN=      0    Vosko Wilk Nusair interpolation
   ROPT   =   -0.00025  -0.00025  -0.00025  -0.00025
 Ionic relaxation
   EDIFFG = -.1E-01   stopping-criterion for IOM
   NSW    =    300    number of steps for IOM
   NBLOCK =      1;   KBLOCK =    300    inner block; outer block 
   IBRION =      2    ionic relax: 0-MD 1-quasi-New 2-CG
   NFREE  =      1    steps in history (QN), initial steepest desc. (CG)
   ISIF   =      3    stress and relaxation
   IWAVPR =     11    prediction:  0-non 1-charg 2-wave 3-comb
   ISYM   =      1    0-nonsym 1-usesym 2-fastsym
   LCORR  =      T    Harris-Foulkes like correction to forces

   POTIM  = 0.1500    time-step for ionic-motion
   TEIN   =    0.0    initial temperature
   TEBEG  =    0.0;   TEEND  =   0.0 temperature during run
   SMASS  =  -3.00    Nose mass-parameter (am)
   estimated Nose-frequenzy (Omega)   =  0.10E-29 period in steps =****** mass=  -0.110E-26a.u.
   SCALEE = 1.0000    scale energy and forces
   NPACO  =    256;   APACO  = 16.0  distance and # of slots for P.C.
   PSTRESS=    0.0 pullay stress

  Mass of Ions in am
   POMASS = 180.95178.49 91.22 92.91
  Ionic Valenz
   ZVAL   =   5.00  4.00 12.00 13.00
  Atomic Wigner-Seitz radii
   RWIGS  =  -1.00 -1.00 -1.00 -1.00
  virtual crystal weights 
   VCA    =   1.00  1.00  1.00  1.00
   NELECT =     282.0000    total number of electrons
   NUPDOWN=      -1.0000    fix difference up-down

 DOS related values:
   EMIN   =  10.00;   EMAX   =-10.00  energy-range for DOS
   EFERMI =   0.00
   ISMEAR =     1;   SIGMA  =   0.15  broadening in eV -4-tet -1-fermi 0-gaus

 Electronic relaxation 2 (details)
   IALGO  =     68    algorithm
   LDIAG  =      T    sub-space diagonalisation (order eigenvalues)
   LSUBROT=      F    optimize rotation matrix (better conditioning)
   TURBO    =      0    0=normal 1=particle mesh
   IRESTART =      0    0=no restart 2=restart with 2 vectors
   NREBOOT  =      0    no. of reboots
   NMIN     =      0    reboot dimension
   EREF     =   0.00    reference energy to select bands
   IMIX   =      4    mixing-type and parameters
     AMIX     =   0.40;   BMIX     =  1.00
     AMIX_MAG =   1.60;   BMIX_MAG =  1.00
     AMIN     =   0.10
     WC   =   100.;   INIMIX=   1;  MIXPRE=   1;  MAXMIX= -45

 Intra band minimization:
   WEIMIN = 0.0010     energy-eigenvalue tresh-hold
   EBREAK =  0.15E-07  absolut break condition
   DEPER  =   0.30     relativ break condition  

   TIME   =   0.40     timestep for ELM

  volume/ion in A,a.u.               =      20.18       136.19
  Fermi-wavevector in a.u.,A,eV,Ry     =   1.194193  2.256698 19.403242  1.426098
  Thomas-Fermi vector in A             =   2.330189
 
 Write flags
   LWAVE  =      F    write WAVECAR
   LCHARG =      F    write CHGCAR
   LVTOT  =      F    write LOCPOT, total local potential
   LVHAR  =      F    write LOCPOT, Hartree potential only
   LELF   =      F    write electronic localiz. function (ELF)
   LORBIT =      0    0 simple, 1 ext, 2 COOP (PROOUT)


 Dipole corrections
   LMONO  =      F    monopole corrections only (constant potential shift)
   LDIPOL =      F    correct potential (dipole corrections)
   IDIPOL =      0    1-x, 2-y, 3-z, 4-all directions 
   EPSILON=  1.0000000 bulk dielectric constant

 Exchange correlation treatment:
   GGA     =    --    GGA type
   LEXCH   =     8    internal setting for exchange type
   VOSKOWN=      0    Vosko Wilk Nusair interpolation
   LHFCALC =     F    Hartree Fock is set to
   LHFONE  =     F    Hartree Fock one center treatment
   AEXX    =    0.0000 exact exchange contribution

 Linear response parameters
   LEPSILON=     F    determine dielectric tensor
   LRPA    =     F    only Hartree local field effects (RPA)
   LNABLA  =     F    use nabla operator in PAW spheres
   LVEL    =     F    velocity operator in full k-point grid
   LINTERFAST=   F  fast interpolation
   KINTER  =     0    interpolate to denser k-point grid
   CSHIFT  =0.1000    complex shift for real part using Kramers Kronig
   OMEGAMAX=  -1.0    maximum frequency
   DEG_THRESHOLD= 0.2000000E-02 threshold for treating states as degnerate
   RTIME   =    0.100 relaxation time in fs

 Orbital magnetization related:
   ORBITALMAG=     F  switch on orbital magnetization
   LCHIMAG   =     F  perturbation theory with respect to B field
   DQ        =  0.001000  dq finite difference perturbation B field



--------------------------------------------------------------------------------------------------------


 conjugate gradient relaxation of ions
 charge density and potential will be updated during run
 non-spin polarized calculation
 RMM-DIIS sequential band-by-band and
  variant of blocked Davidson during initial phase
 perform sub-space diagonalisation
    before iterative eigenvector-optimisation
 modified Broyden-mixing scheme, WC =      100.0
 initial mixing is a Kerker type mixing with AMIX =  0.4000 and BMIX =      1.0000
 Hartree-type preconditioning will be used
 using additional bands           31
 real space projection scheme for non local part
 use partial core corrections
 calculate Harris-corrections to forces 
   (improved forces if not selfconsistent)
 use gradient corrections 
 use of overlap-Matrix (Vanderbilt PP)
 Methfessel and Paxton  Order N= 1 SIGMA  =   0.15


--------------------------------------------------------------------------------------------------------


  energy-cutoff  :      300.00
  volume of cell :      726.52
      direct lattice vectors                 reciprocal lattice vectors
     6.952367273  0.006220423 -0.032269377     0.143839167 -0.000132760  0.000678501
     0.009387999 10.254269335  0.016212008    -0.000087982  0.097520685 -0.000156839
    -0.048057379  0.016346692 10.191147260     0.000455594 -0.000155556  0.098126777

  length of vectors
     6.952444944 10.254286448 10.191273679     0.143840829  0.097520851  0.098127958


 
 k-points in units of 2pi/SCALE and weight: k-points                                
   0.00000000  0.00000000  0.00000000       0.037
   0.23917145 -0.00022075  0.00112819       0.074
  -0.00014629  0.16215447 -0.00026079       0.074
   0.23902516  0.16193372  0.00086740       0.074
  -0.23931775  0.16237522 -0.00138898       0.074
   0.00075755 -0.00025865  0.16316226       0.074
   0.23992900 -0.00047940  0.16429045       0.074
  -0.23841390 -0.00003790  0.16203407       0.074
   0.00061125  0.16189582  0.16290147       0.074
   0.23978271  0.16167507  0.16402967       0.074
  -0.23856020  0.16211657  0.16177328       0.074
   0.00090384 -0.16241312  0.16342305       0.074
   0.24007529 -0.16263387  0.16455124       0.074
  -0.23826761 -0.16219237  0.16229486       0.074
 
 k-points in reciprocal lattice and weights: k-points                                
   0.00000000  0.00000000  0.00000000       0.037
   0.33333333 -0.00000000  0.00000000       0.074
   0.00000000  0.33333333 -0.00000000       0.074
   0.33333333  0.33333333  0.00000000       0.074
  -0.33333333  0.33333333 -0.00000000       0.074
  -0.00000000  0.00000000  0.33333333       0.074
   0.33333333  0.00000000  0.33333333       0.074
  -0.33333333  0.00000000  0.33333333       0.074
  -0.00000000  0.33333333  0.33333333       0.074
   0.33333333  0.33333333  0.33333333       0.074
  -0.33333333  0.33333333  0.33333333       0.074
   0.00000000 -0.33333333  0.33333333       0.074
   0.33333333 -0.33333333  0.33333333       0.074
  -0.33333333 -0.33333333  0.33333333       0.074
 
 position of ions in fractional coordinates (direct lattice) 
   0.49989200  0.34246400  0.34306700
   0.73310500  0.83141000  0.83552400
   0.73751500  0.83788800  0.15585000
   0.99775400  0.98249600  0.31554500
   0.27967700  0.48624900  0.15495400
   0.26389700  0.84109700  0.15054800
   0.51645400  0.00041900  0.66264000
   0.72785900  0.49330800  0.16529500
   0.75755400  0.15912400  0.48070200
   0.50407900  0.66760500  0.00141400
   0.50297800  0.66803400  0.68218500
   0.24774600  0.51128700  0.51465900
   0.27647500  0.16708500  0.83193200
   0.99133800  0.00144900  0.99662200
   0.97972500  0.32494100  0.67074300
   0.74253400  0.16767600  0.17707700
   0.97765500  0.01047400  0.68273900
   0.01350000  0.66726000  0.31363100
   0.49932100  0.98688200  0.33741600
   0.51892400  0.33284900  0.65002600
   0.97961700  0.33267300  0.99464400
   0.00917300  0.35093900  0.33058200
   0.49129800  0.66621300  0.32543100
   0.23943600  0.16051600  0.49425700
   0.99752400  0.66583500  0.00560100
   0.76648900  0.51950600  0.50515100
   0.76281200  0.82680000  0.50822600
   0.25592100  0.49673400  0.83093100
   0.25739000  0.16805700  0.16641800
   0.24158900  0.82623200  0.51525700
   0.71248800  0.16168200  0.84208700
   0.99804700  0.67033000  0.69103000
   0.26094900  0.83326500  0.83461900
   0.51782700  0.34129100  0.00058800
   0.73887500  0.51007900  0.83459400
   0.50257100  0.98986000  0.99801600
 
 position of ions in cartesian coordinates  (Angst):
   3.46216093  3.52043564  3.48566714
   5.06446739  8.54372034  8.50477011
   5.12785150  8.59906451  1.57807500
   6.93081166 10.08614317  3.19949689
   1.94153544  4.99040090  1.57801710
   1.83537014  8.62893769  1.53937692
   3.55873708  0.01834107  6.73640296
   5.05703062  5.06574271  1.66905564
   5.24518622  1.64427055  4.87703879
   3.51074186  6.84896018  0.00896718
   3.47037527  6.86448076  6.94684718
   1.70248798  5.25282866  5.24526004
   1.88374386  1.72865372  8.47212863
   6.84426443  0.03731645 10.12475520
   6.78222442  3.34909126  6.80929352
   5.15543337  1.72690836  1.78337504
   6.76430431  0.12464517  6.92651518
   0.08504891  6.84747456  3.20664169
   3.46451250 10.12837545  3.43854270
   3.57963648  3.42697700  6.61316148
   6.76598032  3.43367131 10.11034514
   0.05118178  3.60408401  3.37440326
   3.40629918  6.83990334  3.31146201
   1.64240124  1.65554316  5.03192171
   6.94113490  6.83394800  0.03568566
   5.30951393  5.34017988  5.13175634
   5.28668717  8.49128271  5.16819463
   1.74398776  5.10881913  8.46793483
   1.78304992  1.72762320  1.69040907
   1.66261022  8.48233099  5.25665892
   4.91452763  1.67612809  8.56146227
   6.91187327  6.89124869  7.02104953
   1.78192638  8.55979021  8.51081337
   3.60329927  3.50292055 -0.00518455
   5.10161059  5.24872641  8.48989672
   3.45538895 10.16973151 10.17075799
 


--------------------------------------------------------------------------------------------------------


 k-point  1 :   0.0000 0.0000 0.0000  plane waves:    8609
 k-point  2 :   0.3333-0.0000 0.0000  plane waves:    8583
 k-point  3 :   0.0000 0.3333-0.0000  plane waves:    8573
 k-point  4 :   0.3333 0.3333 0.0000  plane waves:    8573
 k-point  5 :  -0.3333 0.3333-0.0000  plane waves:    8579
 k-point  6 :  -0.0000 0.0000 0.3333  plane waves:    8565
 k-point  7 :   0.3333 0.0000 0.3333  plane waves:    8567
 k-point  8 :  -0.3333 0.0000 0.3333  plane waves:    8580
 k-point  9 :  -0.0000 0.3333 0.3333  plane waves:    8556
 k-point 10 :   0.3333 0.3333 0.3333  plane waves:    8575
 k-point 11 :  -0.3333 0.3333 0.3333  plane waves:    8579
 k-point 12 :   0.0000-0.3333 0.3333  plane waves:    8571
 k-point 13 :   0.3333-0.3333 0.3333  plane waves:    8576
 k-point 14 :  -0.3333-0.3333 0.3333  plane waves:    8577

 maximum and minimum number of plane-waves per node :      1746     1689

 maximum number of plane-waves:      8609
 maximum index in each direction: 
   IXMAX=   10   IYMAX=   14   IZMAX=   14
   IXMIN=  -10   IYMIN=  -14   IZMIN=  -14

 WARNING: aliasing errors must be expected set NGX to  42 to avoid them
 NGY is ok and might be reduce to  58
 NGZ is ok and might be reduce to  58
 aliasing errors are usually negligible using standard VASP settings
 and one can safely disregard these warnings

 real space projection operators:
  total allocation   :      26901.00 KBytes
  max/ min on nodes  :       5440.78       5303.67


 parallel 3D FFT for wavefunctions:
    minimum data exchange during FFTs selected (reduces bandwidth)
 parallel 3D FFT for charge:
    minimum data exchange during FFTs selected (reduces bandwidth)


 total amount of memory used by VASP on root node    66897. kBytes
========================================================================

   base      :      30000. kBytes
   nonlr-proj:      10376. kBytes
   fftplans  :       2814. kBytes
   grid      :       5360. kBytes
   one-center:        124. kBytes
   wavefun   :      18223. kBytes
 
     INWAV:  cpu time    0.0000: real time    0.0000
 Broyden mixing: mesh for mixing (old mesh)
   NGX = 19   NGY = 29   NGZ = 29
  (NGX  = 80   NGY  =120   NGZ  =120)
  gives a total of  15979 points

 initial charge density was supplied:
 charge density of overlapping atoms calculated
 number of electron     282.0000000 magnetization 
 keeping initial charge density in first step


--------------------------------------------------------------------------------------------------------


 Maximum index for non-local projection operator         1221
 Maximum index for augmentation-charges          682 (set IRDMAX)


--------------------------------------------------------------------------------------------------------


 First call to EWALD:  gamma=   0.197
 Maximum number of real-space cells 3x 2x 2
 Maximum number of reciprocal cells 2x 3x 3

 FEWALD executed in parallel
    FEWALD:  cpu time    0.0509: real time    0.0511


----------------------------------------- Iteration    1(   1)  ---------------------------------------


    POTLOK:  cpu time    0.0498: real time    0.0666
    SETDIJ:  cpu time    0.0111: real time    0.0112
     EDDAV:  cpu time    1.0829: real time    1.0872
       DOS:  cpu time    0.0021: real time    0.0021
    --------------------------------------------
      LOOP:  cpu time    1.1538: real time    1.5364

 eigenvalue-minimisations  :  5272
 total energy-change (2. order) : 0.1662207E+04  (-0.1039897E+05)
 number of electron     282.0000000 magnetization 
 augmentation part      282.0000000 magnetization 

 Free energy of the ion-electron system (eV)
  ---------------------------------------------------
  alpha Z        PSCENC =      1458.74875988
  Ewald energy   TEWEN  =    -18164.86066742
  -Hartree energ DENC   =     -5979.71429780
  -exchange      EXHF   =         0.00000000
  -V(xc)+E(xc)   XCENC  =      -487.23885504
  PAW double counting   =     19822.61729966   -18120.26200271
  entropy T*S    EENTRO =         0.00290661
  eigenvalues    EBANDS =        -6.11119822
  atomic energy  EATOM  =     23139.02543807
  Solvation  Ediel_sol  =         0.00000000
  ---------------------------------------------------
  free energy    TOTEN  =      1662.20738304 eV

  energy without entropy =     1662.20447643  energy(sigma->0) =     1662.20641417


--------------------------------------------------------------------------------------------------------




----------------------------------------- Iteration    1(   2)  ---------------------------------------


     EDDAV:  cpu time    0.9931: real time    1.0004
       DOS:  cpu time    0.0008: real time    0.0009
    --------------------------------------------
      LOOP:  cpu time    0.9950: real time    1.1969

 eigenvalue-minimisations  :  5388
 total energy-change (2. order) :-0.1770030E+04  (-0.1700090E+04)
 number of electron     282.0000000 magnetization 
 augmentation part      282.0000000 magnetization 

 Free energy of the ion-electron system (eV)
  ---------------------------------------------------
  alpha Z        PSCENC =      1458.74875988
  Ewald energy   TEWEN  =    -18164.86066742
  -Hartree energ DENC   =     -5979.71429780
  -exchange      EXHF   =         0.00000000
  -V(xc)+E(xc)   XCENC  =      -487.23885504
  PAW double counting   =     19822.61729966   -18120.26200271
  entropy T*S    EENTRO =         0.00259352
  eigenvalues    EBANDS =     -1776.14125512
  atomic energy  EATOM  =     23139.02543807
  Solvation  Ediel_sol  =         0.00000000
  ---------------------------------------------------
  free energy    TOTEN  =      -107.82298695 eV

  energy without entropy =     -107.82558047  energy(sigma->0) =     -107.82385146


--------------------------------------------------------------------------------------------------------




----------------------------------------- Iteration    1(   3)  ---------------------------------------


     EDDAV:  cpu time    1.3177: real time    1.5328
       DOS:  cpu time    0.0009: real time    0.0009
    --------------------------------------------
      LOOP:  cpu time    1.3189: real time    1.5802

 eigenvalue-minimisations  :  8192
 total energy-change (2. order) :-0.2416150E+03  (-0.2291027E+03)
 number of electron     282.0000000 magnetization 
 augmentation part      282.0000000 magnetization 

 Free energy of the ion-electron system (eV)
  ---------------------------------------------------
  alpha Z        PSCENC =      1458.74875988
  Ewald energy   TEWEN  =    -18164.86066742
  -Hartree energ DENC   =     -5979.71429780
  -exchange      EXHF   =         0.00000000
  -V(xc)+E(xc)   XCENC  =      -487.23885504
  PAW double counting   =     19822.61729966   -18120.26200271
  entropy T*S    EENTRO =         0.00285819
  eigenvalues    EBANDS =     -2017.75650075
  atomic energy  EATOM  =     23139.02543807
  Solvation  Ediel_sol  =         0.00000000
  ---------------------------------------------------
  free energy    TOTEN  =      -349.43796791 eV

  energy without entropy =     -349.44082610  energy(sigma->0) =     -349.43892064


--------------------------------------------------------------------------------------------------------




----------------------------------------- Iteration    1(   4)  ---------------------------------------


     EDDAV:  cpu time    1.2985: real time    1.4370
       DOS:  cpu time    0.0009: real time    0.0012
    --------------------------------------------
      LOOP:  cpu time    1.2998: real time    1.4801

 eigenvalue-minimisations  :  8112
 total energy-change (2. order) :-0.2886675E+02  (-0.2753061E+02)
 number of electron     282.0000000 magnetization 
 augmentation part      282.0000000 magnetization 

 Free energy of the ion-electron system (eV)
  ---------------------------------------------------
  alpha Z        PSCENC =      1458.74875988
  Ewald energy   TEWEN  =    -18164.86066742
  -Hartree energ DENC   =     -5979.71429780
  -exchange      EXHF   =         0.00000000
  -V(xc)+E(xc)   XCENC  =      -487.23885504
  PAW double counting   =     19822.61729966   -18120.26200271
  entropy T*S    EENTRO =         0.01357292
  eigenvalues    EBANDS =     -2046.63396812
  atomic energy  EATOM  =     23139.02543807
  Solvation  Ediel_sol  =         0.00000000
  ---------------------------------------------------
  free energy    TOTEN  =      -378.30472055 eV

  energy without entropy =     -378.31829347  energy(sigma->0) =     -378.30924485


--------------------------------------------------------------------------------------------------------




----------------------------------------- Iteration    1(   5)  ---------------------------------------


     EDDAV:  cpu time    1.3358: real time    1.3486
       DOS:  cpu time    0.0012: real time    0.0012
    CHARGE:  cpu time    0.0302: real time    0.0303
    MIXING:  cpu time    0.0014: real time    0.0014
    --------------------------------------------
      LOOP:  cpu time    1.3690: real time    1.4213

 eigenvalue-minimisations  :  7608
 total energy-change (2. order) :-0.2833595E+01  (-0.2774448E+01)
 number of electron     282.0000000 magnetization 
 augmentation part       14.8700066 magnetization 

 Broyden mixing:
  rms(total) = 0.66551E+01    rms(broyden)= 0.66547E+01
  rms(prec ) = 0.69161E+01
  weight for this iteration     100.00

 Free energy of the ion-electron system (eV)
  ---------------------------------------------------
  alpha Z        PSCENC =      1458.74875988
  Ewald energy   TEWEN  =    -18164.86066742
  -Hartree energ DENC   =     -5979.71429780
  -exchange      EXHF   =         0.00000000
  -V(xc)+E(xc)   XCENC  =      -487.23885504
  PAW double counting   =     19822.61729966   -18120.26200271
  entropy T*S    EENTRO =         0.01585216
  eigenvalues    EBANDS =     -2049.46984188
  atomic energy  EATOM  =     23139.02543807
  Solvation  Ediel_sol  =         0.00000000
  ---------------------------------------------------
  free energy    TOTEN  =      -381.13831507 eV

  energy without entropy =     -381.15416723  energy(sigma->0) =     -381.14359912


--------------------------------------------------------------------------------------------------------




----------------------------------------- Iteration    1(   6)  ---------------------------------------


    POTLOK:  cpu time    0.0306: real time    0.0317
    SETDIJ:  cpu time    0.0037: real time    0.0038
    EDDIAG:  cpu time    0.0747: real time    0.0749
  RMM-DIIS:  cpu time    0.7049: real time    0.7072
    ORTHCH:  cpu time    0.0115: real time    0.0116
       DOS:  cpu time    0.0010: real time    0.0010
    CHARGE:  cpu time    0.0291: real time    0.0291
    MIXING:  cpu time    0.0017: real time    0.0140
    --------------------------------------------
      LOOP:  cpu time    0.8578: real time    0.9105

 eigenvalue-minimisations  :  6785
 total energy-change (2. order) : 0.1033113E+02  (-0.2190729E+01)
 number of electron     281.9999999 magnetization 
 augmentation part       15.4998850 magnetization 

 Broyden mixing:
  rms(total) = 0.32023E+01    rms(broyden)= 0.32022E+01
  rms(prec ) = 0.34499E+01
  weight for this iteration     100.00

 eigenvalues of (default mixing * dielectric matrix)
  average eigenvalue GAMMA=   1.8589
  1.8589

 Free energy of the ion-electron system (eV)
  ---------------------------------------------------
  alpha Z        PSCENC =      1458.74875988
  Ewald energy   TEWEN  =    -18164.86066742
  -Hartree energ DENC   =     -5826.97685134
  -exchange      EXHF   =         0.00000000
  -V(xc)+E(xc)   XCENC  =      -489.26660077
  PAW double counting   =     25308.29307231   -23615.49766158
  entropy T*S    EENTRO =         0.01609703
  eigenvalues    EBANDS =     -2180.28876731
  atomic energy  EATOM  =     23139.02543807
  Solvation  Ediel_sol  =         0.00000000
  ---------------------------------------------------
  free energy    TOTEN  =      -370.80718113 eV

  energy without entropy =     -370.82327816  energy(sigma->0) =     -370.81254681


--------------------------------------------------------------------------------------------------------




----------------------------------------- Iteration    1(   7)  ---------------------------------------


    POTLOK:  cpu time    0.0292: real time    0.0293
    SETDIJ:  cpu time    0.0038: real time    0.0038
    EDDIAG:  cpu time    0.0726: real time    0.0728
  RMM-DIIS:  cpu time    0.8166: real time    0.8195
    ORTHCH:  cpu time    0.0114: real time    0.0114
       DOS:  cpu time    0.0009: real time    0.0009
    CHARGE:  cpu time    0.0289: real time    0.0290
    MIXING:  cpu time    0.0013: real time    0.0013
    --------------------------------------------
      LOOP:  cpu time    0.9654: real time    1.0100

 eigenvalue-minimisations  :  7207
 total energy-change (2. order) :-0.9581647E+00  (-0.2578757E+01)
 number of electron     282.0000000 magnetization 
 augmentation part       15.9584516 magnetization 

 Broyden mixing:
  rms(total) = 0.10634E+01    rms(broyden)= 0.10630E+01
  rms(prec ) = 0.31153E+01
  weight for this iteration     100.00

 eigenvalues of (default mixing * dielectric matrix)
  average eigenvalue GAMMA=   1.1850
  1.8478  0.5222

 Free energy of the ion-electron system (eV)
  ---------------------------------------------------
  alpha Z        PSCENC =      1458.74875988
  Ewald energy   TEWEN  =    -18164.86066742
  -Hartree energ DENC   =     -5739.71122742
  -exchange      EXHF   =         0.00000000
  -V(xc)+E(xc)   XCENC  =      -487.46566180
  PAW double counting   =     30945.33945248   -29248.76856106
  entropy T*S    EENTRO =         0.01805457
  eigenvalues    EBANDS =     -2274.09093319
  atomic energy  EATOM  =     23139.02543807
  Solvation  Ediel_sol  =         0.00000000
  ---------------------------------------------------
  free energy    TOTEN  =      -371.76534588 eV

  energy without entropy =     -371.78340045  energy(sigma->0) =     -371.77136407


--------------------------------------------------------------------------------------------------------




----------------------------------------- Iteration    1(   8)  ---------------------------------------


    POTLOK:  cpu time    0.0283: real time    0.0283
    SETDIJ:  cpu time    0.0038: real time    0.0038
    EDDIAG:  cpu time    0.0731: real time    0.0734
  RMM-DIIS:  cpu time    0.7652: real time    0.7681
    ORTHCH:  cpu time    0.0114: real time    0.0114
       DOS:  cpu time    0.0013: real time    0.0013
    CHARGE:  cpu time    0.0303: real time    0.0304
    MIXING:  cpu time    0.0013: real time    0.0013
    --------------------------------------------
      LOOP:  cpu time    0.9153: real time    0.9658

 eigenvalue-minimisations  :  7329
 total energy-change (2. order) : 0.5247749E+01  (-0.6029945E+00)
 number of electron     282.0000000 magnetization 
 augmentation part       15.7753294 magnetization 

 Broyden mixing:
  rms(total) = 0.39529E+00    rms(broyden)= 0.39480E+00
  rms(prec ) = 0.66361E+00
  weight for this iteration     100.00

 eigenvalues of (default mixing * dielectric matrix)
  average eigenvalue GAMMA=   1.1234
  1.8313  1.1383  0.4006

 Free energy of the ion-electron system (eV)
  ---------------------------------------------------
  alpha Z        PSCENC =      1458.74875988
  Ewald energy   TEWEN  =    -18164.86066742
  -Hartree energ DENC   =     -5743.35125134
  -exchange      EXHF   =         0.00000000
  -V(xc)+E(xc)   XCENC  =      -486.68563993
  PAW double counting   =     31825.76376280   -30127.17064155
  entropy T*S    EENTRO =         0.02328261
  eigenvalues    EBANDS =     -2268.01064019
  atomic energy  EATOM  =     23139.02543807
  Solvation  Ediel_sol  =         0.00000000
  ---------------------------------------------------
  free energy    TOTEN  =      -366.51759706 eV

  energy without entropy =     -366.54087967  energy(sigma->0) =     -366.52535793


--------------------------------------------------------------------------------------------------------




----------------------------------------- Iteration    1(   9)  ---------------------------------------


    POTLOK:  cpu time    0.0290: real time    0.0291
    SETDIJ:  cpu time    0.0037: real time    0.0037
    EDDIAG:  cpu time    0.0766: real time    0.0769
  RMM-DIIS:  cpu time    0.7605: real time    0.7633
    ORTHCH:  cpu time    0.0174: real time    0.0174
       DOS:  cpu time    0.0102: real time    0.0103
    CHARGE:  cpu time    0.0530: real time    0.0531
    MIXING:  cpu time    0.0015: real time    0.0015
    --------------------------------------------
      LOOP:  cpu time    0.9526: real time    0.9934

 eigenvalue-minimisations  :  7373
 total energy-change (2. order) : 0.2011964E+00  (-0.2201847E+00)
 number of electron     282.0000000 magnetization 
 augmentation part       15.6532187 magnetization 

 Broyden mixing:
  rms(total) = 0.27611E+00    rms(broyden)= 0.27604E+00
  rms(prec ) = 0.36073E+00
  weight for this iteration     100.00

 eigenvalues of (default mixing * dielectric matrix)
  average eigenvalue GAMMA=   1.1487
  1.8607  1.8607  0.4846  0.3890

 Free energy of the ion-electron system (eV)
  ---------------------------------------------------
  alpha Z        PSCENC =      1458.74875988
  Ewald energy   TEWEN  =    -18164.86066742
  -Hartree energ DENC   =     -5743.75065108
  -exchange      EXHF   =         0.00000000
  -V(xc)+E(xc)   XCENC  =      -486.29519326
  PAW double counting   =     32025.72380681   -30323.78595767
  entropy T*S    EENTRO =         0.02552810
  eigenvalues    EBANDS =     -2271.14746407
  atomic energy  EATOM  =     23139.02543807
  Solvation  Ediel_sol  =         0.00000000
  ---------------------------------------------------
  free energy    TOTEN  =      -366.31640064 eV

  energy without entropy =     -366.34192874  energy(sigma->0) =     -366.32491000


--------------------------------------------------------------------------------------------------------




----------------------------------------- Iteration    1(  10)  ---------------------------------------


    POTLOK:  cpu time    0.0305: real time    0.0317
    SETDIJ:  cpu time    0.0038: real time    0.0038
    EDDIAG:  cpu time    0.1353: real time    0.1361
  RMM-DIIS:  cpu time    0.7785: real time    0.7818
    ORTHCH:  cpu time    0.0117: real time    0.0117
       DOS:  cpu time    0.0012: real time    0.0012
    CHARGE:  cpu time    0.0295: real time    0.0296
    MIXING:  cpu time    0.0015: real time    0.0016
    --------------------------------------------
      LOOP:  cpu time    0.9927: real time    1.0397

 eigenvalue-minimisations  :  7384
 total energy-change (2. order) : 0.4063818E-01  (-0.4035580E-01)
 number of electron     282.0000000 magnetization 
 augmentation part       15.5611148 magnetization 

 Broyden mixing:
  rms(total) = 0.12316E+00    rms(broyden)= 0.12312E+00
  rms(prec ) = 0.20510E+00
  weight for this iteration     100.00

 eigenvalues of (default mixing * dielectric matrix)
  average eigenvalue GAMMA=   1.1303
  1.9858  1.9858  0.8012  0.4926  0.3865

 Free energy of the ion-electron system (eV)
  ---------------------------------------------------
  alpha Z        PSCENC =      1458.74875988
  Ewald energy   TEWEN  =    -18164.86066742
  -Hartree energ DENC   =     -5755.27758688
  -exchange      EXHF   =         0.00000000
  -V(xc)+E(xc)   XCENC  =      -485.36956312
  PAW double counting   =     32272.29507281   -30563.46928888
  entropy T*S    EENTRO =         0.02659798
  eigenvalues    EBANDS =     -2267.39452491
  atomic energy  EATOM  =     23139.02543807
  Solvation  Ediel_sol  =         0.00000000
  ---------------------------------------------------
  free energy    TOTEN  =      -366.27576246 eV

  energy without entropy =     -366.30236044  energy(sigma->0) =     -366.28462845


--------------------------------------------------------------------------------------------------------




----------------------------------------- Iteration    1(  11)  ---------------------------------------


    POTLOK:  cpu time    0.0290: real time    0.0297
    SETDIJ:  cpu time    0.0036: real time    0.0036
    EDDIAG:  cpu time    0.0725: real time    0.0728
  RMM-DIIS:  cpu time    0.8432: real time    0.9046
    ORTHCH:  cpu time    0.0113: real time    0.0114
       DOS:  cpu time    0.0022: real time    0.0022
    CHARGE:  cpu time    0.0689: real time    0.0712
    MIXING:  cpu time    0.0014: real time    0.0015
    --------------------------------------------
      LOOP:  cpu time    1.0328: real time    1.1326

 eigenvalue-minimisations  :  7383
 total energy-change (2. order) : 0.1957311E-01  (-0.1199310E-01)
 number of electron     282.0000000 magnetization 
 augmentation part       15.5383579 magnetization 

 Broyden mixing:
  rms(total) = 0.64327E-01    rms(broyden)= 0.64293E-01
  rms(prec ) = 0.12155E+00
  weight for this iteration     100.00

 eigenvalues of (default mixing * dielectric matrix)
  average eigenvalue GAMMA=   1.0955
  2.1880  1.8899  1.1077  0.3841  0.5123  0.4913

 Free energy of the ion-electron system (eV)
  ---------------------------------------------------
  alpha Z        PSCENC =      1458.74875988
  Ewald energy   TEWEN  =    -18164.86066742
  -Hartree energ DENC   =     -5758.90095964
  -exchange      EXHF   =         0.00000000
  -V(xc)+E(xc)   XCENC  =      -484.97485027
  PAW double counting   =     32440.59921090   -30728.70867061
  entropy T*S    EENTRO =         0.02757830
  eigenvalues    EBANDS =     -2267.21202857
  atomic energy  EATOM  =     23139.02543807
  Solvation  Ediel_sol  =         0.00000000
  ---------------------------------------------------
  free energy    TOTEN  =      -366.25618935 eV

  energy without entropy =     -366.28376765  energy(sigma->0) =     -366.26538211


--------------------------------------------------------------------------------------------------------




----------------------------------------- Iteration    1(  12)  ---------------------------------------


    POTLOK:  cpu time    0.0305: real time    0.0335
    SETDIJ:  cpu time    0.0036: real time    0.0037
    EDDIAG:  cpu time    0.0776: real time    0.0830
  RMM-DIIS:  cpu time    0.7238: real time    0.8080
    ORTHCH:  cpu time    0.0115: real time    0.0116
       DOS:  cpu time    0.0014: real time    0.0014
    CHARGE:  cpu time    0.0295: real time    0.0295
    MIXING:  cpu time    0.0015: real time    0.0015
    --------------------------------------------
      LOOP:  cpu time    0.8802: real time    1.0358

 eigenvalue-minimisations  :  7491
 total energy-change (2. order) : 0.2785937E-02  (-0.4361499E-02)
 number of electron     282.0000000 magnetization 
 augmentation part       15.5347851 magnetization 

 Broyden mixing:
  rms(total) = 0.39052E-01    rms(broyden)= 0.39037E-01
  rms(prec ) = 0.65536E-01
  weight for this iteration     100.00

 eigenvalues of (default mixing * dielectric matrix)
  average eigenvalue GAMMA=   1.0663
  2.2312  1.8401  1.4289  0.6395  0.5533  0.3796  0.3917

 Free energy of the ion-electron system (eV)
  ---------------------------------------------------
  alpha Z        PSCENC =      1458.74875988
  Ewald energy   TEWEN  =    -18164.86066742
  -Hartree energ DENC   =     -5761.01737363
  -exchange      EXHF   =         0.00000000
  -V(xc)+E(xc)   XCENC  =      -484.83256645
  PAW double counting   =     32544.32286452   -30831.01008663
  entropy T*S    EENTRO =         0.02797627
  eigenvalues    EBANDS =     -2266.65774804
  atomic energy  EATOM  =     23139.02543807
  Solvation  Ediel_sol  =         0.00000000
  ---------------------------------------------------
  free energy    TOTEN  =      -366.25340341 eV

  energy without entropy =     -366.28137968  energy(sigma->0) =     -366.26272883


--------------------------------------------------------------------------------------------------------




----------------------------------------- Iteration    1(  13)  ---------------------------------------


    POTLOK:  cpu time    0.0270: real time    0.0485
    SETDIJ:  cpu time    0.0036: real time    0.0071
    EDDIAG:  cpu time    0.0773: real time    0.0924
  RMM-DIIS:  cpu time    0.8124: real time    0.8495
    ORTHCH:  cpu time    0.0114: real time    0.0115
       DOS:  cpu time    0.0009: real time    0.0009
    CHARGE:  cpu time    0.0289: real time    0.0290
    MIXING:  cpu time    0.0015: real time    0.0015
    --------------------------------------------
      LOOP:  cpu time    0.9636: real time    1.0841

 eigenvalue-minimisations  :  7467
 total energy-change (2. order) : 0.1111844E-02  (-0.1546090E-02)
 number of electron     282.0000000 magnetization 
 augmentation part       15.5321632 magnetization 

 Broyden mixing:
  rms(total) = 0.22963E-01    rms(broyden)= 0.22955E-01
  rms(prec ) = 0.31714E-01
  weight for this iteration     100.00

 eigenvalues of (default mixing * dielectric matrix)
  average eigenvalue GAMMA=   1.0812
  2.3979  1.9816  1.4840  0.9683  0.5962  0.4753  0.3831  0.3634

 Free energy of the ion-electron system (eV)
  ---------------------------------------------------
  alpha Z        PSCENC =      1458.74875988
  Ewald energy   TEWEN  =    -18164.86066742
  -Hartree energ DENC   =     -5760.54819892
  -exchange      EXHF   =         0.00000000
  -V(xc)+E(xc)   XCENC  =      -484.83066591
  PAW double counting   =     32605.76431401   -30891.73458920
  entropy T*S    EENTRO =         0.02793532
  eigenvalues    EBANDS =     -2267.84461741
  atomic energy  EATOM  =     23139.02543807
  Solvation  Ediel_sol  =         0.00000000
  ---------------------------------------------------
  free energy    TOTEN  =      -366.25229157 eV

  energy without entropy =     -366.28022689  energy(sigma->0) =     -366.26160334


--------------------------------------------------------------------------------------------------------




----------------------------------------- Iteration    1(  14)  ---------------------------------------


    POTLOK:  cpu time    0.0282: real time    0.0284
    SETDIJ:  cpu time    0.0036: real time    0.0036
    EDDIAG:  cpu time    0.0978: real time    0.1178
  RMM-DIIS:  cpu time    0.8028: real time    0.8055
    ORTHCH:  cpu time    0.0115: real time    0.0115
       DOS:  cpu time    0.0021: real time    0.0021
    CHARGE:  cpu time    0.0287: real time    0.0297
    MIXING:  cpu time    0.0016: real time    0.0016
    --------------------------------------------
      LOOP:  cpu time    0.9770: real time    1.0437

 eigenvalue-minimisations  :  7545
 total energy-change (2. order) :-0.9653565E-04  (-0.6058583E-03)
 number of electron     282.0000000 magnetization 
 augmentation part       15.5307212 magnetization 

 Broyden mixing:
  rms(total) = 0.11581E-01    rms(broyden)= 0.11578E-01
  rms(prec ) = 0.16697E-01
  weight for this iteration     100.00

 eigenvalues of (default mixing * dielectric matrix)
  average eigenvalue GAMMA=   1.0864
  2.5432  2.0552  1.6004  1.1409  0.6198  0.6198  0.4523  0.3888  0.3569

 Free energy of the ion-electron system (eV)
  ---------------------------------------------------
  alpha Z        PSCENC =      1458.74875988
  Ewald energy   TEWEN  =    -18164.86066742
  -Hartree energ DENC   =     -5760.87638294
  -exchange      EXHF   =         0.00000000
  -V(xc)+E(xc)   XCENC  =      -484.82168476
  PAW double counting   =     32641.10958144   -30926.50426303
  entropy T*S    EENTRO =         0.02803929
  eigenvalues    EBANDS =     -2268.10120864
  atomic energy  EATOM  =     23139.02543807
  Solvation  Ediel_sol  =         0.00000000
  ---------------------------------------------------
  free energy    TOTEN  =      -366.25238810 eV

  energy without entropy =     -366.28042739  energy(sigma->0) =     -366.26173453


--------------------------------------------------------------------------------------------------------




----------------------------------------- Iteration    1(  15)  ---------------------------------------


    POTLOK:  cpu time    0.0285: real time    0.0285
    SETDIJ:  cpu time    0.0036: real time    0.0036
    EDDIAG:  cpu time    0.0745: real time    0.0778
WARNING in EDDRMM: call to ZHEGV failed, returncode =   6  3 18
  RMM-DIIS:  cpu time    0.7752: real time    0.7778
    ORTHCH:  cpu time    0.0115: real time    0.0115
       DOS:  cpu time    0.0020: real time    0.0020
    CHARGE:  cpu time    0.0291: real time    0.0292
    MIXING:  cpu time    0.0016: real time    0.0016
    --------------------------------------------
      LOOP:  cpu time    0.9265: real time    0.9710

 eigenvalue-minimisations  :  7545
 total energy-change (2. order) :-0.1099022E-03  (-0.2761954E-03)
 number of electron     282.0000000 magnetization 
 augmentation part       15.5285520 magnetization 

 Broyden mixing:
  rms(total) = 0.53096E-02    rms(broyden)= 0.53077E-02
  rms(prec ) = 0.88023E-02
  weight for this iteration     100.00

 eigenvalues of (default mixing * dielectric matrix)
  average eigenvalue GAMMA=   1.0800
  2.6469  2.0660  1.5528  1.4196  0.7097  0.7097  0.4795  0.4795  0.3799  0.3561

 Free energy of the ion-electron system (eV)
  ---------------------------------------------------
  alpha Z        PSCENC =      1458.74875988
  Ewald energy   TEWEN  =    -18164.86066742
  -Hartree energ DENC   =     -5761.33768627
  -exchange      EXHF   =         0.00000000
  -V(xc)+E(xc)   XCENC  =      -484.80790058
  PAW double counting   =     32661.62825845   -30946.65253659
  entropy T*S    EENTRO =         0.02790651
  eigenvalues    EBANDS =     -2268.02407006
  atomic energy  EATOM  =     23139.02543807
  Solvation  Ediel_sol  =         0.00000000
  ---------------------------------------------------
  free energy    TOTEN  =      -366.25249800 eV

  energy without entropy =     -366.28040452  energy(sigma->0) =     -366.26180018


--------------------------------------------------------------------------------------------------------




----------------------------------------- Iteration    1(  16)  ---------------------------------------


    POTLOK:  cpu time    0.0288: real time    0.0289
    SETDIJ:  cpu time    0.0103: real time    0.0103
    EDDIAG:  cpu time    0.0813: real time    0.0815
  RMM-DIIS:  cpu time    0.6950: real time    0.6973
    ORTHCH:  cpu time    0.0114: real time    0.0114
       DOS:  cpu time    0.0013: real time    0.0014
    CHARGE:  cpu time    0.0297: real time    0.0298
    MIXING:  cpu time    0.0017: real time    0.0017
    --------------------------------------------
      LOOP:  cpu time    0.8600: real time    0.9015

 eigenvalue-minimisations  :  6351
 total energy-change (2. order) :-0.6314715E-04  (-0.1170538E-03)
 number of electron     282.0000000 magnetization 
 augmentation part       15.5275497 magnetization 

 Broyden mixing:
  rms(total) = 0.30358E-02    rms(broyden)= 0.30344E-02
  rms(prec ) = 0.61542E-02
  weight for this iteration     100.00

 eigenvalues of (default mixing * dielectric matrix)
  average eigenvalue GAMMA=   1.0573
  2.6662  2.0612  1.7403  1.3409  0.8487  0.7296  0.5334  0.5334  0.3565  0.3854
  0.4343

 Free energy of the ion-electron system (eV)
  ---------------------------------------------------
  alpha Z        PSCENC =      1458.74875988
[...]
     94       5.2497      2.00000
     95       5.3041      2.00000
     96       5.3757      2.00000
     97       5.4175      2.00000
     98       5.4466      2.00000
     99       5.5264      2.00000
    100       5.5912      2.00000
    101       5.6471      2.00000
    102       5.8127      2.00000
    103       5.8705      2.00000
    104       5.8958      2.00000
    105       5.9354      2.00000
    106       5.9535      2.00000
    107       6.0014      2.00000
    108       6.0543      2.00000
    109       6.0640      2.00000
    110       6.0903      2.00000
    111       6.1383      2.00000
    112       6.1632      2.00000
    113       6.1963      2.00000
    114       6.2280      2.00000
    115       6.2747      2.00000
    116       6.3459      2.00000
    117       6.3590      2.00000
    118       6.4024      2.00000
    119       6.4154      2.00000
    120       6.4890      2.00000
    121       6.5114      2.00000
    122       6.5598      2.00000
    123       6.6037      2.00000
    124       6.6518      2.00000
    125       6.6639      2.00000
    126       6.7222      2.00000
    127       6.7853      2.00001
    128       6.8154      2.00003
    129       6.8642      2.00018
    130       6.8840      2.00038
    131       6.9532      2.00345
    132       6.9625      2.00448
    133       6.9813      2.00734
    134       7.0011      2.01186
    135       7.0326      2.02319
    136       7.0544      2.03423
    137       7.0729      2.04516
    138       7.1463      2.06709
    139       7.1789      2.02399
    140       7.2177      1.87810
    141       7.2497      1.66049
    142       7.2963      1.20285
    143       7.3188      0.95089
    144       7.3676      0.44002
    145       7.4029      0.16911
    146       7.4293      0.03866
    147       7.4681     -0.05493
    148       7.5157     -0.06734
    149       7.5476     -0.05035
    150       7.5939     -0.02425
    151       7.6151     -0.01577
    152       7.6342     -0.01021
    153       7.6743     -0.00360
    154       7.7173     -0.00097
    155       7.7551     -0.00026
    156       7.7835     -0.00009
    157       7.8869     -0.00000
    158       7.9365     -0.00000
    159       7.9639     -0.00000
    160       8.0442     -0.00000
    161       8.0734     -0.00000
    162       8.1542     -0.00000
    163       8.1962     -0.00000
    164       8.2473     -0.00000
    165       8.4729     -0.00000
    166       8.5439     -0.00000
    167       8.6425     -0.00000
    168       9.1325     -0.00000
    169       9.1666     -0.00000
    170       9.2608     -0.00000
    171       9.3296     -0.00000
    172       9.3856     -0.00000


--------------------------------------------------------------------------------------------------------


 soft charge-density along one line, spin component           1
         0         1         2         3         4         5         6         7         8         9
 total charge-density along one line
 
 pseudopotential strength for first ion, spin component:           1
 -6.421  -0.000   0.000  -0.005   0.000  -7.629  -0.001   0.000
 -0.000  -6.422  -0.002  -0.002   0.001  -0.001  -7.630  -0.002
  0.000  -0.002  -6.428  -0.000  -0.001   0.000  -0.002  -7.637
 -0.005  -0.002  -0.000  -6.421  -0.001  -0.006  -0.002  -0.000
  0.000   0.001  -0.001  -0.001  -6.429   0.000   0.002  -0.001
 -7.629  -0.001   0.000  -0.006   0.000  -9.042  -0.001   0.000
 -0.001  -7.630  -0.002  -0.002   0.002  -0.001  -9.043  -0.002
  0.000  -0.002  -7.637  -0.000  -0.001   0.000  -0.002  -9.051
 -0.006  -0.002  -0.000  -7.629  -0.001  -0.008  -0.002  -0.001
  0.000   0.002  -0.001  -0.001  -7.639   0.000   0.002  -0.002
  0.000   0.003   0.000   0.000  -0.001   0.000   0.004   0.000
  0.001   0.006   0.000   0.001  -0.001   0.001   0.007   0.001
 -0.000  -0.007   0.002   0.003   0.005  -0.000  -0.009   0.002
  0.003  -0.005  -0.005   0.002   0.001   0.003  -0.007  -0.006
 -0.004   0.003   0.001  -0.006   0.001  -0.005   0.003   0.001
  0.000   0.011  -0.002  -0.004  -0.006   0.000   0.013  -0.002
 -0.004   0.007   0.008  -0.003  -0.001  -0.005   0.008   0.010
  0.004  -0.004  -0.001   0.009  -0.002   0.005  -0.005  -0.001
 total augmentation occupancy for first ion, spin component:           1
  4.725   0.008   0.024  -0.332   0.011  -2.391  -0.003  -0.035   0.169  -0.005  -0.090   0.022   0.062  -0.048  -0.017   0.002
  0.008   4.837  -0.109  -0.150   0.113  -0.003  -2.482   0.069   0.088  -0.093  -0.229   0.062  -0.028   0.108  -0.040   0.004
  0.024  -0.109   4.531   0.003  -0.011  -0.034   0.068  -2.445   0.001   0.002   0.096  -0.014   0.017  -0.005  -0.031  -0.001
 -0.332  -0.150   0.003   4.739  -0.011   0.169   0.088   0.001  -2.425   0.003  -0.008   0.006  -0.036  -0.023  -0.050  -0.003
  0.011   0.113  -0.011  -0.011   4.312  -0.005  -0.093   0.002   0.003  -2.311   0.009  -0.006  -0.047  -0.010  -0.021  -0.004
 -2.391  -0.003  -0.034   0.169  -0.005   1.231   0.001   0.029  -0.087   0.002   0.063  -0.012  -0.030   0.023   0.004  -0.001
 -0.003  -2.482   0.068   0.088  -0.093   0.001   1.295  -0.043  -0.050   0.066   0.137  -0.033   0.020  -0.056   0.020  -0.002
 -0.035   0.069  -2.445   0.001   0.002   0.029  -0.043   1.332  -0.001   0.001  -0.062   0.009  -0.010   0.014   0.014   0.000
  0.169   0.088   0.001  -2.425   0.003  -0.087  -0.050  -0.001   1.262  -0.000   0.004  -0.003   0.019   0.009   0.025   0.001
 -0.005  -0.093   0.002   0.003  -2.311   0.002   0.066   0.001  -0.000   1.250  -0.000   0.002   0.022   0.003   0.008   0.002
 -0.090  -0.229   0.096  -0.008   0.009   0.063   0.137  -0.062   0.004  -0.000   2.196  -0.235   0.017  -0.001   0.001   0.002
  0.022   0.062  -0.014   0.006  -0.006  -0.012  -0.033   0.009  -0.003   0.002  -0.235   0.027   0.001   0.004  -0.001  -0.000
  0.062  -0.028   0.017  -0.036  -0.047  -0.030   0.020  -0.010   0.019   0.022   0.017   0.001   0.284  -0.004  -0.009   0.007
 -0.048   0.108  -0.005  -0.023  -0.010   0.023  -0.056   0.014   0.009   0.003  -0.001   0.004  -0.004   0.305  -0.005   0.000
 -0.017  -0.040  -0.031  -0.050  -0.021   0.004   0.020   0.014   0.025   0.008   0.001  -0.001  -0.009  -0.005   0.291  -0.000
  0.002   0.004  -0.001  -0.003  -0.004  -0.001  -0.002   0.000   0.001   0.002   0.002  -0.000   0.007   0.000  -0.000   0.000
 -0.003   0.005   0.001  -0.001  -0.000   0.001  -0.003  -0.000   0.001   0.000   0.002  -0.000   0.000   0.008  -0.000   0.000
  0.002  -0.003  -0.001   0.003  -0.001  -0.001   0.001   0.000  -0.001   0.000  -0.000   0.000  -0.000  -0.000   0.007  -0.000


------------------------ aborting loop because EDIFF is reached ----------------------------------------


    CHARGE:  cpu time    0.0273: real time    0.0312
    FORLOC:  cpu time    0.0133: real time    0.0142
    FORNL :  cpu time    0.2858: real time    0.2969
    STRESS:  cpu time    0.8692: real time    0.8768
    FORCOR:  cpu time    0.0428: real time    0.0430
    FORHAR:  cpu time    0.0186: real time    0.0187
    MIXING:  cpu time    0.0012: real time    0.0012
    OFIELD:  cpu time    0.0000: real time    0.0000

  FORCE on cell =-STRESS in cart. coord.  units (eV):
  Direction    XX          YY          ZZ          XY          YZ          ZX
  --------------------------------------------------------------------------------------
  Alpha Z  1460.12677  1460.12677  1460.12677
  Ewald   -5904.78554 -6101.60435 -6167.38009   182.86993  -105.73968  -177.70239
  Hartree  2089.76111  1868.83287  1798.13451   163.81509   -96.88792  -160.18507
  E(xc)   -1225.76652 -1225.88025 -1226.29087    -0.13724     0.08289    -0.67129
  Local    -948.20163  -535.55661  -396.18915  -346.01491   201.73497   337.10844
  n-local  -292.92659  -295.86666  -294.05022     0.54947    -0.48126    -2.11315
  augment   178.10471   179.02845   178.51818    -0.30347     0.18301     0.31125
  Kinetic  4643.63715  4650.97652  4647.15156    -0.76861     1.11727     3.24997
  Fock        0.00000     0.00000     0.00000     0.00000     0.00000     0.00000
  -------------------------------------------------------------------------------------
  Total      -0.05055     0.05673     0.02070     0.01026     0.00928    -0.00225
  in kB      -0.11157     0.12523     0.04570     0.02265     0.02049    -0.00497
  external pressure =        0.02 kB  Pullay stress =        0.00 kB


 VOLUME and BASIS-vectors are now :
 -----------------------------------------------------------------------------
  energy-cutoff  :      300.00
  volume of cell :      725.84
      direct lattice vectors                 reciprocal lattice vectors
     6.952930303  0.006160373 -0.030532227     0.143827194 -0.000131878  0.000643465
     0.009317232 10.250571841  0.018267397    -0.000087211  0.097555927 -0.000176569
    -0.045546704  0.018392219 10.184361002     0.000431343 -0.000175379  0.098192009

  length of vectors
     6.953000070 10.250592352 10.184479456     0.143828694  0.097556126  0.098193113


 FORCES acting on ions
    electron-ion (+dipol)            ewald-force                    non-local-force                 convergence-correction
 -----------------------------------------------------------------------------------------------
   -.223E+02 0.403E+02 -.247E+02   0.223E+02 -.397E+02 0.250E+02   -.178E-01 -.538E+00 -.277E+00   0.604E-03 -.112E-01 0.987E-02
   -.128E+02 -.742E+02 -.171E+02   0.120E+02 0.740E+02 0.170E+02   0.882E+00 0.194E+00 0.133E+00   -.103E-02 0.924E-02 -.119E-01
   -.450E+02 -.370E+02 -.594E+02   0.445E+02 0.375E+02 0.591E+02   0.478E+00 -.542E+00 0.297E+00   0.819E-03 0.106E-01 -.147E-01
   0.357E+02 -.174E+02 0.339E+02   -.359E+02 0.169E+02 -.344E+02   0.168E+00 0.465E+00 0.566E+00   0.110E-02 0.186E-01 0.709E-02
   0.359E+02 -.129E+02 -.586E+02   -.349E+02 0.124E+02 0.581E+02   -.100E+01 0.541E+00 0.511E+00   -.114E-02 -.176E-01 -.141E-01
   0.440E+02 -.178E+02 -.775E+02   -.436E+02 0.183E+02 0.771E+02   -.395E+00 -.574E+00 0.349E+00   -.724E-03 0.108E-01 -.156E-01
   -.937E+01 -.667E+02 0.608E+02   0.101E+02 0.668E+02 -.607E+02   -.708E+00 -.466E-01 -.119E+00   -.904E-03 0.147E-01 0.146E-01
   -.343E+02 0.204E+01 -.569E+02   0.332E+02 -.251E+01 0.568E+02   0.103E+01 0.487E+00 0.103E+00   0.200E-02 -.182E-01 -.128E-01
   0.160E+02 0.138E+02 0.150E+02   -.160E+02 -.140E+02 -.155E+02   0.672E-01 0.242E+00 0.501E+00   -.174E-02 0.804E-02 0.213E-01
   -.975E+01 -.267E+02 -.938E+02   0.101E+02 0.270E+02 0.939E+02   -.400E+00 -.275E+00 -.118E+00   0.165E-02 -.691E-02 -.244E-01
   0.616E+01 -.471E+01 0.482E+02   -.601E+01 0.462E+01 -.477E+02   -.153E+00 0.101E+00 -.554E+00   0.104E-02 -.574E-02 0.120E-01
   -.254E+02 0.736E+02 0.467E+02   0.253E+02 -.733E+02 -.463E+02   0.744E-01 -.282E+00 -.425E+00   -.243E-03 -.148E-01 0.229E-01
   0.779E+02 -.498E+01 0.484E+02   -.771E+02 0.479E+01 -.484E+02   -.833E+00 0.189E+00 0.264E-01   -.181E-02 0.414E-02 -.683E-02
   0.649E+01 -.285E+02 -.367E+02   -.680E+01 0.280E+02 0.369E+02   0.308E+00 0.541E+00 -.134E+00   0.809E-03 0.153E-01 -.190E-01
   -.239E+02 0.786E+02 0.236E+02   0.235E+02 -.787E+02 -.237E+02   0.399E+00 0.158E+00 0.432E-01   0.190E-03 -.683E-02 0.105E-01
   -.331E+02 0.309E+02 -.571E+02   0.329E+02 -.309E+02 0.574E+02   0.260E+00 0.365E-01 -.282E+00   0.581E-03 0.643E-02 -.862E-02
   -.586E+00 -.701E+02 0.120E+02   -.191E+00 0.702E+02 -.115E+02   0.776E+00 -.547E-01 -.525E+00   0.179E-03 0.128E-01 0.108E-01
   -.802E+01 -.149E+02 0.440E+02   0.821E+01 0.148E+02 -.445E+02   -.196E+00 0.650E-01 0.493E+00   0.654E-03 -.696E-02 0.630E-02
   -.297E+02 -.340E+02 0.906E+01   0.300E+02 0.336E+02 -.937E+01   -.291E+00 0.432E+00 0.301E+00   -.411E-03 0.150E-01 0.784E-02
   0.226E+02 0.536E+02 0.628E+02   -.222E+02 -.535E+02 -.631E+02   -.430E+00 -.272E-01 0.286E+00   -.401E-03 -.685E-02 0.108E-01
   -.268E+02 0.547E+02 -.335E+02   0.262E+02 -.543E+02 0.337E+02   0.615E+00 -.327E+00 -.202E+00   0.668E-03 -.947E-02 -.174E-01
   0.462E+02 0.537E+02 0.288E+02   -.460E+02 -.528E+02 -.290E+02   -.121E+00 -.907E+00 0.194E+00   -.377E-02 -.280E-01 0.195E-01
   0.425E+02 -.771E+01 0.115E+03   -.428E+02 0.767E+01 -.116E+03   0.373E+00 0.656E-01 0.934E+00   -.868E-02 -.226E-01 0.223E-01
   -.246E+02 0.374E+01 -.531E+02   0.245E+02 -.418E+01 0.532E+02   0.635E-01 0.422E+00 -.121E+00   0.404E-02 0.192E-01 0.580E-01
   0.222E+02 -.684E+02 -.320E+03   -.225E+02 0.687E+02 0.320E+03   0.388E+00 -.222E+00 0.353E-01   -.501E-02 -.221E-01 -.568E-01
   0.477E+02 0.200E+03 0.138E+03   -.475E+02 -.199E+03 -.138E+03   -.160E+00 -.436E+00 -.399E+00   0.176E-02 -.430E-01 0.592E-01
   0.238E+02 -.251E+03 0.163E+03   -.238E+02 0.251E+03 -.163E+03   -.353E-01 0.410E-02 -.621E+00   -.761E-05 0.226E-01 0.624E-01
   0.232E+01 0.223E+03 0.345E+02   -.171E+01 -.223E+03 -.347E+02   -.614E+00 -.257E-01 0.245E+00   -.682E-03 -.458E-01 -.265E-01
   0.944E+02 0.691E+02 -.752E+02   -.941E+02 -.691E+02 0.753E+02   -.277E+00 0.145E-02 -.464E-01   -.257E-02 0.179E-01 -.369E-01
   -.209E+02 -.163E+03 0.192E+03   0.209E+02 0.163E+03 -.191E+03   0.360E-01 0.824E-01 -.533E+00   0.179E-02 0.183E-01 0.615E-01
   -.205E+03 0.425E+02 0.163E+03   0.204E+03 -.431E+02 -.163E+03   0.111E+01 0.574E+00 -.138E+00   0.256E-01 0.214E-01 -.216E-01
   -.579E+01 -.275E+02 0.121E+03   0.553E+01 0.277E+02 -.120E+03   0.268E+00 -.132E+00 -.665E+00   -.662E-02 -.207E-01 0.198E-01
   0.102E+02 -.221E+03 -.388E+02   -.916E+01 0.221E+03 0.388E+02   -.106E+01 0.105E+00 0.414E-01   0.606E-02 0.526E-01 -.343E-01
   0.330E+02 0.732E+02 -.173E+03   -.321E+02 -.725E+02 0.174E+03   -.846E+00 -.742E+00 -.237E+00   -.268E-02 -.312E-01 -.525E-01
   0.151E+02 0.140E+03 -.632E+01   -.157E+02 -.139E+03 0.609E+01   0.677E+00 -.700E+00 0.256E+00   0.396E-02 -.343E-01 -.352E-01
   -.447E+02 -.403E+01 -.178E+03   0.451E+02 0.295E+01 0.179E+03   -.406E+00 0.104E+01 -.163E+00   -.122E-01 0.429E-01 -.661E-01
 -----------------------------------------------------------------------------------------------
   -.301E-01 0.119E+00 0.283E+00   0.782E-13 -.320E-13 0.199E-12   0.328E-01 -.849E-01 -.246E+00   0.282E-02 -.319E-01 -.387E-01
 
 
 POSITION                                       TOTAL-FORCE (eV/Angst)
 -----------------------------------------------------------------------------------
      3.46141      3.52028      3.48398        -0.000580      0.001705     -0.001023
      5.06833      8.54035      8.50444        -0.000970      0.000664      0.000426
      5.13090      8.59996      1.57905         0.003154     -0.000221      0.006410
      6.93717     10.08380      3.20233         0.007922     -0.001433      0.000687
      1.94050      4.99180      1.57937        -0.002965      0.001548     -0.000684
      1.83422      8.62172      1.53963        -0.002051     -0.002930      0.001232
      3.55543      0.02153      6.73387        -0.001154     -0.000927      0.000189
      5.06097      5.05982      1.66727         0.006364      0.003754      0.002422
      5.24236      1.64586      4.87352        -0.002246     -0.000987     -0.000780
      3.50769      6.84726      0.01116         0.002240     -0.001141      0.002706
      3.46941      6.86436      6.94458        -0.000157      0.002544     -0.002687
      1.70459      5.24828      5.24422        -0.001418      0.003709     -0.003695
      1.90142      1.72650      8.47012         0.002452     -0.000952     -0.002686
      6.84842      0.05052     10.11117         0.001196     -0.004795      0.006160
      6.78593      3.34340      6.81779         0.000299      0.002218     -0.002967
      5.16011      1.72608      1.78947        -0.000646     -0.002517      0.004932
      6.76433      0.13395      6.92892        -0.000750     -0.002766     -0.004331
      0.08442      6.84457      3.20740        -0.002124      0.000114     -0.001838
      3.45809     10.12568      3.43779        -0.008008     -0.003941     -0.002052
      3.57926      3.42518      6.61163        -0.004432      0.000809      0.001927
      6.77209      3.41796     10.09472         0.002567      0.002402      0.002742
      0.05457      3.60332      3.37447         0.004966      0.001962     -0.000028
      3.41180      6.83714      3.31214         0.005426     -0.000466     -0.001040
      1.64218      1.65439      5.04066        -0.002564      0.001861     -0.004190
      6.94415      6.83342      0.03665         0.000571      0.000164     -0.000051
      5.31188      5.33679      5.13425         0.002880      0.003440     -0.000076
      5.28840      8.48998      5.16869        -0.002080     -0.002814     -0.004343
      1.74563      5.09650      8.46271        -0.000269      0.004507      0.001485
      1.78402      1.72999      1.67748         0.001649      0.001502      0.000844
      1.66141      8.48256      5.25456        -0.001516     -0.002273     -0.000495
      4.90247      1.67945      8.55248        -0.004526     -0.000485     -0.001079
      6.91618      6.88975      7.02113        -0.000465      0.000754      0.000842
      1.78282      8.57633      8.50376        -0.001123     -0.004566      0.000778
      3.60327      3.49865     -0.00470        -0.000235      0.000011     -0.000614
      5.10545      5.25171      8.48866        -0.001334     -0.000829      0.000294
      3.46158     10.16887     10.16605        -0.000073      0.000376      0.000583
 -----------------------------------------------------------------------------------
    total drift:                                0.005475      0.002532     -0.001738


--------------------------------------------------------------------------------------------------------



  FREE ENERGIE OF THE ION-ELECTRON SYSTEM (eV)
  ---------------------------------------------------
  free  energy   TOTEN  =      -366.25936217 eV

  energy  without entropy=     -366.28707279  energy(sigma->0) =     -366.26859905
 
 d Force = 0.7222313E-04[ 0.531E-04, 0.913E-04]  d Energy = 0.7438802E-04-0.216E-05
 d Force =-0.5643928E+00[-0.565E+00,-0.564E+00]  d Ewald  =-0.7880835E-01-0.486E+00


--------------------------------------------------------------------------------------------------------


    POTLOK:  cpu time    0.0393: real time    0.0394


--------------------------------------------------------------------------------------------------------


 Conjugate gradient step on ions:
 trial-energy change:   -0.000074  1 .order   -0.000077   -0.000097   -0.000058
  (g-gl).g = 0.115E-04      g.g   = 0.300E-04  gl.gl    = 0.818E-04
 g(Force)  = 0.285E-04   g(Stress)= 0.146E-05 ortho     =-0.314E-06
 gamma     =   0.14069
 trial     =   3.22767
 opt step  =   8.06957  (harmonic =   8.06957) maximal distance =0.00153718
 next E    =  -366.259409   (d E  =  -0.00012)


--------------------------------------------------------------------------------------------------------


  
 reached required accuracy - stopping structural energy minimisation
     LOOP+:  cpu time    3.8730: real time    4.5395
    4ORBIT:  cpu time    0.0000: real time    0.0000

 total amount of memory used by VASP on root node    66897. kBytes
========================================================================

   base      :      30000. kBytes
   nonlr-proj:      10376. kBytes
   fftplans  :       2814. kBytes
   grid      :       5360. kBytes
   one-center:        124. kBytes
   wavefun   :      18223. kBytes
 
  
  
 General timing and accounting informations for this job:
 ========================================================
  
                  Total CPU time used (sec):      125.715
                            User time (sec):      124.916
                          System time (sec):        0.800
                         Elapsed time (sec):      147.942
  
                   Maximum memory used (kb):      256856.
                   Average memory used (kb):           0.
  
                          Minor page faults:       115263
                          Major page faults:           37
                 Voluntary context switches:         6576
