<?xml version="1.0" encoding="ISO-8859-1"?>
<modeling>
 <generator>
  <i name="program" type="string">vasp </i>
  <i name="version" type="string">5.4.1  </i>
  <i name="subversion" type="string">05Feb16 (build Jan 29 2020 16:04:39) complex                          parallel </i>
  <i name="platform" type="string">IFC91_ompi </i>
  <i name="date" type="string">2020 06 15 </i>
  <i name="time" type="string">06:36:31 </i>
 </generator>
 <incar>
  <i type="string" name="SYSTEM"> automatically generated by mexm</i>
  <i type="int" name="ISTART">     0</i>
  <i type="string" name="PREC">accurate               ! avoid wrap aro</i>
  <i type="string" name="ALGO"> Fast                   ! blocked Davids</i>
  <i type="int" name="ISPIN">     1</i>
  <i type="int" name="ICHARG">     2</i>
  <i type="int" name="NELM">    70</i>
  <i type="int" name="IBRION">     2</i>
  <i name="EDIFF">      0.00001000</i>
  <i name="EDIFFG">     -0.01000000</i>
  <i type="int" name="NSW">   300</i>
  <i type="int" name="ISIF">     3</i>
  <i type="int" name="ISYM">     1</i>
  <i name="ENCUT">    300.00000000</i>
  <i name="POTIM">      0.15000000</i>
  <i type="string" name="LREAL"> Auto                  ! unpublished met</i>
  <i type="int" name="ISMEAR">     1</i>
  <i name="SIGMA">      0.15000000</i>
  <i type="logical" name="LWAVE"> F  </i>
  <i type="logical" name="LCHARG"> F  </i>
  <i type="logical" name="LVTOT"> F  </i>
  <v type="int" name="KPOINT_BSE">    -1     0     0     0</v>
  <i type="int" name="NELM">    70</i>
 </incar>
 <kpoints>
  <generation param="Gamma">
   <v type="int" name="divisions">       3        3        3 </v>
   <v name="usershift">      0.00000000       0.00000000       0.00000000 </v>
   <v name="genvec1">      0.33333333      -0.00000000       0.00000000 </v>
   <v name="genvec2">      0.00000000       0.33333333       0.00000000 </v>
   <v name="genvec3">     -0.00000000      -0.00000000       0.33333333 </v>
   <v name="shift">      0.00000000       0.00000000       0.00000000 </v>
  </generation>
  <varray name="kpointlist" >
   <v>       0.00000000       0.00000000       0.00000000 </v>
   <v>       0.33333333      -0.00000000       0.00000000 </v>
   <v>       0.00000000       0.33333333      -0.00000000 </v>
   <v>       0.33333333       0.33333333       0.00000000 </v>
   <v>      -0.33333333       0.33333333      -0.00000000 </v>
   <v>      -0.00000000       0.00000000       0.33333333 </v>
   <v>       0.33333333       0.00000000       0.33333333 </v>
   <v>      -0.33333333       0.00000000       0.33333333 </v>
   <v>      -0.00000000       0.33333333       0.33333333 </v>
   <v>       0.33333333       0.33333333       0.33333333 </v>
   <v>      -0.33333333       0.33333333       0.33333333 </v>
   <v>       0.00000000      -0.33333333       0.33333333 </v>
   <v>       0.33333333      -0.33333333       0.33333333 </v>
   <v>      -0.33333333      -0.33333333       0.33333333 </v>
  </varray>
  <varray name="weights" >
   <v>       0.03703704 </v>
   <v>       0.07407407 </v>
   <v>       0.07407407 </v>
   <v>       0.07407407 </v>
   <v>       0.07407407 </v>
   <v>       0.07407407 </v>
   <v>       0.07407407 </v>
   <v>       0.07407407 </v>
   <v>       0.07407407 </v>
   <v>       0.07407407 </v>
   <v>       0.07407407 </v>
   <v>       0.07407407 </v>
   <v>       0.07407407 </v>
   <v>       0.07407407 </v>
  </varray>
 </kpoints>
 <parameters>
  <separator name="general" >
   <i type="string" name="SYSTEM">automatically generated by mexm</i>
   <i type="logical" name="LCOMPAT"> F  </i>
  </separator>
  <separator name="electronic" >
   <i type="string" name="PREC">accura</i>
   <i name="ENMAX">    300.00000000</i>
   <i name="ENAUG">    461.25700000</i>
   <i name="EDIFF">      0.00001000</i>
   <i type="int" name="IALGO">    68</i>
   <i type="int" name="IWAVPR">    11</i>
   <i type="int" name="NBANDS">   172</i>
   <i name="NELECT">    282.00000000</i>
   <i type="int" name="TURBO">     0</i>
   <i type="int" name="IRESTART">     0</i>
   <i type="int" name="NREBOOT">     0</i>
   <i type="int" name="NMIN">     0</i>
   <i name="EREF">      0.00000000</i>
   <separator name="electronic smearing" >
    <i type="int" name="ISMEAR">     1</i>
    <i name="SIGMA">      0.15000000</i>
    <i name="KSPACING">      0.50000000</i>
    <i type="logical" name="KGAMMA"> T  </i>
   </separator>
   <separator name="electronic projectors" >
    <i type="logical" name="LREAL"> T  </i>
    <v name="ROPT">     -0.00025000     -0.00025000     -0.00025000     -0.00025000</v>
    <i type="int" name="LMAXPAW">  -100</i>
    <i type="int" name="LMAXMIX">     2</i>
    <i type="logical" name="NLSPLINE"> F  </i>
   </separator>
   <separator name="electronic startup" >
    <i type="int" name="ISTART">     0</i>
    <i type="int" name="ICHARG">     2</i>
    <i type="int" name="INIWAV">     1</i>
   </separator>
   <separator name="electronic spin" >
    <i type="int" name="ISPIN">     1</i>
    <i type="logical" name="LNONCOLLINEAR"> F  </i>
    <v name="MAGMOM">      1.00000000      1.00000000      1.00000000      1.00000000      1.00000000      1.00000000      1.00000000      1.00000000      1.00000000      1.00000000      1.00000000      1.00000000      1.00000000      1.00000000      1.00000000      1.00000000      1.00000000      1.00000000      1.00000000      1.00000000
      1.00000000      1.00000000      1.00000000      1.00000000      1.00000000      1.00000000      1.00000000      1.00000000      1.00000000      1.00000000      1.00000000      1.00000000      1.00000000      1.00000000      1.00000000      1.00000000</v>
    <i name="NUPDOWN">     -1.00000000</i>
    <i type="logical" name="LSORBIT"> F  </i>
    <v name="SAXIS">      0.00000000      0.00000000      1.00000000</v>
    <i type="logical" name="LSPIRAL"> F  </i>
    <v name="QSPIRAL">      0.00000000      0.00000000      0.00000000</v>
    <i type="logical" name="LZEROZ"> F  </i>
   </separator>
   <separator name="electronic exchange-correlation" >
    <i type="logical" name="LASPH"> F  </i>
    <i type="logical" name="LMETAGGA"> F  </i>
   </separator>
   <separator name="electronic convergence" >
    <i type="int" name="NELM">    70</i>
    <i type="int" name="NELMDL">    -5</i>
    <i type="int" name="NELMIN">     2</i>
    <i name="ENINI">    300.00000000</i>
    <separator name="electronic convergence detail" >
     <i type="logical" name="LDIAG"> T  </i>
     <i type="logical" name="LSUBROT"> F  </i>
     <i name="WEIMIN">      0.00100000</i>
     <i name="EBREAK">      0.00000001</i>
     <i name="DEPER">      0.30000000</i>
     <i type="int" name="NRMM">     4</i>
     <i name="TIME">      0.40000000</i>
    </separator>
   </separator>
   <separator name="electronic mixer" >
    <i name="AMIX">      0.40000000</i>
    <i name="BMIX">      1.00000000</i>
    <i name="AMIN">      0.10000000</i>
    <i name="AMIX_MAG">      1.60000000</i>
    <i name="BMIX_MAG">      1.00000000</i>
    <separator name="electronic mixer details" >
     <i type="int" name="IMIX">     4</i>
     <i type="logical" name="MIXFIRST"> F  </i>
     <i type="int" name="MAXMIX">   -45</i>
     <i name="WC">    100.00000000</i>
     <i type="int" name="INIMIX">     1</i>
     <i type="int" name="MIXPRE">     1</i>
     <i type="int" name="MREMOVE">     5</i>
    </separator>
   </separator>
   <separator name="electronic dipolcorrection" >
    <i type="logical" name="LDIPOL"> F  </i>
    <i type="logical" name="LMONO"> F  </i>
    <i type="int" name="IDIPOL">     0</i>
    <i name="EPSILON">      1.00000000</i>
    <v name="DIPOL">   -100.00000000   -100.00000000   -100.00000000</v>
    <i name="EFIELD">      0.00000000</i>
   </separator>
  </separator>
  <separator name="grids" >
   <i type="int" name="NGX">    40</i>
   <i type="int" name="NGY">    60</i>
   <i type="int" name="NGZ">    60</i>
   <i type="int" name="NGXF">    80</i>
   <i type="int" name="NGYF">   120</i>
   <i type="int" name="NGZF">   120</i>
   <i type="logical" name="ADDGRID"> F  </i>
  </separator>
  <separator name="ionic" >
   <i type="int" name="NSW">   300</i>
   <i type="int" name="IBRION">     2</i>
   <i type="int" name="ISIF">     3</i>
   <i name="PSTRESS">      0.00000000</i>
   <i name="EDIFFG">     -0.01000000</i>
   <i type="int" name="NFREE">     1</i>
   <i name="POTIM">      0.15000000</i>
   <i name="SMASS">     -3.00000000</i>
   <i name="SCALEE">      1.00000000</i>
  </separator>
  <separator name="ionic md" >
   <i name="TEBEG">      0.00010000</i>
   <i name="TEEND">      0.00010000</i>
   <i type="int" name="NBLOCK">     1</i>
   <i type="int" name="KBLOCK">   300</i>
   <i type="int" name="NPACO">   256</i>
   <i name="APACO">     16.00000000</i>
  </separator>
  <separator name="symmetry" >
   <i type="int" name="ISYM">     1</i>
   <i name="SYMPREC">      0.00001000</i>
  </separator>
  <separator name="dos" >
   <i type="logical" name="LORBIT"> F  </i>
   <v name="RWIGS">     -1.00000000     -1.00000000     -1.00000000     -1.00000000</v>
   <i type="int" name="NEDOS">   301</i>
   <i name="EMIN">     10.00000000</i>
   <i name="EMAX">    -10.00000000</i>
   <i name="EFERMI">      0.00000000</i>
  </separator>
  <separator name="writing" >
   <i type="int" name="NWRITE">     2</i>
   <i type="logical" name="LWAVE"> F  </i>
   <i type="logical" name="LCHARG"> F  </i>
   <i type="logical" name="LPARD"> F  </i>
   <i type="logical" name="LVTOT"> F  </i>
   <i type="logical" name="LVHAR"> F  </i>
   <i type="logical" name="LELF"> F  </i>
   <i type="logical" name="LOPTICS"> F  </i>
   <v name="STM">      0.00000000      0.00000000      0.00000000      0.00000000      0.00000000      0.00000000      0.00000000</v>
  </separator>
  <separator name="performance" >
   <i type="int" name="NPAR">     4</i>
   <i type="int" name="NSIM">     4</i>
   <i type="int" name="NBLK">    -1</i>
   <i type="logical" name="LPLANE"> T  </i>
   <i type="logical" name="LSCALAPACK"> T  </i>
   <i type="logical" name="LSCAAWARE"> F  </i>
   <i type="logical" name="LSCALU"> F  </i>
   <i type="logical" name="LASYNC"> F  </i>
   <i type="logical" name="LORBITALREAL"> F  </i>
  </separator>
  <separator name="miscellaneous" >
   <i type="int" name="IDIOT">     3</i>
   <i type="logical" name="LMUSIC"> F  </i>
   <v name="POMASS">    180.94800000    178.49000000     91.22400000     92.91000000</v>
   <v name="DARWINR">      0.00000000      0.00000000      0.00000000      0.00000000</v>
   <v name="DARWINV">      1.00000000      1.00000000      1.00000000      1.00000000</v>
   <i type="logical" name="LCORR"> T  </i>
  </separator>
  <i type="logical" name="GGA_COMPAT"> T  </i>
  <i type="logical" name="LBERRY"> F  </i>
  <i type="int" name="ICORELEVEL">     0</i>
  <i type="logical" name="LDAU"> F  </i>
  <i type="int" name="I_CONSTRAINED_M">     0</i>
  <separator name="electronic exchange-correlation" >
   <i type="string" name="GGA">--</i>
   <i type="int" name="VOSKOWN">     0</i>
   <i type="logical" name="LHFCALC"> F  </i>
   <i type="string" name="PRECFOCK"></i>
   <i type="logical" name="LSYMGRAD"> F  </i>
   <i type="logical" name="LHFONE"> F  </i>
   <i type="logical" name="LRHFCALC"> F  </i>
   <i type="logical" name="LTHOMAS"> F  </i>
   <i type="logical" name="LMODELHF"> F  </i>
   <i name="ENCUT4O">     -1.00000000</i>
   <i type="int" name="EXXOEP">     0</i>
   <i type="int" name="FOURORBIT">     0</i>
   <i name="AEXX">      0.00000000</i>
   <i name="HFALPHA">      0.00000000</i>
   <i name="MCALPHA">      0.00000000</i>
   <i name="ALDAX">      1.00000000</i>
   <i name="AGGAX">      1.00000000</i>
   <i name="ALDAC">      1.00000000</i>
   <i name="AGGAC">      1.00000000</i>
   <i type="int" name="NKREDX">     1</i>
   <i type="int" name="NKREDY">     1</i>
   <i type="int" name="NKREDZ">     1</i>
   <i type="logical" name="SHIFTRED"> F  </i>
   <i type="logical" name="ODDONLY"> F  </i>
   <i type="logical" name="EVENONLY"> F  </i>
   <i type="int" name="LMAXFOCK">     0</i>
   <i type="int" name="NMAXFOCKAE">     0</i>
   <i type="logical" name="LFOCKAEDFT"> F  </i>
   <i name="HFSCREEN">      0.00000000</i>
   <i name="HFSCREENC">      0.00000000</i>
   <i type="int" name="NBANDSGWLOW">     0</i>
  </separator>
  <separator name="vdW DFT" >
   <i type="logical" name="LUSE_VDW"> F  </i>
   <i name="Zab_VDW">     -0.84910000</i>
   <i name="PARAM1">      0.12340000</i>
   <i name="PARAM2">      1.00000000</i>
   <i name="PARAM3">      0.00000000</i>
  </separator>
  <separator name="model GW" >
   <i type="int" name="MODEL_GW">     0</i>
   <i name="MODEL_EPS0">     12.10872134</i>
   <i name="MODEL_ALPHA">      1.00000000</i>
  </separator>
  <separator name="linear response parameters" >
   <i type="logical" name="LEPSILON"> F  </i>
   <i type="logical" name="LRPA"> F  </i>
   <i type="logical" name="LNABLA"> F  </i>
   <i type="logical" name="LVEL"> F  </i>
   <i type="int" name="KINTER">     0</i>
   <i name="CSHIFT">      0.10000000</i>
   <i name="OMEGAMAX">     -1.00000000</i>
   <i name="DEG_THRESHOLD">      0.00200000</i>
  </separator>
  <separator name="orbital magnetization" >
   <i type="logical" name="NUCIND"> F  </i>
   <v name="MAGPOS">      0.00000000      0.00000000      0.00000000</v>
   <i type="logical" name="LNICSALL"> T  </i>
   <i type="logical" name="ORBITALMAG"> F  </i>
   <i type="logical" name="LMAGBLOCH"> F  </i>
   <i type="logical" name="LCHIMAG"> F  </i>
   <i type="logical" name="LGAUGE"> T  </i>
   <i type="int" name="MAGATOM">     0</i>
   <v name="MAGDIPOL">      0.00000000      0.00000000      0.00000000</v>
   <v name="AVECCONST">      0.00000000      0.00000000      0.00000000</v>
  </separator>
  <separator name="response functions" >
   <i type="logical" name="LADDER"> F  </i>
   <i type="logical" name="LFXC"> F  </i>
   <i type="logical" name="LHARTREE"> T  </i>
   <i type="int" name="IBSE">     0</i>
   <v type="int" name="KPOINT">    -1     0     0     0</v>
   <i type="logical" name="LTCTE"> F  </i>
   <i type="logical" name="LTETE"> F  </i>
   <i type="logical" name="LTRIPLET"> F  </i>
   <i type="logical" name="LFXCEPS"> F  </i>
   <i type="logical" name="LFXHEG"> F  </i>
   <i type="int" name="NATURALO">     0</i>
   <i type="logical" name="L2ORDER"> F  </i>
   <i type="logical" name="LUSEW"> F  </i>
   <i name="ENCUTGW">     -2.00000000</i>
   <i name="ENCUTGWSOFT">     -2.00000000</i>
   <i name="ENCUTLF">     -1.00000000</i>
   <i type="int" name="LMAXMP2">    -1</i>
   <i name="SCISSOR">      0.00000000</i>
   <i type="int" name="NOMEGA">     0</i>
   <i type="int" name="NOMEGAR">     0</i>
   <i type="int" name="NBANDSGW">    -1</i>
   <i type="int" name="NBANDSO">    -1</i>
   <i type="int" name="NBANDSV">    -1</i>
   <i type="int" name="NELM">    70</i>
   <i type="int" name="NELMHF">     1</i>
   <i type="int" name="DIM">     3</i>
   <i type="int" name="ANTIRES">     0</i>
   <i name="OMEGAMAX">    -30.00000000</i>
   <i name="OMEGAMIN">    -30.00000000</i>
   <i name="OMEGATL">   -200.00000000</i>
   <i type="int" name="OMEGAGRID">     0</i>
   <i name="CSHIFT">     -0.10000000</i>
   <i type="logical" name="SELFENERGY"> F  </i>
   <i type="logical" name="LSPECTRAL"> F  </i>
   <i type="logical" name="LSPECTRALGW"> F  </i>
   <i type="logical" name="LSINGLES"> F  </i>
   <i type="logical" name="LFERMIGW"> F  </i>
   <i type="logical" name="ODDONLYGW"> F  </i>
   <i type="logical" name="EVENONLYGW"> F  </i>
   <i type="int" name="NKREDLFX">     1</i>
   <i type="int" name="NKREDLFY">     1</i>
   <i type="int" name="NKREDLFZ">     1</i>
   <i type="int" name="MAXMEM">  1800</i>
   <i type="int" name="TELESCOPE">     0</i>
   <i type="int" name="TAUPAR">     1</i>
   <i type="int" name="OMEGAPAR">    -1</i>
   <i name="LAMBDA">      1.00000000</i>
  </separator>
  <separator name="External order field" >
   <i name="OFIELD_KAPPA">      0.00000000</i>
   <v name="OFIELD_K">      0.00000000      0.00000000      0.00000000</v>
   <i name="OFIELD_Q6_NEAR">      0.00000000</i>
   <i name="OFIELD_Q6_FAR">      0.00000000</i>
   <i name="OFIELD_A">      0.00000000</i>
  </separator>
 </parameters>
 <atominfo>
  <atoms>      36 </atoms>
  <types>       4 </types>
  <array name="atoms" >
   <dimension dim="1">ion</dimension>
   <field type="string">element</field>
   <field type="int">atomtype</field>
   <set>
    <rc><c>Ta</c><c>   1</c></rc>
    <rc><c>Ta</c><c>   1</c></rc>
    <rc><c>Ta</c><c>   1</c></rc>
    <rc><c>Ta</c><c>   1</c></rc>
    <rc><c>Ta</c><c>   1</c></rc>
    <rc><c>Ta</c><c>   1</c></rc>
    <rc><c>Ta</c><c>   1</c></rc>
    <rc><c>Ta</c><c>   1</c></rc>
    <rc><c>Ta</c><c>   1</c></rc>
    <rc><c>Ta</c><c>   1</c></rc>
    <rc><c>Ta</c><c>   1</c></rc>
    <rc><c>Ta</c><c>   1</c></rc>
    <rc><c>Hf</c><c>   2</c></rc>
    <rc><c>Hf</c><c>   2</c></rc>
    <rc><c>Hf</c><c>   2</c></rc>
    <rc><c>Hf</c><c>   2</c></rc>
    <rc><c>Hf</c><c>   2</c></rc>
    <rc><c>Hf</c><c>   2</c></rc>
    <rc><c>Hf</c><c>   2</c></rc>
    <rc><c>Hf</c><c>   2</c></rc>
    <rc><c>Hf</c><c>   2</c></rc>
    <rc><c>Zr</c><c>   3</c></rc>
    <rc><c>Zr</c><c>   3</c></rc>
    <rc><c>Zr</c><c>   3</c></rc>
    <rc><c>Zr</c><c>   3</c></rc>
    <rc><c>Zr</c><c>   3</c></rc>
    <rc><c>Zr</c><c>   3</c></rc>
    <rc><c>Zr</c><c>   3</c></rc>
    <rc><c>Zr</c><c>   3</c></rc>
    <rc><c>Zr</c><c>   3</c></rc>
    <rc><c>Nb</c><c>   4</c></rc>
    <rc><c>Nb</c><c>   4</c></rc>
    <rc><c>Nb</c><c>   4</c></rc>
    <rc><c>Nb</c><c>   4</c></rc>
    <rc><c>Nb</c><c>   4</c></rc>
    <rc><c>Nb</c><c>   4</c></rc>
   </set>
  </array>
  <array name="atomtypes" >
   <dimension dim="1">type</dimension>
   <field type="int">atomspertype</field>
   <field type="string">element</field>
   <field>mass</field>
   <field>valence</field>
   <field type="string">pseudopotential</field>
   <set>
    <rc><c>  12</c><c>Ta</c><c>    180.94800000</c><c>      5.00000000</c><c>  PAW_PBE Ta 17Jan2003                  </c></rc>
    <rc><c>   9</c><c>Hf</c><c>    178.49000000</c><c>      4.00000000</c><c>  PAW_PBE Hf 20Jan2003                  </c></rc>
    <rc><c>   9</c><c>Zr</c><c>     91.22400000</c><c>     12.00000000</c><c>  PAW_PBE Zr_sv 04Jan2005               </c></rc>
    <rc><c>   6</c><c>Nb</c><c>     92.91000000</c><c>     13.00000000</c><c>  PAW_PBE Nb_sv 25May2007               </c></rc>
   </set>
  </array>
 </atominfo>
 <structure name="initialpos" >
  <crystal>
   <varray name="basis" >
    <v>       6.95236727       0.00622042      -0.03226938 </v>
    <v>       0.00938800      10.25426933       0.01621201 </v>
    <v>      -0.04805738       0.01634669      10.19114726 </v>
   </varray>
   <i name="volume">    726.52328042 </i>
   <varray name="rec_basis" >
    <v>       0.14383917      -0.00013276       0.00067850 </v>
    <v>      -0.00008798       0.09752068      -0.00015684 </v>
    <v>       0.00045559      -0.00015556       0.09812678 </v>
   </varray>
  </crystal>
  <varray name="positions" >
   <v>       0.49989200       0.34246400       0.34306700 </v>
   <v>       0.73310500       0.83141000       0.83552400 </v>
   <v>       0.73751500       0.83788800       0.15585000 </v>
   <v>       0.99775400       0.98249600       0.31554500 </v>
   <v>       0.27967700       0.48624900       0.15495400 </v>
   <v>       0.26389700       0.84109700       0.15054800 </v>
   <v>       0.51645400       0.00041900       0.66264000 </v>
   <v>       0.72785900       0.49330800       0.16529500 </v>
   <v>       0.75755400       0.15912400       0.48070200 </v>
   <v>       0.50407900       0.66760500       0.00141400 </v>
   <v>       0.50297800       0.66803400       0.68218500 </v>
   <v>       0.24774600       0.51128700       0.51465900 </v>
   <v>       0.27647500       0.16708500       0.83193200 </v>
   <v>       0.99133800       0.00144900       0.99662200 </v>
   <v>       0.97972500       0.32494100       0.67074300 </v>
   <v>       0.74253400       0.16767600       0.17707700 </v>
   <v>       0.97765500       0.01047400       0.68273900 </v>
   <v>       0.01350000       0.66726000       0.31363100 </v>
   <v>       0.49932100       0.98688200       0.33741600 </v>
   <v>       0.51892400       0.33284900       0.65002600 </v>
   <v>       0.97961700       0.33267300       0.99464400 </v>
   <v>       0.00917300       0.35093900       0.33058200 </v>
   <v>       0.49129800       0.66621300       0.32543100 </v>
   <v>       0.23943600       0.16051600       0.49425700 </v>
   <v>       0.99752400       0.66583500       0.00560100 </v>
   <v>       0.76648900       0.51950600       0.50515100 </v>
   <v>       0.76281200       0.82680000       0.50822600 </v>
   <v>       0.25592100       0.49673400       0.83093100 </v>
   <v>       0.25739000       0.16805700       0.16641800 </v>
   <v>       0.24158900       0.82623200       0.51525700 </v>
   <v>       0.71248800       0.16168200       0.84208700 </v>
   <v>       0.99804700       0.67033000       0.69103000 </v>
   <v>       0.26094900       0.83326500       0.83461900 </v>
   <v>       0.51782700       0.34129100       0.00058800 </v>
   <v>       0.73887500       0.51007900       0.83459400 </v>
   <v>       0.50257100       0.98986000       0.99801600 </v>
  </varray>
 </structure>
 <calculation>
  <scstep>
   <time name="dav">    1.08    1.09</time>
   <time name="total">    1.15    1.54</time>
   <energy>
    <i name="alphaZ">   1458.74875988 </i>
    <i name="ewald"> -18164.86066742 </i>
    <i name="hartreedc">  -5979.71429780 </i>
    <i name="XCdc">   -487.23885504 </i>
    <i name="pawpsdc">  19822.61729966 </i>
    <i name="pawaedc"> -18120.26200271 </i>
    <i name="eentropy">      0.00290661 </i>
    <i name="bandstr">     -6.11119822 </i>
    <i name="atom">  23139.02543807 </i>
    <i name="e_fr_energy">   1662.20738304 </i>
    <i name="e_wo_entrp">   1662.20447643 </i>
    <i name="e_0_energy">   1662.20641417 </i>
   </energy>
  </scstep>
  <scstep>
   <time name="dav">    0.99    1.00</time>
   <time name="total">    1.00    1.20</time>
   <energy>
    <i name="e_fr_energy">   -107.82298695 </i>
    <i name="e_wo_entrp">   -107.82558047 </i>
    <i name="e_0_energy">   -107.82385146 </i>
   </energy>
  </scstep>
  <scstep>
   <time name="dav">    1.32    1.53</time>
   <time name="total">    1.32    1.58</time>
   <energy>
    <i name="e_fr_energy">   -349.43796791 </i>
    <i name="e_wo_entrp">   -349.44082610 </i>
    <i name="e_0_energy">   -349.43892064 </i>
   </energy>
  </scstep>
  <scstep>
   <time name="dav">    1.30    1.44</time>
   <time name="total">    1.30    1.48</time>
   <energy>
    <i name="e_fr_energy">   -378.30472055 </i>
    <i name="e_wo_entrp">   -378.31829347 </i>
    <i name="e_0_energy">   -378.30924485 </i>
   </energy>
  </scstep>
  <scstep>
   <time name="dav">    1.34    1.35</time>
   <time name="total">    1.37    1.42</time>
   <energy>
    <i name="e_fr_energy">   -381.13831507 </i>
    <i name="e_wo_entrp">   -381.15416723 </i>
    <i name="e_0_energy">   -381.14359912 </i>
   </energy>
  </scstep>
  <scstep>
   <time name="diag">    0.07    0.07</time>
   <time name="diis">    0.70    0.71</time>
   <time name="orth">    0.01    0.01</time>
   <time name="total">    0.86    0.91</time>
   <energy>
    <i name="e_fr_energy">   -370.80718113 </i>
    <i name="e_wo_entrp">   -370.82327816 </i>
    <i name="e_0_energy">   -370.81254681 </i>
   </energy>
  </scstep>
  <scstep>
   <time name="diag">    0.07    0.07</time>
   <time name="diis">    0.82    0.82</time>
   <time name="orth">    0.01    0.01</time>
   <time name="total">    0.97    1.01</time>
   <energy>
    <i name="e_fr_energy">   -371.76534588 </i>
    <i name="e_wo_entrp">   -371.78340045 </i>
    <i name="e_0_energy">   -371.77136407 </i>
   </energy>
  </scstep>
  <scstep>
   <time name="diag">    0.07    0.07</time>
   <time name="diis">    0.77    0.77</time>
   <time name="orth">    0.01    0.01</time>
   <time name="total">    0.92    0.97</time>
   <energy>
    <i name="e_fr_energy">   -366.51759706 </i>
    <i name="e_wo_entrp">   -366.54087967 </i>
    <i name="e_0_energy">   -366.52535793 </i>
   </energy>
  </scstep>
  <scstep>
   <time name="diag">    0.08    0.08</time>
   <time name="diis">    0.76    0.76</time>
   <time name="orth">    0.02    0.02</time>
   <time name="total">    0.95    0.99</time>
   <energy>
    <i name="e_fr_energy">   -366.31640064 </i>
    <i name="e_wo_entrp">   -366.34192874 </i>
    <i name="e_0_energy">   -366.32491000 </i>
   </energy>
  </scstep>
  <scstep>
   <time name="diag">    0.14    0.14</time>
   <time name="diis">    0.78    0.78</time>
   <time name="orth">    0.01    0.01</time>
   <time name="total">    0.99    1.04</time>
   <energy>
    <i name="e_fr_energy">   -366.27576246 </i>
    <i name="e_wo_entrp">   -366.30236044 </i>
    <i name="e_0_energy">   -366.28462845 </i>
   </energy>
  </scstep>
  <scstep>
   <time name="diag">    0.07    0.07</time>
   <time name="diis">    0.84    0.90</time>
   <time name="orth">    0.01    0.01</time>
   <time name="total">    1.03    1.13</time>
   <energy>
    <i name="e_fr_energy">   -366.25618935 </i>
    <i name="e_wo_entrp">   -366.28376765 </i>
    <i name="e_0_energy">   -366.26538211 </i>
   </energy>
  </scstep>
  <scstep>
   <time name="diag">    0.08    0.08</time>
   <time name="diis">    0.72    0.81</time>
   <time name="orth">    0.01    0.01</time>
   <time name="total">    0.88    1.04</time>
   <energy>
    <i name="e_fr_energy">   -366.25340341 </i>
    <i name="e_wo_entrp">   -366.28137968 </i>
    <i name="e_0_energy">   -366.26272883 </i>
   </energy>
  </scstep>
  <scstep>
   <time name="diag">    0.08    0.09</time>
   <time name="diis">    0.81    0.85</time>
   <time name="orth">    0.01    0.01</time>
   <time name="total">    0.96    1.08</time>
   <energy>
    <i name="e_fr_energy">   -366.25229157 </i>
    <i name="e_wo_entrp">   -366.28022689 </i>
    <i name="e_0_energy">   -366.26160334 </i>
   </energy>
  </scstep>
  <scstep>
   <time name="diag">    0.10    0.12</time>
   <time name="diis">    0.80    0.81</time>
   <time name="orth">    0.01    0.01</time>
   <time name="total">    0.98    1.04</time>
   <energy>
    <i name="e_fr_energy">   -366.25238810 </i>
    <i name="e_wo_entrp">   -366.28042739 </i>
    <i name="e_0_energy">   -366.26173453 </i>
   </energy>
  </scstep>
  <scstep>
   <time name="diag">    0.07    0.08</time>
   <time name="diis">    0.78    0.78</time>
   <time name="orth">    0.01    0.01</time>
   <time name="total">    0.93    0.97</time>
   <energy>
    <i name="e_fr_energy">   -366.25249800 </i>
    <i name="e_wo_entrp">   -366.28040452 </i>
    <i name="e_0_energy">   -366.26180018 </i>
   </energy>
  </scstep>
  <scstep>
   <time name="diag">    0.08    0.08</time>
   <time name="diis">    0.69    0.70</time>
   <time name="orth">    0.01    0.01</time>
   <time name="total">    0.86    0.90</time>
   <energy>
    <i name="e_fr_energy">   -366.25256115 </i>
    <i name="e_wo_entrp">   -366.28044133 </i>
    <i name="e_0_energy">   -366.26185454 </i>
   </energy>
  </scstep>
  <scstep>
   <time name="diag">    0.07    0.07</time>
   <time name="diis">    0.61    0.64</time>
   <time name="orth">    0.01    0.01</time>
   <time name="total">    0.77    0.83</time>
   <energy>
    <i name="e_fr_energy">   -366.25257606 </i>
    <i name="e_wo_entrp">   -366.28051165 </i>
    <i name="e_0_energy">   -366.26188792 </i>
   </energy>
  </scstep>
  <scstep>
   <time name="diag">    0.08    0.08</time>
   <time name="diis">    0.55    0.56</time>
   <time name="orth">    0.01    0.01</time>
   <time name="total">    0.71    0.75</time>
   <energy>
    <i name="e_fr_energy">   -366.25258280 </i>
    <i name="e_wo_entrp">   -366.28053869 </i>
    <i name="e_0_energy">   -366.26190143 </i>
   </energy>
  </scstep>
  <scstep>
   <time name="diag">    0.07    0.07</time>
   <time name="diis">    0.47    0.47</time>
   <time name="orth">    0.01    0.01</time>
   <time name="total">    0.59    0.63</time>
   <energy>
    <i name="alphaZ">   1458.74875988 </i>
    <i name="ewald"> -18164.86066742 </i>
    <i name="hartreedc">  -5761.55810963 </i>
    <i name="XCdc">   -484.80501489 </i>
    <i name="pawpsdc">  32676.83330272 </i>
    <i name="pawaedc"> -30961.63079888 </i>
    <i name="eentropy">      0.02796346 </i>
    <i name="bandstr">  -2268.03346069 </i>
    <i name="atom">  23139.02543807 </i>
    <i name="e_fr_energy">   -366.25258738 </i>
    <i name="e_wo_entrp">   -366.28055085 </i>
    <i name="e_0_energy">   -366.26190854 </i>
   </energy>
  </scstep>
  <structure>
   <crystal>
    <varray name="basis" >
     <v>       6.95236727       0.00622042      -0.03226938 </v>
     <v>       0.00938800      10.25426933       0.01621201 </v>
     <v>      -0.04805738       0.01634669      10.19114726 </v>
    </varray>
    <i name="volume">    726.52328042 </i>
    <varray name="rec_basis" >
     <v>       0.14383917      -0.00013276       0.00067850 </v>
     <v>      -0.00008798       0.09752068      -0.00015684 </v>
     <v>       0.00045559      -0.00015556       0.09812678 </v>
    </varray>
   </crystal>
   <varray name="positions" >
    <v>       0.49989200       0.34246400       0.34306700 </v>
    <v>       0.73310500       0.83141000       0.83552400 </v>
    <v>       0.73751500       0.83788800       0.15585000 </v>
    <v>       0.99775400       0.98249600       0.31554500 </v>
    <v>       0.27967700       0.48624900       0.15495400 </v>
    <v>       0.26389700       0.84109700       0.15054800 </v>
    <v>       0.51645400       0.00041900       0.66264000 </v>
    <v>       0.72785900       0.49330800       0.16529500 </v>
    <v>       0.75755400       0.15912400       0.48070200 </v>
    <v>       0.50407900       0.66760500       0.00141400 </v>
    <v>       0.50297800       0.66803400       0.68218500 </v>
    <v>       0.24774600       0.51128700       0.51465900 </v>
    <v>       0.27647500       0.16708500       0.83193200 </v>
    <v>       0.99133800       0.00144900       0.99662200 </v>
    <v>       0.97972500       0.32494100       0.67074300 </v>
    <v>       0.74253400       0.16767600       0.17707700 </v>
    <v>       0.97765500       0.01047400       0.68273900 </v>
    <v>       0.01350000       0.66726000       0.31363100 </v>
    <v>       0.49932100       0.98688200       0.33741600 </v>
    <v>       0.51892400       0.33284900       0.65002600 </v>
    <v>       0.97961700       0.33267300       0.99464400 </v>
    <v>       0.00917300       0.35093900       0.33058200 </v>
    <v>       0.49129800       0.66621300       0.32543100 </v>
    <v>       0.23943600       0.16051600       0.49425700 </v>
    <v>       0.99752400       0.66583500       0.00560100 </v>
    <v>       0.76648900       0.51950600       0.50515100 </v>
    <v>       0.76281200       0.82680000       0.50822600 </v>
    <v>       0.25592100       0.49673400       0.83093100 </v>
    <v>       0.25739000       0.16805700       0.16641800 </v>
    <v>       0.24158900       0.82623200       0.51525700 </v>
    <v>       0.71248800       0.16168200       0.84208700 </v>
    <v>       0.99804700       0.67033000       0.69103000 </v>
    <v>       0.26094900       0.83326500       0.83461900 </v>
    <v>       0.51782700       0.34129100       0.00058800 </v>
    <v>       0.73887500       0.51007900       0.83459400 </v>
    <v>       0.50257100       0.98986000       0.99801600 </v>
   </varray>
  </structure>
  <varray name="forces" >
   <v>      -0.00325327       0.00315526       0.00014919 </v>
   <v>       0.00083537      -0.01758539       0.01116494 </v>
   <v>      -0.00684308       0.00529797       0.01426155 </v>
   <v>       0.01176454       0.00479075      -0.00053720 </v>
   <v>      -0.00846748       0.01406883       0.01431066 </v>
   <v>      -0.00153497      -0.02175172       0.00846008 </v>
   <v>      -0.03339568       0.05515816       0.04879322 </v>
   <v>       0.00383239      -0.00091464       0.01002973 </v>
   <v>      -0.01564317       0.00209396      -0.02104725 </v>
   <v>      -0.01531175       0.00416944      -0.00705187 </v>
   <v>      -0.00339676       0.00541345      -0.00555125 </v>
   <v>      -0.00288860      -0.00977823      -0.00646481 </v>
   <v>       0.12393565      -0.00800162       0.00421791 </v>
   <v>       0.03033941       0.04009971      -0.03623831 </v>
   <v>       0.02611118      -0.03239443       0.04858187 </v>
   <v>       0.00748435      -0.00344307       0.01789717 </v>
   <v>       0.00523562       0.03160357       0.02734293 </v>
   <v>       0.00651975       0.00105193       0.00484583 </v>
   <v>      -0.00704966      -0.00130128       0.00477703 </v>
   <v>      -0.02255406      -0.04021539       0.04067072 </v>
   <v>       0.03593131      -0.04702694      -0.03934767 </v>
   <v>       0.00791775      -0.00030689       0.00541527 </v>
   <v>       0.00108637       0.00082068      -0.00135252 </v>
   <v>       0.00022913      -0.00559977       0.06253885 </v>
   <v>       0.00697294       0.00402892      -0.01078618 </v>
   <v>       0.00263209       0.00722911      -0.00321479 </v>
   <v>      -0.00238710      -0.01071340      -0.00976951 </v>
   <v>      -0.00433964      -0.08283914       0.00055493 </v>
   <v>      -0.01108053       0.00575112      -0.06404308 </v>
   <v>       0.00032903       0.00027685      -0.01320323 </v>
   <v>      -0.12912055       0.00927580      -0.02560745 </v>
   <v>       0.00858185      -0.00072135       0.00707171 </v>
   <v>      -0.00216278       0.09353044      -0.00954487 </v>
   <v>      -0.01659421      -0.04520709      -0.04432428 </v>
   <v>       0.00426584       0.01516539       0.00893875 </v>
   <v>       0.00201872       0.02481901      -0.04193807 </v>
  </varray>
  <varray name="stress" >
   <v>      -0.94347101       0.03812654       0.26993461 </v>
   <v>       0.03812650      -0.93879812       0.15855407 </v>
   <v>       0.26993461       0.15855406      -1.17564828 </v>
  </varray>
  <energy>
   <i name="e_fr_energy">   -366.25258738 </i>
   <i name="e_wo_entrp">   -366.26190854 </i>
   <i name="e_0_energy">      0.02796346 </i>
  </energy>
  <time name="totalsc">   20.18   22.30</time>
 </calculation>
 <calculation>
  <scstep>
   <time name="dav">    0.97    0.98</time>
   <time name="total">    1.04    1.22</time>
   <energy>
    <i name="alphaZ">   1459.56226375 </i>
    <i name="ewald"> -18168.23837411 </i>
    <i name="hartreedc">  -5762.63186948 </i>
    <i name="XCdc">   -484.65872029 </i>
    <i name="pawpsdc">  32676.82634455 </i>
    <i name="pawaedc"> -30961.61474489 </i>
    <i name="eentropy">      0.02770994 </i>
    <i name="bandstr">  -2264.55235306 </i>
    <i name="atom">  23139.02543807 </i>
    <i name="e_fr_energy">   -366.25430552 </i>
    <i name="e_wo_entrp">   -366.28201546 </i>
    <i name="e_0_energy">   -366.26354216 </i>
   </energy>
  </scstep>
  <scstep>
   <time name="diag">    0.10    0.10</time>
   <time name="diis">    0.71    0.71</time>
   <time name="orth">    0.01    0.01</time>
   <time name="total">    0.96    1.00</time>
   <energy>
    <i name="e_fr_energy">   -366.25425186 </i>
    <i name="e_wo_entrp">   -366.28235210 </i>
    <i name="e_0_energy">   -366.26361861 </i>
   </energy>
  </scstep>
  <scstep>
   <time name="diag">    0.08    0.08</time>
   <time name="diis">    0.75    0.76</time>
   <time name="orth">    0.01    0.01</time>
   <time name="total">    0.91    0.96</time>
   <energy>
    <i name="e_fr_energy">   -366.25411405 </i>
    <i name="e_wo_entrp">   -366.28185864 </i>
    <i name="e_0_energy">   -366.26336225 </i>
   </energy>
  </scstep>
  <scstep>
   <time name="diag">    0.12    0.13</time>
   <time name="diis">    0.76    0.76</time>
   <time name="orth">    0.01    0.01</time>
   <time name="total">    0.97    1.03</time>
   <energy>
    <i name="e_fr_energy">   -366.25402729 </i>
    <i name="e_wo_entrp">   -366.28192731 </i>
    <i name="e_0_energy">   -366.26332730 </i>
   </energy>
  </scstep>
  <scstep>
   <time name="diag">    0.07    0.08</time>
   <time name="diis">    0.61    0.61</time>
   <time name="orth">    0.01    0.01</time>
   <time name="total">    0.73    0.77</time>
   <energy>
    <i name="alphaZ">   1459.56226375 </i>
    <i name="ewald"> -18168.23837411 </i>
    <i name="hartreedc">  -5760.51716257 </i>
    <i name="XCdc">   -484.74830202 </i>
    <i name="pawpsdc">  32704.90657911 </i>
    <i name="pawaedc"> -30989.76623091 </i>
    <i name="eentropy">      0.02790168 </i>
    <i name="bandstr">  -2266.50613124 </i>
    <i name="atom">  23139.02543807 </i>
    <i name="e_fr_energy">   -366.25401823 </i>
    <i name="e_wo_entrp">   -366.28191991 </i>
    <i name="e_0_energy">   -366.26331879 </i>
   </energy>
  </scstep>
  <structure>
   <crystal>
    <varray name="basis" >
     <v>       6.95116995       0.00626675      -0.03192016 </v>
     <v>       0.00945845      10.25251491       0.01650539 </v>
     <v>      -0.04754750       0.01663813      10.18896118 </v>
    </varray>
    <i name="volume">    726.11834428 </i>
    <varray name="rec_basis" >
     <v>       0.14386388      -0.00013380       0.00067157 </v>
     <v>      -0.00008867       0.09753738      -0.00015969 </v>
     <v>       0.00045084      -0.00015842       0.09814779 </v>
    </varray>
   </crystal>
   <varray name="positions" >
    <v>       0.49988522       0.34246846       0.34306718 </v>
    <v>       0.73310688       0.83138515       0.83553990 </v>
    <v>       0.73750088       0.83789545       0.15587020 </v>
    <v>       0.99777848       0.98250275       0.31554430 </v>
    <v>       0.27965949       0.48626884       0.15497424 </v>
    <v>       0.26389393       0.84106628       0.15056005 </v>
    <v>       0.51638485       0.00049678       0.66270895 </v>
    <v>       0.72786708       0.49330668       0.16530927 </v>
    <v>       0.75752122       0.15912702       0.48067200 </v>
    <v>       0.50404705       0.66761092       0.00140387 </v>
    <v>       0.50297086       0.66804166       0.68217708 </v>
    <v>       0.24773994       0.51127322       0.51464982 </v>
    <v>       0.27673306       0.16707354       0.83193883 </v>
    <v>       0.99140073       0.00150564       0.99657065 </v>
    <v>       0.97977990       0.32489514       0.67081224 </v>
    <v>       0.74254976       0.16767109       0.17710247 </v>
    <v>       0.97766611       0.01051854       0.68277779 </v>
    <v>       0.01351362       0.66726147       0.31363792 </v>
    <v>       0.49930637       0.98688016       0.33742274 </v>
    <v>       0.51887752       0.33279218       0.65008370 </v>
    <v>       0.97969150       0.33260667       0.99458846 </v>
    <v>       0.00918954       0.35093854       0.33058974 </v>
    <v>       0.49130025       0.66621416       0.32542908 </v>
    <v>       0.23943710       0.16050795       0.49434583 </v>
    <v>       0.99753840       0.66584070       0.00558572 </v>
    <v>       0.76649443       0.51951621       0.50514644 </v>
    <v>       0.76280696       0.82678490       0.50821213 </v>
    <v>       0.25591213       0.49661709       0.83093195 </v>
    <v>       0.25736629       0.16806528       0.16632696 </v>
    <v>       0.24158955       0.82623242       0.51523825 </v>
    <v>       0.71221893       0.16169531       0.84204976 </v>
    <v>       0.99806494       0.67032895       0.69104010 </v>
    <v>       0.26094422       0.83339703       0.83460522 </v>
    <v>       0.51779211       0.34122732       0.00052504 </v>
    <v>       0.73888394       0.51010038       0.83460669 </v>
    <v>       0.50257474       0.98989512       0.99795640 </v>
   </varray>
  </structure>
  <varray name="forces" >
   <v>      -0.00297341       0.00187629      -0.00015821 </v>
   <v>       0.00421827      -0.01424022       0.01035738 </v>
   <v>      -0.00349897       0.00623669       0.01152902 </v>
   <v>       0.01136352       0.00567706       0.00158361 </v>
   <v>      -0.00929973       0.01200121       0.01228122 </v>
   <v>      -0.00181962      -0.01876243       0.00682133 </v>
   <v>      -0.03128340       0.04370065       0.03732902 </v>
   <v>       0.00652949      -0.00375444       0.00659232 </v>
   <v>      -0.01338213       0.00240855      -0.01780272 </v>
   <v>      -0.01498167       0.00295660      -0.00541652 </v>
   <v>      -0.00460562       0.00436994      -0.00615959 </v>
   <v>      -0.00214777      -0.01062684      -0.00423807 </v>
   <v>       0.10279015      -0.00742786       0.00547994 </v>
   <v>       0.02521073       0.03949905      -0.03378339 </v>
   <v>       0.02257188      -0.02895258       0.04427790 </v>
   <v>       0.00860350      -0.00275363       0.01628621 </v>
   <v>       0.00520199       0.02897264       0.02411915 </v>
   <v>       0.00453275       0.00038132       0.00515133 </v>
   <v>      -0.00894053      -0.00047032       0.00417230 </v>
   <v>      -0.01905574      -0.03263139       0.03253847 </v>
   <v>       0.03090896      -0.04645829      -0.03631674 </v>
   <v>       0.00644851      -0.00203489       0.00570920 </v>
   <v>       0.00240494       0.00102692       0.00198197 </v>
   <v>      -0.00001318      -0.00502725       0.05712855 </v>
   <v>       0.00709614       0.00354003      -0.00938837 </v>
   <v>       0.00147059       0.00339474      -0.00158408 </v>
   <v>      -0.00249396      -0.00748393      -0.00775052 </v>
   <v>      -0.00456641      -0.07461404      -0.00019546 </v>
   <v>      -0.00992395       0.00616335      -0.05865841 </v>
   <v>      -0.00009170       0.00189619      -0.01102505 </v>
   <v>      -0.10683436       0.00996320      -0.02199002 </v>
   <v>       0.00837091      -0.00089825       0.00417140 </v>
   <v>      -0.00358072       0.08677475      -0.00943461 </v>
   <v>      -0.01592653      -0.03964112      -0.03684152 </v>
   <v>       0.00615125       0.01278561       0.00827400 </v>
   <v>       0.00154584       0.02215271      -0.03504105 </v>
  </varray>
  <varray name="stress" >
   <v>      -0.33029219       0.02324371       0.23061778 </v>
   <v>       0.02324372      -0.37393355       0.15896089 </v>
   <v>       0.23061777       0.15896089      -0.58535378 </v>
  </varray>
  <energy>
   <i name="e_fr_energy">   -366.25401823 </i>
   <i name="e_wo_entrp">   -366.26331879 </i>
   <i name="e_0_energy">      0.02790168 </i>
  </energy>
  <time name="totalsc">    6.15    6.65</time>
 </calculation>
 <calculation>
  <scstep>
   <time name="dav">    0.94    0.95</time>
   <time name="total">    1.02    1.21</time>
   <energy>
    <i name="alphaZ">   1462.00647645 </i>
    <i name="ewald"> -18178.33754024 </i>
    <i name="hartreedc">  -5763.74570911 </i>
    <i name="XCdc">   -484.30775624 </i>
    <i name="pawpsdc">  32702.98814618 </i>
    <i name="pawaedc"> -30987.83278335 </i>
    <i name="eentropy">      0.02709506 </i>
    <i name="bandstr">  -2256.08208765 </i>
    <i name="atom">  23139.02543807 </i>
    <i name="e_fr_energy">   -366.25872085 </i>
    <i name="e_wo_entrp">   -366.28581590 </i>
    <i name="e_0_energy">   -366.26775253 </i>
   </energy>
  </scstep>
  <scstep>
   <time name="diag">    0.07    0.08</time>
   <time name="diis">    0.66    0.67</time>
   <time name="orth">    0.01    0.01</time>
   <time name="total">    0.85    0.89</time>
   <energy>
    <i name="e_fr_energy">   -366.25818851 </i>
    <i name="e_wo_entrp">   -366.28648686 </i>
    <i name="e_0_energy">   -366.26762129 </i>
   </energy>
  </scstep>
  <scstep>
   <time name="diag">    0.14    0.14</time>
   <time name="diis">    0.75    0.76</time>
   <time name="orth">    0.01    0.01</time>
   <time name="total">    0.96    1.01</time>
   <energy>
    <i name="e_fr_energy">   -366.25685316 </i>
    <i name="e_wo_entrp">   -366.28406694 </i>
    <i name="e_0_energy">   -366.26592442 </i>
   </energy>
  </scstep>
  <scstep>
   <time name="diag">    0.11    0.12</time>
   <time name="diis">    0.85    0.86</time>
   <time name="orth">    0.01    0.01</time>
   <time name="total">    1.04    1.09</time>
   <energy>
    <i name="e_fr_energy">   -366.25607615 </i>
    <i name="e_wo_entrp">   -366.28375262 </i>
    <i name="e_0_energy">   -366.26530164 </i>
   </energy>
  </scstep>
  <scstep>
   <time name="diag">    0.07    0.07</time>
   <time name="diis">    0.77    0.77</time>
   <time name="orth">    0.01    0.01</time>
   <time name="total">    0.92    0.96</time>
   <energy>
    <i name="e_fr_energy">   -366.25598608 </i>
    <i name="e_wo_entrp">   -366.28367081 </i>
    <i name="e_0_energy">   -366.26521432 </i>
   </energy>
  </scstep>
  <scstep>
   <time name="diag">    0.07    0.07</time>
   <time name="diis">    0.73    0.74</time>
   <time name="orth">    0.01    0.01</time>
   <time name="total">    0.88    0.93</time>
   <energy>
    <i name="e_fr_energy">   -366.25601582 </i>
    <i name="e_wo_entrp">   -366.28366460 </i>
    <i name="e_0_energy">   -366.26523208 </i>
   </energy>
  </scstep>
  <scstep>
   <time name="diag">    0.07    0.07</time>
   <time name="diis">    0.71    0.71</time>
   <time name="orth">    0.01    0.01</time>
   <time name="total">    0.86    0.91</time>
   <energy>
    <i name="e_fr_energy">   -366.25604284 </i>
    <i name="e_wo_entrp">   -366.28369209 </i>
    <i name="e_0_energy">   -366.26525925 </i>
   </energy>
  </scstep>
  <scstep>
   <time name="diag">    0.13    0.13</time>
   <time name="diis">    0.50    0.50</time>
   <time name="orth">    0.01    0.01</time>
   <time name="total">    0.70    0.75</time>
   <energy>
    <i name="e_fr_energy">   -366.25606103 </i>
    <i name="e_wo_entrp">   -366.28373052 </i>
    <i name="e_0_energy">   -366.26528419 </i>
   </energy>
  </scstep>
  <scstep>
   <time name="diag">    0.07    0.07</time>
   <time name="diis">    0.41    0.42</time>
   <time name="orth">    0.01    0.01</time>
   <time name="total">    0.53    0.57</time>
   <energy>
    <i name="alphaZ">   1462.00647645 </i>
    <i name="ewald"> -18178.33754024 </i>
    <i name="hartreedc">  -5757.78068081 </i>
    <i name="XCdc">   -484.55703342 </i>
    <i name="pawpsdc">  32773.72817249 </i>
    <i name="pawaedc"> -31058.49178833 </i>
    <i name="eentropy">      0.02765868 </i>
    <i name="bandstr">  -2261.87677339 </i>
    <i name="atom">  23139.02543807 </i>
    <i name="e_fr_energy">   -366.25607050 </i>
    <i name="e_wo_entrp">   -366.28372918 </i>
    <i name="e_0_energy">   -366.26529006 </i>
   </energy>
  </scstep>
  <structure>
   <crystal>
    <varray name="basis" >
     <v>       6.94757799       0.00640572      -0.03087251 </v>
     <v>       0.00966982      10.24725165       0.01738554 </v>
     <v>      -0.04601786       0.01751245      10.18240295 </v>
    </varray>
    <i name="volume">    724.90440460 </i>
    <varray name="rec_basis" >
     <v>       0.14393807      -0.00013693       0.00065074 </v>
     <v>      -0.00009072       0.09758751      -0.00016825 </v>
     <v>       0.00043657      -0.00016704       0.09821091 </v>
    </varray>
   </crystal>
   <varray name="positions" >
    <v>       0.49986489       0.34248183       0.34306773 </v>
    <v>       0.73311253       0.83131060       0.83558762 </v>
    <v>       0.73745853       0.83791782       0.15593080 </v>
    <v>       0.99785192       0.98252299       0.31554221 </v>
    <v>       0.27960693       0.48632835       0.15503496 </v>
    <v>       0.26388471       0.84097411       0.15059623 </v>
    <v>       0.51617735       0.00073016       0.66291585 </v>
    <v>       0.72789131       0.49330272       0.16535209 </v>
    <v>       0.75742289       0.15913610       0.48058199 </v>
    <v>       0.50395118       0.66762869       0.00137350 </v>
    <v>       0.50294945       0.66806463       0.68215332 </v>
    <v>       0.24772177       0.51123186       0.51462228 </v>
    <v>       0.27750737       0.16703915       0.83195928 </v>
    <v>       0.99158895       0.00167559       0.99641654 </v>
    <v>       0.97994460       0.32475751       0.67102000 </v>
    <v>       0.74259705       0.16765636       0.17717891 </v>
    <v>       0.97769942       0.01065217       0.68289420 </v>
    <v>       0.01355448       0.66726586       0.31365869 </v>
    <v>       0.49926249       0.98687464       0.33744297 </v>
    <v>       0.51873806       0.33262167       0.65025685 </v>
    <v>       0.97991507       0.33240765       0.99442181 </v>
    <v>       0.00923915       0.35093718       0.33061298 </v>
    <v>       0.49130699       0.66621764       0.32542334 </v>
    <v>       0.23944039       0.16048381       0.49461238 </v>
    <v>       0.99758162       0.66585781       0.00553986 </v>
    <v>       0.76651074       0.51954683       0.50513274 </v>
    <v>       0.76279182       0.82673961       0.50817053 </v>
    <v>       0.25588552       0.49626628       0.83093480 </v>
    <v>       0.25729518       0.16809012       0.16605379 </v>
    <v>       0.24159122       0.82623368       0.51518199 </v>
    <v>       0.71141160       0.16173527       0.84193805 </v>
    <v>       0.99811875       0.67032582       0.69107041 </v>
    <v>       0.26092989       0.83379320       0.83456386 </v>
    <v>       0.51768742       0.34103624       0.00033615 </v>
    <v>       0.73891076       0.51016452       0.83464476 </v>
    <v>       0.50258599       0.99000051       0.99777755 </v>
   </varray>
  </structure>
  <varray name="forces" >
   <v>      -0.00366098       0.00097155       0.00058010 </v>
   <v>       0.01266176      -0.00510628       0.00868010 </v>
   <v>       0.00609113       0.00701553       0.00212104 </v>
   <v>       0.01014758       0.00441895       0.00567946 </v>
   <v>      -0.01216190       0.00996139       0.00588886 </v>
   <v>      -0.00417915      -0.01374723       0.00185429 </v>
   <v>      -0.02420756       0.00996474       0.00406332 </v>
   <v>       0.01327174      -0.00876413      -0.00415364 </v>
   <v>      -0.00772726       0.00408744      -0.00601699 </v>
   <v>      -0.01503823      -0.00011330      -0.00102333 </v>
   <v>      -0.00852028       0.00031929      -0.00823660 </v>
   <v>       0.00179828      -0.01370363       0.00059964 </v>
   <v>       0.04028957      -0.00539712       0.00745604 </v>
   <v>       0.00948237       0.03523408      -0.02819277 </v>
   <v>       0.01275400      -0.01799319       0.03222858 </v>
   <v>       0.01078551      -0.00036683       0.01059111 </v>
   <v>       0.00382421       0.02245215       0.01540928 </v>
   <v>      -0.00039425      -0.00142251       0.00408813 </v>
   <v>      -0.01464585      -0.00033716       0.00093175 </v>
   <v>      -0.01053444      -0.00883375       0.00879953 </v>
   <v>       0.01596212      -0.04380400      -0.03076935 </v>
   <v>       0.00260485      -0.00438971       0.00687876 </v>
   <v>       0.00744689       0.00250139       0.00962950 </v>
   <v>      -0.00236083      -0.00395032       0.03748522 </v>
   <v>       0.00695886       0.00237882      -0.00559109 </v>
   <v>      -0.00178943      -0.00834412       0.00388532 </v>
   <v>      -0.00333353       0.00307865      -0.00203959 </v>
   <v>      -0.00525774      -0.04740621      -0.00143185 </v>
   <v>      -0.00423024       0.00549014      -0.04033709 </v>
   <v>      -0.00154275       0.00726698      -0.00519957 </v>
   <v>      -0.03604827       0.01124569      -0.01172308 </v>
   <v>       0.00718341      -0.00192662      -0.00050905 </v>
   <v>      -0.00846540       0.06228016      -0.00939544 </v>
   <v>      -0.00907648      -0.01821713      -0.01106536 </v>
   <v>       0.00976742       0.00493521       0.00553720 </v>
   <v>       0.00214487       0.01022109      -0.00670246 </v>
  </varray>
  <varray name="stress" >
   <v>       2.06288302      -0.00969177       0.03915592 </v>
   <v>      -0.00969179       1.89369945       0.07462248 </v>
   <v>       0.03915593       0.07462250       1.83076441 </v>
  </varray>
  <energy>
   <i name="e_fr_energy">   -366.25607050 </i>
   <i name="e_wo_entrp">   -366.26529006 </i>
   <i name="e_0_energy">      0.02765868 </i>
  </energy>
  <time name="totalsc">    9.30   10.06</time>
 </calculation>
 <calculation>
  <scstep>
   <time name="dav">    0.94    0.94</time>
   <time name="total">    1.02    1.19</time>
   <energy>
    <i name="alphaZ">   1460.90907423 </i>
    <i name="ewald"> -18174.11089596 </i>
    <i name="hartreedc">  -5756.05733195 </i>
    <i name="XCdc">   -484.75307962 </i>
    <i name="pawpsdc">  32774.21603060 </i>
    <i name="pawaedc"> -31058.91882645 </i>
    <i name="eentropy">      0.02774775 </i>
    <i name="bandstr">  -2266.59613856 </i>
    <i name="atom">  23139.02543807 </i>
    <i name="e_fr_energy">   -366.25798189 </i>
    <i name="e_wo_entrp">   -366.28572964 </i>
    <i name="e_0_energy">   -366.26723114 </i>
   </energy>
  </scstep>
  <scstep>
   <time name="diag">    0.08    0.08</time>
   <time name="diis">    0.68    0.68</time>
   <time name="orth">    0.01    0.01</time>
   <time name="total">    0.88    0.91</time>
   <energy>
    <i name="e_fr_energy">   -366.25786007 </i>
    <i name="e_wo_entrp">   -366.28543659 </i>
    <i name="e_0_energy">   -366.26705224 </i>
   </energy>
  </scstep>
  <scstep>
   <time name="diag">    0.12    0.12</time>
   <time name="diis">    0.90    0.91</time>
   <time name="orth">    0.01    0.01</time>
   <time name="total">    1.12    1.16</time>
   <energy>
    <i name="e_fr_energy">   -366.25763326 </i>
    <i name="e_wo_entrp">   -366.28542711 </i>
    <i name="e_0_energy">   -366.26689788 </i>
   </energy>
  </scstep>
  <scstep>
   <time name="diag">    0.08    0.08</time>
   <time name="diis">    0.80    0.80</time>
   <time name="orth">    0.01    0.01</time>
   <time name="total">    0.95    0.99</time>
   <energy>
    <i name="e_fr_energy">   -366.25742929 </i>
    <i name="e_wo_entrp">   -366.28515679 </i>
    <i name="e_0_energy">   -366.26667179 </i>
   </energy>
  </scstep>
  <scstep>
   <time name="diag">    0.08    0.08</time>
   <time name="diis">    0.78    0.80</time>
   <time name="orth">    0.01    0.01</time>
   <time name="total">    0.94    1.01</time>
   <energy>
    <i name="e_fr_energy">   -366.25739864 </i>
    <i name="e_wo_entrp">   -366.28511535 </i>
    <i name="e_0_energy">   -366.26663754 </i>
   </energy>
  </scstep>
  <scstep>
   <time name="diag">    0.07    0.07</time>
   <time name="diis">    0.46    0.46</time>
   <time name="orth">    0.01    0.01</time>
   <time name="total">    0.58    0.62</time>
   <energy>
    <i name="alphaZ">   1460.90907423 </i>
    <i name="ewald"> -18174.11089596 </i>
    <i name="hartreedc">  -5759.01514525 </i>
    <i name="XCdc">   -484.62819741 </i>
    <i name="pawpsdc">  32737.64523054 </i>
    <i name="pawaedc"> -31022.16928188 </i>
    <i name="eentropy">      0.02771266 </i>
    <i name="bandstr">  -2263.94132382 </i>
    <i name="atom">  23139.02543807 </i>
    <i name="e_fr_energy">   -366.25738882 </i>
    <i name="e_wo_entrp">   -366.28510148 </i>
    <i name="e_0_energy">   -366.26662637 </i>
   </energy>
  </scstep>
  <structure>
   <crystal>
    <varray name="basis" >
     <v>       6.94958619       0.00643118      -0.03054609 </v>
     <v>       0.00971036      10.24986370       0.01778750 </v>
     <v>      -0.04554371       0.01791213      10.18450818 </v>
    </varray>
    <i name="volume">    725.44893658 </i>
    <varray name="rec_basis" >
     <v>       0.14389642      -0.00013744       0.00064373 </v>
     <v>      -0.00009104       0.09756266      -0.00017200 </v>
     <v>       0.00043174      -0.00017081       0.09819058 </v>
    </varray>
   </crystal>
   <varray name="positions" >
    <v>       0.49985071       0.34248700       0.34306879 </v>
    <v>       0.73314425       0.83128225       0.83561466 </v>
    <v>       0.73746160       0.83793513       0.15595059 </v>
    <v>       0.99789587       0.98253554       0.31555092 </v>
    <v>       0.27956390       0.48636043       0.15506075 </v>
    <v>       0.26387235       0.84092713       0.15060899 </v>
    <v>       0.51606393       0.00080910       0.66297796 </v>
    <v>       0.72792936       0.49328752       0.16535701 </v>
    <v>       0.75737796       0.15914516       0.48054792 </v>
    <v>       0.50388960       0.66763331       0.00136355 </v>
    <v>       0.50292335       0.66807137       0.68213350 </v>
    <v>       0.24772119       0.51119864       0.51461589 </v>
    <v>       0.27781178       0.16702110       0.83197717 </v>
    <v>       0.99166181       0.00177822       0.99632926 </v>
    <v>       0.98001965       0.32469133       0.67112838 </v>
    <v>       0.74263554       0.16765175       0.17721676 </v>
    <v>       0.97771759       0.01072429       0.68295051 </v>
    <v>       0.01356459       0.66726474       0.31367092 </v>
    <v>       0.49921586       0.98687263       0.33744983 </v>
    <v>       0.51867557       0.33256150       0.65031772 </v>
    <v>       0.98001300       0.33228352       0.99432725 </v>
    <v>       0.00925879       0.35092971       0.33063042 </v>
    <v>       0.49132660       0.66622257       0.32543745 </v>
    <v>       0.23943606       0.16047083       0.49474497 </v>
    <v>       0.99760974       0.66586626       0.00551849 </v>
    <v>       0.76651094       0.51954163       0.50513536 </v>
    <v>       0.76277980       0.82673239       0.50815598 </v>
    <v>       0.25586595       0.49609541       0.83093334 </v>
    <v>       0.25726554       0.16810578       0.16591474 </v>
    <v>       0.24158794       0.82624575       0.51515837 </v>
    <v>       0.71110833       0.16176425       0.84188867 </v>
    <v>       0.99815032       0.67032186       0.69107780 </v>
    <v>       0.26090567       0.83400031       0.83453724 </v>
    <v>       0.51763759       0.34095547       0.00026731 </v>
    <v>       0.73894124       0.51018972       0.83466405 </v>
    <v>       0.50259403       0.99004539       0.99771849 </v>
   </varray>
  </structure>
  <varray name="forces" >
   <v>      -0.00323485       0.00193198      -0.00132469 </v>
   <v>       0.00939162      -0.00270686       0.00594538 </v>
   <v>       0.00612171       0.01030147      -0.00404549 </v>
   <v>       0.00804359       0.00259629       0.00399556 </v>
   <v>      -0.00446578       0.00484289       0.00181120 </v>
   <v>      -0.00174262      -0.00820503      -0.00215673 </v>
   <v>      -0.01552656      -0.00178797      -0.00479172 </v>
   <v>       0.00714706      -0.01458074      -0.01015450 </v>
   <v>      -0.00721110       0.00295722      -0.00364438 </v>
   <v>      -0.01149395       0.00021633       0.00094461 </v>
   <v>      -0.00826574      -0.00036179      -0.00291316 </v>
   <v>       0.00310156      -0.01205699       0.00437283 </v>
   <v>       0.02046233      -0.00576336       0.00829534 </v>
   <v>       0.00212784       0.03037969      -0.02384286 </v>
   <v>       0.00609222      -0.01415944       0.02682314 </v>
   <v>       0.01068754       0.00044304       0.00973454 </v>
   <v>      -0.00145632       0.01894254       0.01358204 </v>
   <v>      -0.00090649      -0.00238775       0.00351569 </v>
   <v>      -0.01492073       0.00052365      -0.00086547 </v>
   <v>      -0.00500541      -0.00029574      -0.00125119 </v>
   <v>       0.00722586      -0.04062542      -0.02576800 </v>
   <v>       0.00202066      -0.00243781       0.00571884 </v>
   <v>       0.00776516       0.00061736       0.00685460 </v>
   <v>      -0.00273747      -0.00443366       0.02857919 </v>
   <v>       0.00524725       0.00295568      -0.00406533 </v>
   <v>      -0.00193628      -0.01122781       0.00833456 </v>
   <v>      -0.00226941       0.00686319       0.00365462 </v>
   <v>      -0.00229666      -0.03296016      -0.00310276 </v>
   <v>      -0.00086773       0.00525948      -0.03144903 </v>
   <v>      -0.00284596       0.00762122      -0.00089278 </v>
   <v>      -0.01819724       0.00861937      -0.00861881 </v>
   <v>       0.00583314      -0.00169651       0.00080395 </v>
   <v>      -0.00520336       0.05062668      -0.00928695 </v>
   <v>      -0.00298375      -0.00699872      -0.00008933 </v>
   <v>       0.00716418       0.00664540       0.00374999 </v>
   <v>       0.00513570       0.00034231       0.00154709 </v>
  </varray>
  <varray name="stress" >
   <v>       1.23819568      -0.01849385      -0.01812626 </v>
   <v>      -0.01849384       1.04003700       0.04882769 </v>
   <v>      -0.01812625       0.04882767       1.01746091 </v>
  </varray>
  <energy>
   <i name="e_fr_energy">   -366.25738882 </i>
   <i name="e_wo_entrp">   -366.26662637 </i>
   <i name="e_0_energy">      0.02771266 </i>
  </energy>
  <time name="totalsc">    7.12    7.69</time>
 </calculation>
 <calculation>
  <scstep>
   <time name="dav">    0.93    0.94</time>
   <time name="total">    1.01    1.20</time>
   <energy>
    <i name="alphaZ">   1459.00713415 </i>
    <i name="ewald"> -18166.75192144 </i>
    <i name="hartreedc">  -5755.92928005 </i>
    <i name="XCdc">   -484.97340056 </i>
    <i name="pawpsdc">  32739.90964926 </i>
    <i name="pawaedc"> -31024.44985643 </i>
    <i name="eentropy">      0.02788225 </i>
    <i name="bandstr">  -2272.12537799 </i>
    <i name="atom">  23139.02543807 </i>
    <i name="e_fr_energy">   -366.25973274 </i>
    <i name="e_wo_entrp">   -366.28761500 </i>
    <i name="e_0_energy">   -366.26902683 </i>
   </energy>
  </scstep>
  <scstep>
   <time name="diag">    0.10    0.10</time>
   <time name="diis">    0.67    0.69</time>
   <time name="orth">    0.01    0.01</time>
   <time name="total">    0.89    0.94</time>
   <energy>
    <i name="e_fr_energy">   -366.25934976 </i>
    <i name="e_wo_entrp">   -366.28690047 </i>
    <i name="e_0_energy">   -366.26853333 </i>
   </energy>
  </scstep>
  <scstep>
   <time name="diag">    0.08    0.09</time>
   <time name="diis">    0.72    0.77</time>
   <time name="orth">    0.01    0.01</time>
   <time name="total">    0.89    0.97</time>
   <energy>
    <i name="e_fr_energy">   -366.25865411 </i>
    <i name="e_wo_entrp">   -366.28662610 </i>
    <i name="e_0_energy">   -366.26797810 </i>
   </energy>
  </scstep>
  <scstep>
   <time name="diag">    0.07    0.07</time>
   <time name="diis">    0.78    0.78</time>
   <time name="orth">    0.01    0.01</time>
   <time name="total">    0.96    1.00</time>
   <energy>
    <i name="e_fr_energy">   -366.25809076 </i>
    <i name="e_wo_entrp">   -366.28592247 </i>
    <i name="e_0_energy">   -366.26736800 </i>
   </energy>
  </scstep>
  <scstep>
   <time name="diag">    0.08    0.08</time>
   <time name="diis">    0.83    0.84</time>
   <time name="orth">    0.01    0.01</time>
   <time name="total">    0.98    1.04</time>
   <energy>
    <i name="e_fr_energy">   -366.25801928 </i>
    <i name="e_wo_entrp">   -366.28583879 </i>
    <i name="e_0_energy">   -366.26729245 </i>
   </energy>
  </scstep>
  <scstep>
   <time name="diag">    0.07    0.07</time>
   <time name="diis">    0.71    0.71</time>
   <time name="orth">    0.01    0.01</time>
   <time name="total">    0.86    0.90</time>
   <energy>
    <i name="e_fr_energy">   -366.25800913 </i>
    <i name="e_wo_entrp">   -366.28582406 </i>
    <i name="e_0_energy">   -366.26728077 </i>
   </energy>
  </scstep>
  <scstep>
   <time name="diag">    0.07    0.07</time>
   <time name="diis">    0.58    0.58</time>
   <time name="orth">    0.01    0.01</time>
   <time name="total">    0.70    0.74</time>
   <energy>
    <i name="alphaZ">   1459.00713415 </i>
    <i name="ewald"> -18166.75192144 </i>
    <i name="hartreedc">  -5760.70608724 </i>
    <i name="XCdc">   -484.77212212 </i>
    <i name="pawpsdc">  32678.71725734 </i>
    <i name="pawaedc"> -30963.23575811 </i>
    <i name="eentropy">      0.02785170 </i>
    <i name="bandstr">  -2267.56979551 </i>
    <i name="atom">  23139.02543807 </i>
    <i name="e_fr_energy">   -366.25800316 </i>
    <i name="e_wo_entrp">   -366.28585486 </i>
    <i name="e_0_energy">   -366.26728706 </i>
   </energy>
  </scstep>
  <structure>
   <crystal>
    <varray name="basis" >
     <v>       6.95307150       0.00647536      -0.02997957 </v>
     <v>       0.00978070      10.25439702       0.01848513 </v>
     <v>      -0.04472080       0.01860580      10.18816190 </v>
    </varray>
    <i name="volume">    726.39462106 </i>
    <varray name="rec_basis" >
     <v>       0.14382418      -0.00013832       0.00063157 </v>
     <v>      -0.00009159       0.09751955      -0.00017849 </v>
     <v>       0.00042338      -0.00017734       0.09815531 </v>
    </varray>
   </crystal>
   <varray name="positions" >
    <v>       0.49982612       0.34249598       0.34307063 </v>
    <v>       0.73319928       0.83123305       0.83566157 </v>
    <v>       0.73746693       0.83796517       0.15598493 </v>
    <v>       0.99797213       0.98255730       0.31556602 </v>
    <v>       0.27948925       0.48641610       0.15510550 </v>
    <v>       0.26385089       0.84084562       0.15063113 </v>
    <v>       0.51586713       0.00094606       0.66308575 </v>
    <v>       0.72799538       0.49326115       0.16536554 </v>
    <v>       0.75730003       0.15916088       0.48048881 </v>
    <v>       0.50378276       0.66764135       0.00134629 </v>
    <v>       0.50287805       0.66808307       0.68209911 </v>
    <v>       0.24772018       0.51114099       0.51460480 </v>
    <v>       0.27833994       0.16698979       0.83200819 </v>
    <v>       0.99178823       0.00195628       0.99617781 </v>
    <v>       0.98014986       0.32457650       0.67131643 </v>
    <v>       0.74270231       0.16764375       0.17728242 </v>
    <v>       0.97774911       0.01084942       0.68304821 </v>
    <v>       0.01358214       0.66726280       0.31369213 </v>
    <v>       0.49913497       0.98686915       0.33746173 </v>
    <v>       0.51856713       0.33245710       0.65042334 </v>
    <v>       0.98018294       0.33206814       0.99416318 </v>
    <v>       0.00929286       0.35091675       0.33066069 </v>
    <v>       0.49136064       0.66623113       0.32546195 </v>
    <v>       0.23942853       0.16044830       0.49497503 </v>
    <v>       0.99765853       0.66588092       0.00548139 </v>
    <v>       0.76651128       0.51953259       0.50513991 </v>
    <v>       0.76275893       0.82671985       0.50813074 </v>
    <v>       0.25583200       0.49579894       0.83093083 </v>
    <v>       0.25721413       0.16813297       0.16567347 </v>
    <v>       0.24158224       0.82626670       0.51511739 </v>
    <v>       0.71058215       0.16181453       0.84180301 </v>
    <v>       0.99820509       0.67031499       0.69109063 </v>
    <v>       0.26086364       0.83435967       0.83449103 </v>
    <v>       0.51755113       0.34081533       0.00014787 </v>
    <v>       0.73899414       0.51023344       0.83469752 </v>
    <v>       0.50260798       0.99012326       0.99761601 </v>
   </varray>
  </structure>
  <varray name="forces" >
   <v>      -0.00281200       0.00460964      -0.00330713 </v>
   <v>       0.00395362       0.00112168       0.00306057 </v>
   <v>       0.00749765       0.01340879      -0.01500200 </v>
   <v>       0.00434807      -0.00190157      -0.00038835 </v>
   <v>       0.00797690       0.00035027      -0.00585999 </v>
   <v>       0.00078798      -0.00144112      -0.00914160 </v>
   <v>      -0.00119969      -0.02200016      -0.01958591 </v>
   <v>      -0.00261901      -0.02059973      -0.02048657 </v>
   <v>      -0.00579076       0.00136229       0.00053830 </v>
   <v>      -0.00566232       0.00170464       0.00479131 </v>
   <v>      -0.00717807      -0.00208065       0.00792843 </v>
   <v>       0.00452080      -0.00868890       0.01050171 </v>
   <v>      -0.01238869      -0.00749107       0.00856998 </v>
   <v>      -0.01169682       0.01805925      -0.01556828 </v>
   <v>      -0.00780938      -0.00641184       0.01670476 </v>
   <v>       0.00942053       0.00048626       0.00891360 </v>
   <v>      -0.01042263       0.01308045       0.01063017 </v>
   <v>      -0.00277538      -0.00298439      -0.00170758 </v>
   <v>      -0.01555707      -0.00036736      -0.00665941 </v>
   <v>       0.00569973       0.01501373      -0.01763908 </v>
   <v>      -0.01044220      -0.03232756      -0.01875981 </v>
   <v>       0.00038042       0.00143940       0.00358125 </v>
   <v>       0.00885725      -0.00215262       0.00167186 </v>
   <v>      -0.00287780      -0.00557495       0.01309412 </v>
   <v>       0.00262361       0.00484061      -0.00102982 </v>
   <v>      -0.00158988      -0.01514734       0.01511960 </v>
   <v>       0.00050169       0.01270636       0.01267594 </v>
   <v>       0.00238807      -0.00681340      -0.00476808 </v>
   <v>       0.00580156       0.00455868      -0.01625881 </v>
   <v>      -0.00629850       0.00797381       0.00621154 </v>
   <v>       0.01818291       0.00385977      -0.00105010 </v>
   <v>       0.00278543      -0.00117751       0.00202014 </v>
   <v>       0.00026720       0.02727014      -0.00915276 </v>
   <v>       0.00922945       0.01445677       0.02046418 </v>
   <v>       0.00275058       0.00826746       0.00126603 </v>
   <v>       0.00914675      -0.01740985       0.01862178 </v>
  </varray>
  <varray name="stress" >
   <v>      -0.46819395      -0.03998304      -0.10925347 </v>
   <v>      -0.03998305      -0.69535995      -0.02147228 </v>
   <v>      -0.10925350      -0.02147226      -0.69020339 </v>
  </varray>
  <energy>
   <i name="e_fr_energy">   -366.25800316 </i>
   <i name="e_wo_entrp">   -366.26728706 </i>
   <i name="e_0_energy">      0.02785170 </i>
  </energy>
  <time name="totalsc">    7.87    8.85</time>
 </calculation>
 <calculation>
  <scstep>
   <time name="dav">    0.95    0.97</time>
   <time name="total">    1.04    1.35</time>
   <energy>
    <i name="alphaZ">   1459.22192156 </i>
    <i name="ewald"> -18167.58513932 </i>
    <i name="hartreedc">  -5761.02972378 </i>
    <i name="XCdc">   -484.73448550 </i>
    <i name="pawpsdc">  32679.60431152 </i>
    <i name="pawaedc"> -30964.16122026 </i>
    <i name="eentropy">      0.02779451 </i>
    <i name="bandstr">  -2266.62695446 </i>
    <i name="atom">  23139.02543807 </i>
    <i name="e_fr_energy">   -366.25805767 </i>
    <i name="e_wo_entrp">   -366.28585217 </i>
    <i name="e_0_energy">   -366.26732250 </i>
   </energy>
  </scstep>
  <scstep>
   <time name="diag">    0.07    0.07</time>
   <time name="diis">    0.67    0.70</time>
   <time name="orth">    0.01    0.01</time>
   <time name="total">    0.82    0.88</time>
   <energy>
    <i name="e_fr_energy">   -366.25804873 </i>
    <i name="e_wo_entrp">   -366.28592242 </i>
    <i name="e_0_energy">   -366.26733996 </i>
   </energy>
  </scstep>
  <scstep>
   <time name="diag">    0.07    0.07</time>
   <time name="diis">    0.57    0.58</time>
   <time name="orth">    0.01    0.01</time>
   <time name="total">    0.70    0.74</time>
   <energy>
    <i name="alphaZ">   1459.22192156 </i>
    <i name="ewald"> -18167.58513932 </i>
    <i name="hartreedc">  -5760.52183927 </i>
    <i name="XCdc">   -484.75677460 </i>
    <i name="pawpsdc">  32687.03426512 </i>
    <i name="pawaedc"> -30971.67864276 </i>
    <i name="eentropy">      0.02776960 </i>
    <i name="bandstr">  -2267.02503894 </i>
    <i name="atom">  23139.02543807 </i>
    <i name="e_fr_energy">   -366.25804055 </i>
    <i name="e_wo_entrp">   -366.28581015 </i>
    <i name="e_0_energy">   -366.26729708 </i>
   </energy>
  </scstep>
  <structure>
   <crystal>
    <varray name="basis" >
     <v>       6.95267759       0.00647036      -0.03004360 </v>
     <v>       0.00977275      10.25388467       0.01840629 </v>
     <v>      -0.04481381       0.01852741      10.18774896 </v>
    </varray>
    <i name="volume">    726.28770078 </i>
    <varray name="rec_basis" >
     <v>       0.14383234      -0.00013822       0.00063294 </v>
     <v>      -0.00009153       0.09752442      -0.00017776 </v>
     <v>       0.00042433      -0.00017661       0.09815930 </v>
    </varray>
   </crystal>
   <varray name="positions" >
    <v>       0.49982890       0.34249496       0.34307043 </v>
    <v>       0.73319307       0.83123861       0.83565627 </v>
    <v>       0.73746633       0.83796178       0.15598105 </v>
    <v>       0.99796351       0.98255484       0.31556432 </v>
    <v>       0.27949768       0.48640981       0.15510045 </v>
    <v>       0.26385332       0.84085483       0.15062863 </v>
    <v>       0.51588937       0.00093059       0.66307357 </v>
    <v>       0.72798792       0.49326413       0.16536458 </v>
    <v>       0.75730883       0.15915911       0.48049548 </v>
    <v>       0.50379483       0.66764044       0.00134824 </v>
    <v>       0.50288317       0.66808175       0.68210299 </v>
    <v>       0.24772029       0.51114750       0.51460605 </v>
    <v>       0.27828027       0.16699333       0.83200469 </v>
    <v>       0.99177394       0.00193617       0.99619493 </v>
    <v>       0.98013515       0.32458947       0.67129518 </v>
    <v>       0.74269477       0.16764466       0.17727500 </v>
    <v>       0.97774555       0.01083529       0.68303717 </v>
    <v>       0.01358016       0.66726302       0.31368973 </v>
    <v>       0.49914410       0.98686954       0.33746038 </v>
    <v>       0.51857938       0.33246889       0.65041141 </v>
    <v>       0.98016374       0.33209247       0.99418171 </v>
    <v>       0.00928901       0.35091822       0.33065727 </v>
    <v>       0.49135679       0.66623016       0.32545918 </v>
    <v>       0.23942938       0.16045085       0.49494904 </v>
    <v>       0.99765302       0.66587926       0.00548558 </v>
    <v>       0.76651124       0.51953361       0.50513939 </v>
    <v>       0.76276129       0.82672127       0.50813360 </v>
    <v>       0.25583583       0.49583243       0.83093112 </v>
    <v>       0.25721994       0.16812990       0.16570073 </v>
    <v>       0.24158288       0.82626433       0.51512202 </v>
    <v>       0.71064159       0.16180885       0.84181268 </v>
    <v>       0.99819890       0.67031576       0.69108918 </v>
    <v>       0.26086838       0.83431907       0.83449626 </v>
    <v>       0.51756090       0.34083116       0.00016137 </v>
    <v>       0.73898816       0.51022851       0.83469374 </v>
    <v>       0.50260641       0.99011446       0.99762758 </v>
   </varray>
  </structure>
  <varray name="forces" >
   <v>      -0.00284682       0.00293839      -0.00234126 </v>
   <v>       0.00392351       0.00000263       0.00348674 </v>
   <v>       0.00687969       0.01318808      -0.01187186 </v>
   <v>       0.00449415       0.00085576       0.00223681 </v>
   <v>       0.00621672       0.00023879      -0.00215534 </v>
   <v>       0.00100799      -0.00245016      -0.00684189 </v>
   <v>      -0.00246286      -0.01840642      -0.01994927 </v>
   <v>      -0.00132075      -0.02038415      -0.01695566 </v>
   <v>      -0.00672698       0.00302969      -0.00023386 </v>
   <v>      -0.00578703       0.00117273       0.00476984 </v>
   <v>      -0.00685298      -0.00251088       0.00483895 </v>
   <v>       0.00542679      -0.01114030       0.00731031 </v>
   <v>      -0.00810076      -0.00663183       0.00752443 </v>
   <v>      -0.01059202       0.02054658      -0.01564902 </v>
   <v>      -0.00543387      -0.00848489       0.01533186 </v>
   <v>       0.01011703       0.00100775       0.01172609 </v>
   <v>      -0.00986974       0.01519617       0.00848045 </v>
   <v>      -0.00288697      -0.00383911      -0.00014877 </v>
   <v>      -0.01482178       0.00129984      -0.00483368 </v>
   <v>       0.00386800       0.01219239      -0.01817473 </v>
   <v>      -0.00794203      -0.03414955      -0.01875779 </v>
   <v>       0.00085321      -0.00098873       0.00475204 </v>
   <v>       0.00951763      -0.00166675       0.00298803 </v>
   <v>      -0.00271810      -0.00443279       0.01358499 </v>
   <v>       0.00315544       0.00404702      -0.00251872 </v>
   <v>      -0.00215738      -0.01593575       0.01339191 </v>
   <v>      -0.00049686       0.01205906       0.01082404 </v>
   <v>       0.00206243      -0.00952722      -0.00443005 </v>
   <v>       0.00505345       0.00509984      -0.01698677 </v>
   <v>      -0.00542736       0.00798345       0.00441740 </v>
   <v>       0.01064791       0.00505837      -0.00237650 </v>
   <v>       0.00333666      -0.00175859       0.00261735 </v>
   <v>      -0.00059613       0.03176459      -0.00962155 </v>
   <v>       0.00804493       0.01115564       0.01733890 </v>
   <v>       0.00314342       0.00856855       0.00174458 </v>
   <v>       0.00929149      -0.01509823       0.01648199 </v>
  </varray>
  <varray name="stress" >
   <v>      -0.77104460      -0.01771520      -0.12404058 </v>
   <v>      -0.01771516      -1.01548594      -0.03389624 </v>
   <v>      -0.12404058      -0.03389626      -0.99303402 </v>
  </varray>
  <energy>
   <i name="e_fr_energy">   -366.25804055 </i>
   <i name="e_wo_entrp">   -366.26729708 </i>
   <i name="e_0_energy">      0.02776960 </i>
  </energy>
  <time name="totalsc">    4.10    4.68</time>
 </calculation>
 <calculation>
  <scstep>
   <time name="dav">    1.00    1.01</time>
   <time name="total">    1.08    1.25</time>
   <energy>
    <i name="alphaZ">   1460.06516819 </i>
    <i name="ewald"> -18170.85105641 </i>
    <i name="hartreedc">  -5761.76894722 </i>
    <i name="XCdc">   -484.60804327 </i>
    <i name="pawpsdc">  32687.59341139 </i>
    <i name="pawaedc"> -30972.26618197 </i>
    <i name="eentropy">      0.02775723 </i>
    <i name="bandstr">  -2263.47583047 </i>
    <i name="atom">  23139.02543807 </i>
    <i name="e_fr_energy">   -366.25828446 </i>
    <i name="e_wo_entrp">   -366.28604169 </i>
    <i name="e_0_energy">   -366.26753687 </i>
   </energy>
  </scstep>
  <scstep>
   <time name="diag">    0.07    0.07</time>
   <time name="diis">    0.70    0.70</time>
   <time name="orth">    0.01    0.01</time>
   <time name="total">    0.87    0.91</time>
   <energy>
    <i name="e_fr_energy">   -366.25814324 </i>
    <i name="e_wo_entrp">   -366.28601398 </i>
    <i name="e_0_energy">   -366.26743349 </i>
   </energy>
  </scstep>
  <scstep>
   <time name="diag">    0.08    0.08</time>
   <time name="diis">    0.76    0.77</time>
   <time name="orth">    0.01    0.01</time>
   <time name="total">    0.91    0.96</time>
   <energy>
    <i name="e_fr_energy">   -366.25799564 </i>
    <i name="e_wo_entrp">   -366.28572800 </i>
    <i name="e_0_energy">   -366.26723976 </i>
   </energy>
  </scstep>
  <scstep>
   <time name="diag">    0.07    0.07</time>
   <time name="diis">    0.76    0.77</time>
   <time name="orth">    0.01    0.01</time>
   <time name="total">    0.91    0.95</time>
   <energy>
    <i name="e_fr_energy">   -366.25789386 </i>
    <i name="e_wo_entrp">   -366.28565817 </i>
    <i name="e_0_energy">   -366.26714863 </i>
   </energy>
  </scstep>
  <scstep>
   <time name="diag">    0.07    0.07</time>
   <time name="diis">    0.64    0.65</time>
   <time name="orth">    0.01    0.01</time>
   <time name="total">    0.79    0.84</time>
   <energy>
    <i name="e_fr_energy">   -366.25788165 </i>
    <i name="e_wo_entrp">   -366.28565868 </i>
    <i name="e_0_energy">   -366.26714066 </i>
   </energy>
  </scstep>
  <scstep>
   <time name="diag">    0.07    0.07</time>
   <time name="diis">    0.35    0.46</time>
   <time name="orth">    0.01    0.02</time>
   <time name="total">    0.48    0.64</time>
   <energy>
    <i name="alphaZ">   1460.06516819 </i>
    <i name="ewald"> -18170.85105641 </i>
    <i name="hartreedc">  -5759.48051509 </i>
[...]
       <r>    6.6518    1.0000 </r>
       <r>    6.6639    1.0000 </r>
       <r>    6.7222    1.0000 </r>
       <r>    6.7853    1.0000 </r>
       <r>    6.8154    1.0000 </r>
       <r>    6.8642    1.0001 </r>
       <r>    6.8840    1.0002 </r>
       <r>    6.9532    1.0017 </r>
       <r>    6.9625    1.0022 </r>
       <r>    6.9813    1.0037 </r>
       <r>    7.0011    1.0059 </r>
       <r>    7.0326    1.0116 </r>
       <r>    7.0544    1.0171 </r>
       <r>    7.0729    1.0226 </r>
       <r>    7.1463    1.0335 </r>
       <r>    7.1789    1.0120 </r>
       <r>    7.2177    0.9390 </r>
       <r>    7.2497    0.8302 </r>
       <r>    7.2963    0.6014 </r>
       <r>    7.3188    0.4754 </r>
       <r>    7.3676    0.2200 </r>
       <r>    7.4029    0.0846 </r>
       <r>    7.4293    0.0193 </r>
       <r>    7.4681   -0.0275 </r>
       <r>    7.5157   -0.0337 </r>
       <r>    7.5476   -0.0252 </r>
       <r>    7.5939   -0.0121 </r>
       <r>    7.6151   -0.0079 </r>
       <r>    7.6342   -0.0051 </r>
       <r>    7.6743   -0.0018 </r>
       <r>    7.7173   -0.0005 </r>
       <r>    7.7551   -0.0001 </r>
       <r>    7.7835   -0.0000 </r>
       <r>    7.8869   -0.0000 </r>
       <r>    7.9365   -0.0000 </r>
       <r>    7.9639   -0.0000 </r>
       <r>    8.0442   -0.0000 </r>
       <r>    8.0734   -0.0000 </r>
       <r>    8.1542   -0.0000 </r>
       <r>    8.1962   -0.0000 </r>
       <r>    8.2473   -0.0000 </r>
       <r>    8.4729   -0.0000 </r>
       <r>    8.5439   -0.0000 </r>
       <r>    8.6425   -0.0000 </r>
       <r>    9.1325   -0.0000 </r>
       <r>    9.1666   -0.0000 </r>
       <r>    9.2608   -0.0000 </r>
       <r>    9.3296   -0.0000 </r>
       <r>    9.3856   -0.0000 </r>
      </set>
     </set>
    </set>
   </array>
  </eigenvalues>
  <separator name="orbital magnetization" >
   <v name="MAGDIPOLOUT">      0.00000000      0.00000000      0.00000000</v>
  </separator>
  <dos>
   <i name="efermi">      7.31444298 </i>
   <total>
    <array>
     <dimension dim="1">gridpoints</dimension>
     <dimension dim="2">spin</dimension>
     <field>energy</field>
     <field>total</field>
     <field>integrated</field>
     <set>
      <set comment="spin 1">
       <r>   -49.8535     0.0000     0.0000 </r>
       <r>   -49.6464     0.0000     0.0000 </r>
       <r>   -49.4393     0.0000     0.0000 </r>
       <r>   -49.2322     0.0000     0.0000 </r>
       <r>   -49.0251     0.0000     0.0000 </r>
       <r>   -48.8180     0.0000     0.0000 </r>
       <r>   -48.6109     0.0000     0.0000 </r>
       <r>   -48.4038    -0.0000    -0.0000 </r>
       <r>   -48.1968    -0.0000    -0.0000 </r>
       <r>   -47.9897    -0.0000    -0.0000 </r>
       <r>   -47.7826    -0.0000    -0.0000 </r>
       <r>   -47.5755    -0.0000    -0.0000 </r>
       <r>   -47.3684    -0.0307    -0.0064 </r>
       <r>   -47.1613    -0.1611    -0.0397 </r>
       <r>   -46.9542     8.4816     1.7167 </r>
       <r>   -46.7471    31.4707     8.2340 </r>
       <r>   -46.5400    19.1631    12.2025 </r>
       <r>   -46.3329    -0.9515    12.0055 </r>
       <r>   -46.1259    -0.0264    12.0000 </r>
       <r>   -45.9188    -0.0000    12.0000 </r>
       <r>   -45.7117    -0.0000    12.0000 </r>
       <r>   -45.5046     0.0000    12.0000 </r>
       <r>   -45.2975     0.0000    12.0000 </r>
       <r>   -45.0904     0.0000    12.0000 </r>
       <r>   -44.8833     0.0000    12.0000 </r>
       <r>   -44.6762     0.0000    12.0000 </r>
       <r>   -44.4691     0.0000    12.0000 </r>
       <r>   -44.2620     0.0000    12.0000 </r>
       <r>   -44.0550     0.0000    12.0000 </r>
       <r>   -43.8479     0.0000    12.0000 </r>
       <r>   -43.6408     0.0000    12.0000 </r>
       <r>   -43.4337     0.0000    12.0000 </r>
       <r>   -43.2266     0.0000    12.0000 </r>
       <r>   -43.0195     0.0000    12.0000 </r>
       <r>   -42.8124     0.0000    12.0000 </r>
       <r>   -42.6053     0.0000    12.0000 </r>
       <r>   -42.3982     0.0000    12.0000 </r>
       <r>   -42.1911    -0.0000    12.0000 </r>
       <r>   -41.9841    -0.0000    12.0000 </r>
       <r>   -41.7770    -0.0000    12.0000 </r>
       <r>   -41.5699    -0.0000    12.0000 </r>
       <r>   -41.3628    -0.0010    11.9998 </r>
       <r>   -41.1557    -0.4645    11.9036 </r>
       <r>   -40.9486     3.4746    12.6232 </r>
       <r>   -40.7415    66.5021    26.3951 </r>
       <r>   -40.5344    18.7516    30.2784 </r>
       <r>   -40.3273    -1.3359    30.0017 </r>
       <r>   -40.1202    -0.0083    30.0000 </r>
       <r>   -39.9132    -0.0000    30.0000 </r>
       <r>   -39.7061    -0.0000    30.0000 </r>
       <r>   -39.4990     0.0000    30.0000 </r>
       <r>   -39.2919     0.0000    30.0000 </r>
       <r>   -39.0848     0.0000    30.0000 </r>
       <r>   -38.8777     0.0000    30.0000 </r>
       <r>   -38.6706     0.0000    30.0000 </r>
       <r>   -38.4635     0.0000    30.0000 </r>
       <r>   -38.2564     0.0000    30.0000 </r>
       <r>   -38.0493     0.0000    30.0000 </r>
       <r>   -37.8423     0.0000    30.0000 </r>
       <r>   -37.6352     0.0000    30.0000 </r>
       <r>   -37.4281     0.0000    30.0000 </r>
       <r>   -37.2210     0.0000    30.0000 </r>
       <r>   -37.0139     0.0000    30.0000 </r>
       <r>   -36.8068     0.0000    30.0000 </r>
       <r>   -36.5997     0.0000    30.0000 </r>
       <r>   -36.3926     0.0000    30.0000 </r>
       <r>   -36.1855     0.0000    30.0000 </r>
       <r>   -35.9784     0.0000    30.0000 </r>
       <r>   -35.7713     0.0000    30.0000 </r>
       <r>   -35.5643     0.0000    30.0000 </r>
       <r>   -35.3572     0.0000    30.0000 </r>
       <r>   -35.1501     0.0000    30.0000 </r>
       <r>   -34.9430     0.0000    30.0000 </r>
       <r>   -34.7359     0.0000    30.0000 </r>
       <r>   -34.5288     0.0000    30.0000 </r>
       <r>   -34.3217     0.0000    30.0000 </r>
       <r>   -34.1146     0.0000    30.0000 </r>
       <r>   -33.9075     0.0000    30.0000 </r>
       <r>   -33.7004     0.0000    30.0000 </r>
       <r>   -33.4934     0.0000    30.0000 </r>
       <r>   -33.2863     0.0000    30.0000 </r>
       <r>   -33.0792     0.0000    30.0000 </r>
       <r>   -32.8721     0.0000    30.0000 </r>
       <r>   -32.6650     0.0000    30.0000 </r>
       <r>   -32.4579     0.0000    30.0000 </r>
       <r>   -32.2508     0.0000    30.0000 </r>
       <r>   -32.0437     0.0000    30.0000 </r>
       <r>   -31.8366     0.0000    30.0000 </r>
       <r>   -31.6295     0.0000    30.0000 </r>
       <r>   -31.4225     0.0000    30.0000 </r>
       <r>   -31.2154     0.0000    30.0000 </r>
       <r>   -31.0083     0.0000    30.0000 </r>
       <r>   -30.8012     0.0000    30.0000 </r>
       <r>   -30.5941     0.0000    30.0000 </r>
       <r>   -30.3870     0.0000    30.0000 </r>
       <r>   -30.1799     0.0000    30.0000 </r>
       <r>   -29.9728     0.0000    30.0000 </r>
       <r>   -29.7657     0.0000    30.0000 </r>
       <r>   -29.5586     0.0000    30.0000 </r>
       <r>   -29.3516     0.0000    30.0000 </r>
       <r>   -29.1445     0.0000    30.0000 </r>
       <r>   -28.9374     0.0000    30.0000 </r>
       <r>   -28.7303     0.0000    30.0000 </r>
       <r>   -28.5232     0.0000    30.0000 </r>
       <r>   -28.3161     0.0000    30.0000 </r>
       <r>   -28.1090     0.0000    30.0000 </r>
       <r>   -27.9019     0.0000    30.0000 </r>
       <r>   -27.6948     0.0000    30.0000 </r>
       <r>   -27.4877     0.0000    30.0000 </r>
       <r>   -27.2807     0.0000    30.0000 </r>
       <r>   -27.0736     0.0000    30.0000 </r>
       <r>   -26.8665     0.0000    30.0000 </r>
       <r>   -26.6594     0.0000    30.0000 </r>
       <r>   -26.4523     0.0000    30.0000 </r>
       <r>   -26.2452     0.0000    30.0000 </r>
       <r>   -26.0381     0.0000    30.0000 </r>
       <r>   -25.8310     0.0000    30.0000 </r>
       <r>   -25.6239     0.0000    30.0000 </r>
       <r>   -25.4168     0.0000    30.0000 </r>
       <r>   -25.2098     0.0000    30.0000 </r>
       <r>   -25.0027     0.0000    30.0000 </r>
       <r>   -24.7956     0.0000    30.0000 </r>
       <r>   -24.5885    -0.0000    30.0000 </r>
       <r>   -24.3814    -0.0000    30.0000 </r>
       <r>   -24.1743    -0.0000    30.0000 </r>
       <r>   -23.9672    -0.0000    30.0000 </r>
       <r>   -23.7601    -0.0059    29.9988 </r>
       <r>   -23.5530    -0.5064    29.8939 </r>
       <r>   -23.3459     6.7625    31.2944 </r>
       <r>   -23.1389    35.7112    38.6898 </r>
       <r>   -22.9318    51.0950    49.2711 </r>
       <r>   -22.7247    49.0206    59.4227 </r>
       <r>   -22.5176    30.2555    65.6883 </r>
       <r>   -22.3105     1.7352    66.0477 </r>
       <r>   -22.1034    -0.2299    66.0001 </r>
       <r>   -21.8963    -0.0004    66.0000 </r>
       <r>   -21.6892    -0.0000    66.0000 </r>
       <r>   -21.4821    -0.0000    66.0000 </r>
       <r>   -21.2750     0.0000    66.0000 </r>
       <r>   -21.0680     0.0000    66.0000 </r>
       <r>   -20.8609     0.0000    66.0000 </r>
       <r>   -20.6538    -0.0000    66.0000 </r>
       <r>   -20.4467    -0.0000    66.0000 </r>
       <r>   -20.2396    -0.0000    66.0000 </r>
       <r>   -20.0325    -0.0000    66.0000 </r>
       <r>   -19.8254    -0.0000    66.0000 </r>
       <r>   -19.6183    -0.0305    65.9937 </r>
       <r>   -19.4112    -0.8067    65.8266 </r>
       <r>   -19.2041    15.4825    69.0329 </r>
       <r>   -18.9971    70.4379    83.6199 </r>
       <r>   -18.7900   119.3363   108.3333 </r>
       <r>   -18.5829    54.4600   119.6114 </r>
       <r>   -18.3758     2.2501   120.0774 </r>
       <r>   -18.1687    -0.3721   120.0003 </r>
       <r>   -17.9616    -0.0015   120.0000 </r>
       <r>   -17.7545    -0.0000   120.0000 </r>
       <r>   -17.5474    -0.0000   120.0000 </r>
       <r>   -17.3403     0.0000   120.0000 </r>
       <r>   -17.1332     0.0000   120.0000 </r>
       <r>   -16.9262     0.0000   120.0000 </r>
       <r>   -16.7191     0.0000   120.0000 </r>
       <r>   -16.5120     0.0000   120.0000 </r>
       <r>   -16.3049     0.0000   120.0000 </r>
       <r>   -16.0978     0.0000   120.0000 </r>
       <r>   -15.8907     0.0000   120.0000 </r>
       <r>   -15.6836     0.0000   120.0000 </r>
       <r>   -15.4765     0.0000   120.0000 </r>
       <r>   -15.2694     0.0000   120.0000 </r>
       <r>   -15.0623     0.0000   120.0000 </r>
       <r>   -14.8553     0.0000   120.0000 </r>
       <r>   -14.6482     0.0000   120.0000 </r>
       <r>   -14.4411     0.0000   120.0000 </r>
       <r>   -14.2340     0.0000   120.0000 </r>
       <r>   -14.0269     0.0000   120.0000 </r>
       <r>   -13.8198     0.0000   120.0000 </r>
       <r>   -13.6127     0.0000   120.0000 </r>
       <r>   -13.4056     0.0000   120.0000 </r>
       <r>   -13.1985     0.0000   120.0000 </r>
       <r>   -12.9914     0.0000   120.0000 </r>
       <r>   -12.7843     0.0000   120.0000 </r>
       <r>   -12.5773     0.0000   120.0000 </r>
       <r>   -12.3702     0.0000   120.0000 </r>
       <r>   -12.1631     0.0000   120.0000 </r>
       <r>   -11.9560     0.0000   120.0000 </r>
       <r>   -11.7489     0.0000   120.0000 </r>
       <r>   -11.5418     0.0000   120.0000 </r>
       <r>   -11.3347     0.0000   120.0000 </r>
       <r>   -11.1276     0.0000   120.0000 </r>
       <r>   -10.9205     0.0000   120.0000 </r>
       <r>   -10.7134     0.0000   120.0000 </r>
       <r>   -10.5064     0.0000   120.0000 </r>
       <r>   -10.2993     0.0000   120.0000 </r>
       <r>   -10.0922     0.0000   120.0000 </r>
       <r>    -9.8851     0.0000   120.0000 </r>
       <r>    -9.6780     0.0000   120.0000 </r>
       <r>    -9.4709     0.0000   120.0000 </r>
       <r>    -9.2638     0.0000   120.0000 </r>
       <r>    -9.0567     0.0000   120.0000 </r>
       <r>    -8.8496     0.0000   120.0000 </r>
       <r>    -8.6425     0.0000   120.0000 </r>
       <r>    -8.4355     0.0000   120.0000 </r>
       <r>    -8.2284     0.0000   120.0000 </r>
       <r>    -8.0213     0.0000   120.0000 </r>
       <r>    -7.8142     0.0000   120.0000 </r>
       <r>    -7.6071     0.0000   120.0000 </r>
       <r>    -7.4000     0.0000   120.0000 </r>
       <r>    -7.1929     0.0000   120.0000 </r>
       <r>    -6.9858     0.0000   120.0000 </r>
       <r>    -6.7787     0.0000   120.0000 </r>
       <r>    -6.5716     0.0000   120.0000 </r>
       <r>    -6.3646     0.0000   120.0000 </r>
       <r>    -6.1575     0.0000   120.0000 </r>
       <r>    -5.9504     0.0000   120.0000 </r>
       <r>    -5.7433     0.0000   120.0000 </r>
       <r>    -5.5362     0.0000   120.0000 </r>
       <r>    -5.3291     0.0000   120.0000 </r>
       <r>    -5.1220     0.0000   120.0000 </r>
       <r>    -4.9149     0.0000   120.0000 </r>
       <r>    -4.7078     0.0000   120.0000 </r>
       <r>    -4.5007     0.0000   120.0000 </r>
       <r>    -4.2937     0.0000   120.0000 </r>
       <r>    -4.0866     0.0000   120.0000 </r>
       <r>    -3.8795     0.0000   120.0000 </r>
       <r>    -3.6724     0.0000   120.0000 </r>
       <r>    -3.4653     0.0000   120.0000 </r>
       <r>    -3.2582     0.0000   120.0000 </r>
       <r>    -3.0511     0.0000   120.0000 </r>
       <r>    -2.8440     0.0000   120.0000 </r>
       <r>    -2.6369     0.0000   120.0000 </r>
       <r>    -2.4298     0.0000   120.0000 </r>
       <r>    -2.2228     0.0000   120.0000 </r>
       <r>    -2.0157     0.0000   120.0000 </r>
       <r>    -1.8086     0.0000   120.0000 </r>
       <r>    -1.6015     0.0000   120.0000 </r>
       <r>    -1.3944     0.0000   120.0000 </r>
       <r>    -1.1873     0.0000   120.0000 </r>
       <r>    -0.9802     0.0000   120.0000 </r>
       <r>    -0.7731    -0.0000   120.0000 </r>
       <r>    -0.5660    -0.0000   120.0000 </r>
       <r>    -0.3589    -0.0000   120.0000 </r>
       <r>    -0.1519    -0.0000   120.0000 </r>
       <r>     0.0552    -0.0001   120.0000 </r>
       <r>     0.2623    -0.0102   119.9979 </r>
       <r>     0.4694     0.1303   120.0249 </r>
       <r>     0.6765     0.5994   120.1490 </r>
       <r>     0.8836     1.3884   120.4365 </r>
       <r>     1.0907     1.8670   120.8232 </r>
       <r>     1.2978     2.7152   121.3855 </r>
       <r>     1.5049     4.7193   122.3628 </r>
       <r>     1.7120     1.9570   122.7680 </r>
       <r>     1.9190     4.7952   123.7611 </r>
       <r>     2.1261     3.4742   124.4806 </r>
       <r>     2.3332     3.3886   125.1823 </r>
       <r>     2.5403     7.0141   126.6349 </r>
       <r>     2.7474     7.8372   128.2579 </r>
       <r>     2.9545     8.0263   129.9200 </r>
       <r>     3.1616     8.2046   131.6191 </r>
       <r>     3.3687     8.4957   133.3785 </r>
       <r>     3.5758    13.0492   136.0809 </r>
       <r>     3.7829    19.1099   140.0383 </r>
       <r>     3.9899    21.1106   144.4101 </r>
       <r>     4.1970    26.1302   149.8214 </r>
       <r>     4.4041    32.1453   156.4784 </r>
       <r>     4.6112    33.7524   163.4682 </r>
       <r>     4.8183    36.5564   171.0387 </r>
       <r>     5.0254    38.1786   178.9451 </r>
       <r>     5.2325    35.8693   186.3733 </r>
       <r>     5.4396    31.9516   192.9901 </r>
       <r>     5.6467    30.8078   199.3701 </r>
       <r>     5.8538    15.2544   202.5291 </r>
       <r>     6.0608    48.3977   212.5518 </r>
       <r>     6.2679    61.8972   225.3701 </r>
       <r>     6.4750    57.4064   237.2584 </r>
       <r>     6.6821    51.4327   247.9096 </r>
       <r>     6.8892    54.6243   259.2218 </r>
       <r>     7.0963    58.1909   271.2725 </r>
       <r>     7.3034    49.5257   281.5288 </r>
       <r>     7.5105    43.7360   290.5861 </r>
       <r>     7.7176    51.4810   301.2473 </r>
       <r>     7.9247    43.0310   310.1586 </r>
       <r>     8.1317    35.6698   317.5454 </r>
       <r>     8.3388    28.7127   323.4915 </r>
       <r>     8.5459    20.7930   327.7976 </r>
       <r>     8.7530    16.2003   331.1525 </r>
       <r>     8.9601    14.2920   334.1122 </r>
       <r>     9.1672    23.5085   338.9806 </r>
       <r>     9.3743    19.4485   343.0082 </r>
       <r>     9.5814     5.0776   344.0597 </r>
       <r>     9.7885    -0.2802   344.0017 </r>
       <r>     9.9956    -0.0081   344.0000 </r>
       <r>    10.2027    -0.0000   344.0000 </r>
       <r>    10.4097    -0.0000   344.0000 </r>
       <r>    10.6168     0.0000   344.0000 </r>
       <r>    10.8239     0.0000   344.0000 </r>
       <r>    11.0310     0.0000   344.0000 </r>
       <r>    11.2381     0.0000   344.0000 </r>
       <r>    11.4452     0.0000   344.0000 </r>
       <r>    11.6523     0.0000   344.0000 </r>
       <r>    11.8594     0.0000   344.0000 </r>
       <r>    12.0665     0.0000   344.0000 </r>
       <r>    12.2736     0.0000   344.0000 </r>
      </set>
     </set>
    </array>
   </total>
  </dos>
 </calculation>
 <structure name="finalpos" >
  <crystal>
   <varray name="basis" >
    <v>       6.95293030       0.00616037      -0.03053223 </v>
    <v>       0.00931723      10.25057184       0.01826740 </v>
    <v>      -0.04554670       0.01839222      10.18436100 </v>
   </varray>
   <i name="volume">    725.83761724 </i>
   <varray name="rec_basis" >
    <v>       0.14382719      -0.00013188       0.00064347 </v>
    <v>      -0.00008721       0.09755593      -0.00017657 </v>
    <v>       0.00043134      -0.00017538       0.09819201 </v>
   </varray>
  </crystal>
  <varray name="positions" >
   <v>       0.49962187       0.34250743       0.34297483 </v>
   <v>       0.73331012       0.83121796       0.83575642 </v>
   <v>       0.73784465       0.83825120       0.15575459 </v>
   <v>       0.99848386       0.98256433       0.31566728 </v>
   <v>       0.27945522       0.48653202       0.15504349 </v>
   <v>       0.26366488       0.84066836       0.15045828 </v>
   <v>       0.51569714       0.00060117       0.66274253 </v>
   <v>       0.72831115       0.49287921       0.16500866 </v>
   <v>       0.75691337       0.15924598       0.48051297 </v>
   <v>       0.50360506       0.66768318       0.00140840 </v>
   <v>       0.50255919       0.66812987       0.68219517 </v>
   <v>       0.24784807       0.51092571       0.51475529 </v>
   <v>       0.27869864       0.16676902       0.83221563 </v>
   <v>       0.99148885       0.00254583       0.99578130 </v>
   <v>       0.97994671       0.32437241       0.67179276 </v>
   <v>       0.74308756       0.16762343       0.17763431 </v>
   <v>       0.97733560       0.01125403       0.68325901 </v>
   <v>       0.01330295       0.66715463       0.31377722 </v>
   <v>       0.49824445       0.98691147       0.33727934 </v>
   <v>       0.51859785       0.33266673       0.65015246 </v>
   <v>       0.98005625       0.33106945       0.99354205 </v>
   <v>       0.00954426       0.35092510       0.33073716 </v>
   <v>       0.49193936       0.66612136       0.32549853 </v>
   <v>       0.23921524       0.16036270       0.49537072 </v>
   <v>       0.99788037       0.66602862       0.00539548 </v>
   <v>       0.76659247       0.51926609       0.50549740 </v>
   <v>       0.76282249       0.82687385       0.50831611 </v>
   <v>       0.25584243       0.49554771       0.83082944 </v>
   <v>       0.25744146       0.16831939       0.16518116 </v>
   <v>       0.24121821       0.82645105       0.51518467 </v>
   <v>       0.71039010       0.16190313       0.84160546 </v>
   <v>       0.99834337       0.67029277       0.69119421 </v>
   <v>       0.26075898       0.83501526       0.83426588 </v>
   <v>       0.51778345       0.34100107       0.00047909 </v>
   <v>       0.73907217       0.51039130       0.83479935 </v>
   <v>       0.50307020       0.98993617       0.99793433 </v>
  </varray>
 </structure>
</modeling>
