       N       E                     dE             d eps       ncg     rms          rms(c)
DAV:   1     0.187530127946E+04    0.18753E+04   -0.11159E+05  5512   0.105E+03
DAV:   2    -0.115860174994E+03   -0.19912E+04   -0.19220E+04  5844   0.391E+02
DAV:   3    -0.361099342111E+03   -0.24524E+03   -0.23281E+03  8520   0.945E+01
DAV:   4    -0.388093211166E+03   -0.26994E+02   -0.25649E+02  8384   0.294E+01
DAV:   5    -0.390752107091E+03   -0.26589E+01   -0.26180E+01  8040   0.941E+00    0.682E+01
RMM:   6    -0.380166942932E+03    0.10585E+02   -0.22613E+01  7030   0.106E+01    0.326E+01
RMM:   7    -0.383735487709E+03   -0.35685E+01   -0.29715E+01  7399   0.785E+00    0.133E+01
RMM:   8    -0.375864057093E+03    0.78714E+01   -0.78909E+00  7388   0.406E+00    0.442E+00
RMM:   9    -0.375586198848E+03    0.27786E+00   -0.22970E+00  7717   0.193E+00    0.309E+00
RMM:  10    -0.375553988839E+03    0.32210E-01   -0.54655E-01  7751   0.118E+00    0.155E+00
RMM:  11    -0.375522542855E+03    0.31446E-01   -0.16748E-01  7654   0.719E-01    0.690E-01
RMM:  12    -0.375517021702E+03    0.55212E-02   -0.57256E-02  7866   0.319E-01    0.431E-01
RMM:  13    -0.375514378051E+03    0.26437E-02   -0.18007E-02  7723   0.182E-01    0.250E-01
RMM:  14    -0.375514169064E+03    0.20899E-03   -0.53460E-03  7863   0.104E-01    0.129E-01
RMM:  15    -0.375514292235E+03   -0.12317E-03   -0.27018E-03  7951   0.702E-02    0.638E-02
RMM:  16    -0.375514317097E+03   -0.24862E-04   -0.10846E-03  6969   0.363E-02    0.372E-02
RMM:  17    -0.375514321213E+03   -0.41153E-05   -0.42881E-04  6295   0.245E-02    0.206E-02
RMM:  18    -0.375514326752E+03   -0.55393E-05   -0.20809E-04  6015   0.176E-02    0.107E-02
RMM:  19    -0.375514327900E+03   -0.11478E-05   -0.75584E-05  4333   0.124E-02
   1 F= -.37551433E+03 E0= -.37551565E+03  d E =-.375514E+03
       N       E                     dE             d eps       ncg     rms          rms(c)
DAV:   1    -0.375594159807E+03   -0.79833E-01   -0.24789E+00  5952   0.507E+00    0.180E+00
RMM:   2    -0.375577906038E+03    0.16254E-01   -0.24579E-01  7352   0.129E+00    0.679E-01
RMM:   3    -0.375565148916E+03    0.12757E-01   -0.57554E-02  7830   0.404E-01    0.511E-01
RMM:   4    -0.375558802840E+03    0.63461E-02   -0.17120E-02  7818   0.250E-01    0.263E-01
RMM:   5    -0.375557448359E+03    0.13545E-02   -0.53656E-03  7798   0.151E-01    0.189E-01
RMM:   6    -0.375557500647E+03   -0.52288E-04   -0.20926E-03  7992   0.709E-02    0.134E-01
RMM:   7    -0.375557498358E+03    0.22891E-05   -0.75300E-04  7466   0.516E-02    0.720E-02
RMM:   8    -0.375557532103E+03   -0.33745E-04   -0.50928E-04  7004   0.333E-02    0.506E-02
RMM:   9    -0.375557552407E+03   -0.20304E-04   -0.20355E-04  6535   0.246E-02    0.331E-02
RMM:  10    -0.375557564132E+03   -0.11726E-04   -0.11061E-04  5118   0.177E-02    0.213E-02
RMM:  11    -0.375557562601E+03    0.15311E-05   -0.63179E-05  4523   0.153E-02
   2 F= -.37555756E+03 E0= -.37555942E+03  d E =-.432347E-01
       N       E                     dE             d eps       ncg     rms          rms(c)
DAV:   1    -0.375764419630E+03   -0.20686E+00   -0.11367E+01  5720   0.108E+01    0.379E+00
RMM:   2    -0.375690297764E+03    0.74122E-01   -0.11176E+00  7410   0.274E+00    0.146E+00
RMM:   3    -0.375628122965E+03    0.62175E-01   -0.25693E-01  7877   0.852E-01    0.108E+00
RMM:   4    -0.375600583035E+03    0.27540E-01   -0.78936E-02  7830   0.534E-01    0.563E-01
RMM:   5    -0.375594165184E+03    0.64179E-02   -0.24435E-02  7809   0.321E-01    0.397E-01
RMM:   6    -0.375594486887E+03   -0.32170E-03   -0.95006E-03  8068   0.150E-01    0.285E-01
RMM:   7    -0.375594615782E+03   -0.12889E-03   -0.35599E-03  8289   0.108E-01    0.155E-01
RMM:   8    -0.375594825476E+03   -0.20969E-03   -0.22869E-03  8290   0.670E-02    0.111E-01
RMM:   9    -0.375594966872E+03   -0.14140E-03   -0.83253E-04  7458   0.477E-02    0.711E-02
RMM:  10    -0.375595070412E+03   -0.10354E-03   -0.53670E-04  7138   0.339E-02    0.468E-02
RMM:  11    -0.375595094311E+03   -0.23898E-04   -0.25710E-04  6538   0.267E-02    0.195E-02
RMM:  12    -0.375595090497E+03    0.38136E-05   -0.10557E-04  5380   0.174E-02    0.105E-02
RMM:  13    -0.375595089304E+03    0.11928E-05   -0.36820E-05  4434   0.131E-02
   3 F= -.37559509E+03 E0= -.37559797E+03  d E =-.807614E-01
       N       E                     dE             d eps       ncg     rms          rms(c)
DAV:   1    -0.375630883090E+03   -0.35793E-01   -0.19118E+00  5288   0.364E+00    0.742E-01
RMM:   2    -0.375631508277E+03   -0.62519E-03   -0.89967E-02  7050   0.776E-01    0.320E-01
RMM:   3    -0.375629474183E+03    0.20341E-02   -0.13866E-02  7495   0.240E-01    0.236E-01
RMM:   4    -0.375628526302E+03    0.94788E-03   -0.36288E-03  7735   0.104E-01    0.136E-01
RMM:   5    -0.375628296539E+03    0.22976E-03   -0.15848E-03  7764   0.711E-02    0.841E-02
RMM:   6    -0.375628299601E+03   -0.30623E-05   -0.58875E-04  7712   0.399E-02    0.541E-02
RMM:   7    -0.375628314748E+03   -0.15147E-04   -0.22638E-04  6815   0.251E-02    0.322E-02
RMM:   8    -0.375628331662E+03   -0.16914E-04   -0.98156E-05  5912   0.158E-02    0.195E-02
RMM:   9    -0.375628341038E+03   -0.93763E-05   -0.51277E-05  4343   0.135E-02
   4 F= -.37562834E+03 E0= -.37563158E+03  d E =-.332517E-01
       N       E                     dE             d eps       ncg     rms          rms(c)
DAV:   1    -0.375706000914E+03   -0.77669E-01   -0.17210E+01  5224   0.109E+01    0.224E+00
RMM:   2    -0.375710981014E+03   -0.49801E-02   -0.78972E-01  6997   0.228E+00    0.958E-01
RMM:   3    -0.375692079722E+03    0.18901E-01   -0.12251E-01  7484   0.722E-01    0.700E-01
RMM:   4    -0.375683627247E+03    0.84525E-02   -0.33063E-02  7770   0.311E-01    0.399E-01
RMM:   5    -0.375681727495E+03    0.18998E-02   -0.14329E-02  7855   0.210E-01    0.248E-01
RMM:   6    -0.375681739266E+03   -0.11771E-04   -0.50044E-03  8165   0.117E-01    0.161E-01
RMM:   7    -0.375681847761E+03   -0.10849E-03   -0.20586E-03  8449   0.717E-02    0.966E-02
RMM:   8    -0.375681967516E+03   -0.11976E-03   -0.93048E-04  7982   0.426E-02    0.615E-02
RMM:   9    -0.375682016502E+03   -0.48986E-04   -0.41502E-04  7218   0.323E-02    0.425E-02
RMM:  10    -0.375682056412E+03   -0.39910E-04   -0.18450E-04  6478   0.213E-02    0.279E-02
RMM:  11    -0.375682076631E+03   -0.20219E-04   -0.80125E-05  5099   0.171E-02    0.108E-02
RMM:  12    -0.375682082513E+03   -0.58819E-05   -0.30802E-05  4160   0.124E-02
   5 F= -.37568208E+03 E0= -.37568605E+03  d E =-.869932E-01
       N       E                     dE             d eps       ncg     rms          rms(c)
DAV:   1    -0.375685713592E+03   -0.36370E-02   -0.10798E+00  5440   0.273E+00    0.565E-01
RMM:   2    -0.375685960901E+03   -0.24731E-03   -0.50514E-02  7001   0.585E-01    0.240E-01
RMM:   3    -0.375684833857E+03    0.11270E-02   -0.79498E-03  7466   0.184E-01    0.175E-01
RMM:   4    -0.375684311254E+03    0.52260E-03   -0.21653E-03  7827   0.798E-02    0.983E-02
RMM:   5    -0.375684209358E+03    0.10190E-03   -0.93006E-04  7761   0.538E-02    0.610E-02
RMM:   6    -0.375684223360E+03   -0.14002E-04   -0.33428E-04  7397   0.301E-02    0.405E-02
RMM:   7    -0.375684239798E+03   -0.16438E-04   -0.12859E-04  6176   0.192E-02    0.247E-02
RMM:   8    -0.375684253971E+03   -0.14173E-04   -0.57077E-05  4449   0.135E-02    0.147E-02
RMM:   9    -0.375684261738E+03   -0.77669E-05   -0.35281E-05  4105   0.122E-02
   6 F= -.37568426E+03 E0= -.37568830E+03  d E =-.891724E-01
       N       E                     dE             d eps       ncg     rms          rms(c)
DAV:   1    -0.375690093250E+03   -0.58393E-02   -0.40833E-01  5312   0.174E+00    0.162E-01
RMM:   2    -0.375691346865E+03   -0.12536E-02   -0.14445E-02  6732   0.345E-01    0.996E-02
RMM:   3    -0.375690971259E+03    0.37561E-03   -0.18286E-03  7497   0.970E-02    0.699E-02
RMM:   4    -0.375690934465E+03    0.36794E-04   -0.40890E-04  7153   0.300E-02    0.444E-02
RMM:   5    -0.375690927184E+03    0.72809E-05   -0.14519E-04  6582   0.200E-02    0.240E-02
RMM:   6    -0.375690923932E+03    0.32518E-05   -0.59887E-05  5164   0.133E-02
   7 F= -.37569092E+03 E0= -.37569496E+03  d E =-.666219E-02
       N       E                     dE             d eps       ncg     rms          rms(c)
DAV:   1    -0.375698349709E+03   -0.74225E-02   -0.36743E+00  5040   0.522E+00    0.490E-01
RMM:   2    -0.375709593529E+03   -0.11244E-01   -0.12981E-01  6612   0.104E+00    0.296E-01
RMM:   3    -0.375706342715E+03    0.32508E-02   -0.16659E-02  7556   0.293E-01    0.211E-01
RMM:   4    -0.375706011546E+03    0.33117E-03   -0.35941E-03  8220   0.878E-02    0.134E-01
RMM:   5    -0.375705957028E+03    0.54517E-04   -0.13133E-03  7767   0.605E-02    0.744E-02
RMM:   6    -0.375705926558E+03    0.30471E-04   -0.57029E-04  7700   0.405E-02    0.357E-02
RMM:   7    -0.375705905729E+03    0.20829E-04   -0.21087E-04  6876   0.196E-02    0.201E-02
RMM:   8    -0.375705904366E+03    0.13631E-05   -0.61893E-05  4372   0.141E-02
   8 F= -.37570590E+03 E0= -.37570994E+03  d E =-.216426E-01
       N       E                     dE             d eps       ncg     rms          rms(c)
DAV:   1    -0.375682350513E+03    0.23555E-01   -0.14702E+01  5040   0.104E+01    0.996E-01
RMM:   2    -0.375727317452E+03   -0.44967E-01   -0.52112E-01  6576   0.209E+00    0.589E-01
RMM:   3    -0.375714961052E+03    0.12356E-01   -0.67777E-02  7587   0.590E-01    0.434E-01
RMM:   4    -0.375713532394E+03    0.14287E-02   -0.14193E-02  8378   0.175E-01    0.277E-01
RMM:   5    -0.375713334764E+03    0.19763E-03   -0.51814E-03  7830   0.120E-01    0.156E-01
RMM:   6    -0.375713185399E+03    0.14937E-03   -0.23217E-03  7822   0.832E-02    0.727E-02
RMM:   7    -0.375713103228E+03    0.82170E-04   -0.87709E-04  8097   0.397E-02    0.402E-02
RMM:   8    -0.375713104545E+03   -0.13167E-05   -0.30240E-04  6912   0.225E-02    0.271E-02
RMM:   9    -0.375713104255E+03    0.28960E-06   -0.11935E-04  5842   0.176E-02    0.127E-02
RMM:  10    -0.375713103920E+03    0.33530E-06   -0.39931E-05  3989   0.116E-02
   9 F= -.37571310E+03 E0= -.37571705E+03  d E =-.288422E-01
       N       E                     dE             d eps       ncg     rms          rms(c)
DAV:   1    -0.375711857615E+03    0.12466E-02   -0.12081E+00  5064   0.299E+00    0.271E-01
RMM:   2    -0.375715438697E+03   -0.35811E-02   -0.41927E-02  6436   0.590E-01    0.165E-01
RMM:   3    -0.375714338722E+03    0.11000E-02   -0.51300E-03  7538   0.169E-01    0.115E-01
RMM:   4    -0.375714228339E+03    0.11038E-03   -0.10978E-03  8013   0.491E-02    0.718E-02
RMM:   5    -0.375714206548E+03    0.21791E-04   -0.39518E-04  7355   0.345E-02    0.392E-02
RMM:   6    -0.375714201373E+03    0.51746E-05   -0.16462E-04  7021   0.217E-02    0.200E-02
RMM:   7    -0.375714196134E+03    0.52393E-05   -0.49160E-05  4389   0.121E-02
  10 F= -.37571420E+03 E0= -.37571818E+03  d E =-.299344E-01
       N       E                     dE             d eps       ncg     rms          rms(c)
DAV:   1    -0.375716638967E+03   -0.24376E-02   -0.66919E-01  5096   0.233E+00    0.277E-01
RMM:   2    -0.375718081208E+03   -0.14422E-02   -0.26577E-02  7325   0.470E-01    0.131E-01
RMM:   3    -0.375717826247E+03    0.25496E-03   -0.28315E-03  7512   0.121E-01    0.994E-02
RMM:   4    -0.375717705553E+03    0.12069E-03   -0.73296E-04  7785   0.450E-02    0.605E-02
RMM:   5    -0.375717681863E+03    0.23690E-04   -0.32315E-04  7779   0.322E-02    0.368E-02
RMM:   6    -0.375717678133E+03    0.37298E-05   -0.12208E-04  6625   0.199E-02    0.212E-02
RMM:   7    -0.375717680683E+03   -0.25501E-05   -0.42640E-05  4056   0.129E-02
  11 F= -.37571768E+03 E0= -.37572160E+03  d E =-.348455E-02
       N       E                     dE             d eps       ncg     rms          rms(c)
DAV:   1    -0.375714699119E+03    0.29790E-02   -0.42851E+00  5040   0.590E+00    0.713E-01
RMM:   2    -0.375723905730E+03   -0.92066E-02   -0.17145E-01  7379   0.119E+00    0.341E-01
RMM:   3    -0.375722240571E+03    0.16652E-02   -0.18774E-02  7538   0.304E-01    0.254E-01
RMM:   4    -0.375721436198E+03    0.80437E-03   -0.49774E-03  7844   0.116E-01    0.154E-01
RMM:   5    -0.375721274711E+03    0.16149E-03   -0.21838E-03  7991   0.831E-02    0.933E-02
RMM:   6    -0.375721239213E+03    0.35498E-04   -0.84450E-04  8058   0.499E-02    0.545E-02
RMM:   7    -0.375721250510E+03   -0.11297E-04   -0.32369E-04  7217   0.277E-02    0.358E-02
RMM:   8    -0.375721265453E+03   -0.14943E-04   -0.11127E-04  5881   0.181E-02    0.230E-02
RMM:   9    -0.375721276785E+03   -0.11332E-04   -0.68634E-05  4880   0.153E-02    0.138E-02
RMM:  10    -0.375721284630E+03   -0.78448E-05   -0.31808E-05  4241   0.134E-02
  12 F= -.37572128E+03 E0= -.37572500E+03  d E =-.708850E-02
       N       E                     dE             d eps       ncg     rms          rms(c)
DAV:   1    -0.375726745856E+03   -0.54691E-02   -0.52045E-01  5768   0.226E+00    0.630E-01
RMM:   2    -0.375725130053E+03    0.16158E-02   -0.39714E-02  7098   0.533E-01    0.239E-01
RMM:   3    -0.375723779846E+03    0.13502E-02   -0.74870E-03  7705   0.173E-01    0.174E-01
RMM:   4    -0.375723071106E+03    0.70874E-03   -0.22919E-03  7820   0.917E-02    0.933E-02
RMM:   5    -0.375722905000E+03    0.16611E-03   -0.75704E-04  7677   0.556E-02    0.665E-02
RMM:   6    -0.375722900919E+03    0.40813E-05   -0.30000E-04  7057   0.283E-02    0.445E-02
RMM:   7    -0.375722888474E+03    0.12444E-04   -0.10354E-04  6123   0.188E-02    0.225E-02
RMM:   8    -0.375722887338E+03    0.11366E-05   -0.61675E-05  4403   0.145E-02
  13 F= -.37572289E+03 E0= -.37572659E+03  d E =-.160271E-02
       N       E                     dE             d eps       ncg     rms          rms(c)
DAV:   1    -0.375724303444E+03   -0.14150E-02   -0.19923E-01  5744   0.140E+00    0.384E-01
RMM:   2    -0.375723693169E+03    0.61027E-03   -0.14948E-02  6841   0.329E-01    0.144E-01
RMM:   3    -0.375723173558E+03    0.51961E-03   -0.27235E-03  7619   0.107E-01    0.102E-01
RMM:   4    -0.375722921105E+03    0.25245E-03   -0.84489E-04  7779   0.555E-02    0.561E-02
RMM:   5    -0.375722865304E+03    0.55801E-04   -0.27616E-04  7352   0.335E-02    0.414E-02
RMM:   6    -0.375722863955E+03    0.13486E-05   -0.10866E-04  6137   0.180E-02    0.293E-02
RMM:   7    -0.375722858201E+03    0.57538E-05   -0.38622E-05  3977   0.126E-02
  14 F= -.37572286E+03 E0= -.37572654E+03  d E =-.157357E-02
       N       E                     dE             d eps       ncg     rms          rms(c)
DAV:   1    -0.375723190889E+03   -0.32693E-03   -0.31668E-02  5824   0.556E-01    0.159E-01
RMM:   2    -0.375723086506E+03    0.10438E-03   -0.24887E-03  7229   0.132E-01    0.627E-02
RMM:   3    -0.375723005793E+03    0.80713E-04   -0.49779E-04  7634   0.437E-02    0.465E-02
RMM:   4    -0.375722957825E+03    0.47968E-04   -0.14349E-04  6904   0.232E-02    0.245E-02
RMM:   5    -0.375722944856E+03    0.12970E-04   -0.36224E-05  3596   0.157E-02    0.171E-02
RMM:   6    -0.375722946379E+03   -0.15232E-05   -0.14565E-05  2858   0.103E-02
  15 F= -.37572295E+03 E0= -.37572664E+03  d E =-.166175E-02
       N       E                     dE             d eps       ncg     rms          rms(c)
DAV:   1    -0.375722998662E+03   -0.53807E-04   -0.76984E-03  5616   0.275E-01    0.730E-02
RMM:   2    -0.375722976891E+03    0.21771E-04   -0.57019E-04  6961   0.651E-02    0.278E-02
RMM:   3    -0.375722958986E+03    0.17906E-04   -0.88038E-05  6040   0.207E-02    0.207E-02
RMM:   4    -0.375722950714E+03    0.82712E-05   -0.21671E-05  2939   0.130E-02
  16 F= -.37572295E+03 E0= -.37572665E+03  d E =-.166608E-02
       N       E                     dE             d eps       ncg     rms          rms(c)
DAV:   1    -0.375723424336E+03   -0.46535E-03   -0.79002E-02  5120   0.750E-01    0.621E-02
RMM:   2    -0.375723594655E+03   -0.17032E-03   -0.23627E-03  6706   0.146E-01    0.324E-02
RMM:   3    -0.375723581571E+03    0.13084E-04   -0.28217E-04  7016   0.409E-02    0.257E-02
RMM:   4    -0.375723573648E+03    0.79227E-05   -0.64902E-05  5203   0.136E-02
  17 F= -.37572357E+03 E0= -.37572729E+03  d E =-.622934E-03
       N       E                     dE             d eps       ncg     rms          rms(c)
DAV:   1    -0.375723595239E+03   -0.13668E-04   -0.71082E-01  5040   0.225E+00    0.184E-01
RMM:   2    -0.375725131396E+03   -0.15362E-02   -0.21417E-02  6963   0.438E-01    0.103E-01
RMM:   3    -0.375725045938E+03    0.85458E-04   -0.28054E-03  7595   0.118E-01    0.819E-02
RMM:   4    -0.375724960087E+03    0.85851E-04   -0.61458E-04  8090   0.389E-02    0.481E-02
RMM:   5    -0.375724955714E+03    0.43722E-05   -0.26185E-04  7475   0.285E-02    0.246E-02
RMM:   6    -0.375724953003E+03    0.27114E-05   -0.94193E-05  6255   0.168E-02
  18 F= -.37572495E+03 E0= -.37572874E+03  d E =-.200229E-02
       N       E                     dE             d eps       ncg     rms          rms(c)
DAV:   1    -0.375720042329E+03    0.49134E-02   -0.28462E+00  5040   0.451E+00    0.365E-01
RMM:   2    -0.375726250815E+03   -0.62085E-02   -0.85990E-02  6948   0.877E-01    0.203E-01
RMM:   3    -0.375725838921E+03    0.41189E-03   -0.10904E-02  7620   0.237E-01    0.159E-01
RMM:   4    -0.375725522716E+03    0.31620E-03   -0.24119E-03  8242   0.760E-02    0.950E-02
RMM:   5    -0.375725495634E+03    0.27082E-04   -0.10103E-03  7918   0.546E-02    0.506E-02
RMM:   6    -0.375725480769E+03    0.14864E-04   -0.38106E-04  7915   0.333E-02    0.230E-02
RMM:   7    -0.375725480983E+03   -0.21376E-06   -0.10795E-04  5231   0.163E-02    0.149E-02
RMM:   8    -0.375725486373E+03   -0.53901E-05   -0.67899E-05  4455   0.145E-02
  19 F= -.37572549E+03 E0= -.37572942E+03  d E =-.253566E-02
       N       E                     dE             d eps       ncg     rms          rms(c)
DAV:   1    -0.375724956312E+03    0.52467E-03   -0.38686E-01  5064   0.167E+00    0.135E-01
RMM:   2    -0.375725775585E+03   -0.81927E-03   -0.11429E-02  6593   0.322E-01    0.726E-02
RMM:   3    -0.375725705594E+03    0.69991E-04   -0.13710E-03  7526   0.891E-02    0.584E-02
RMM:   4    -0.375725654809E+03    0.50785E-04   -0.28629E-04  7362   0.269E-02    0.344E-02
RMM:   5    -0.375725648438E+03    0.63711E-05   -0.11792E-04  6558   0.176E-02    0.184E-02
RMM:   6    -0.375725643696E+03    0.47412E-05   -0.36492E-05  4155   0.124E-02
  20 F= -.37572564E+03 E0= -.37572953E+03  d E =-.269298E-02
       N       E                     dE             d eps       ncg     rms          rms(c)
DAV:   1    -0.375725866449E+03   -0.21801E-03   -0.20753E-01  5080   0.132E+00    0.150E-01
RMM:   2    -0.375726458143E+03   -0.59169E-03   -0.89470E-03  7174   0.264E-01    0.724E-02
RMM:   3    -0.375726320239E+03    0.13790E-03   -0.86946E-04  7295   0.727E-02    0.557E-02
RMM:   4    -0.375726281867E+03    0.38372E-04   -0.22998E-04  7105   0.251E-02    0.343E-02
RMM:   5    -0.375726270776E+03    0.11091E-04   -0.88780E-05  6151   0.165E-02    0.222E-02
RMM:   6    -0.375726263127E+03    0.76484E-05   -0.32685E-05  3648   0.122E-02
  21 F= -.37572626E+03 E0= -.37573019E+03  d E =-.619431E-03
       N       E                     dE             d eps       ncg     rms          rms(c)
DAV:   1    -0.375725584116E+03    0.68666E-03   -0.53517E-01  5040   0.211E+00    0.241E-01
RMM:   2    -0.375727113814E+03   -0.15297E-02   -0.23283E-02  7253   0.425E-01    0.119E-01
RMM:   3    -0.375726777885E+03    0.33593E-03   -0.23928E-03  7379   0.115E-01    0.904E-02
RMM:   4    -0.375726685090E+03    0.92795E-04   -0.64839E-04  7693   0.410E-02    0.564E-02
RMM:   5    -0.375726660256E+03    0.24834E-04   -0.26115E-04  7436   0.286E-02    0.361E-02
RMM:   6    -0.375726646269E+03    0.13987E-04   -0.11408E-04  6569   0.198E-02    0.200E-02
RMM:   7    -0.375726641188E+03    0.50810E-05   -0.38379E-05  3817   0.125E-02
  22 F= -.37572664E+03 E0= -.37573063E+03  d E =-.997492E-03
       N       E                     dE             d eps       ncg     rms          rms(c)
DAV:   1    -0.375727530380E+03   -0.88411E-03   -0.17299E-01  5640   0.129E+00    0.311E-01
RMM:   2    -0.375727327260E+03    0.20312E-03   -0.12155E-02  6527   0.298E-01    0.119E-01
RMM:   3    -0.375727089102E+03    0.23816E-03   -0.19138E-03  7604   0.979E-02    0.824E-02
RMM:   4    -0.375726933385E+03    0.15572E-03   -0.58574E-04  7778   0.447E-02    0.457E-02
RMM:   5    -0.375726907649E+03    0.25736E-04   -0.18623E-04  7050   0.267E-02    0.323E-02
RMM:   6    -0.375726915463E+03   -0.78138E-05   -0.69661E-05  4830   0.148E-02
  23 F= -.37572692E+03 E0= -.37573093E+03  d E =-.274275E-03
       N       E                     dE             d eps       ncg     rms          rms(c)
DAV:   1    -0.375726937866E+03   -0.30217E-04   -0.63411E-03  5568   0.249E-01    0.542E-02
RMM:   2    -0.375726936515E+03    0.13509E-05   -0.44249E-04  6398   0.578E-02    0.215E-02
RMM:   3    -0.375726929083E+03    0.74328E-05   -0.54775E-05  4502   0.190E-02
  24 F= -.37572693E+03 E0= -.37573094E+03  d E =-.287895E-03
       N       E                     dE             d eps       ncg     rms          rms(c)
DAV:   1    -0.375726958036E+03   -0.21520E-04   -0.25461E-02  5376   0.493E-01    0.116E-01
RMM:   2    -0.375726920319E+03    0.37716E-04   -0.18447E-03  6452   0.117E-01    0.438E-02
RMM:   3    -0.375726880171E+03    0.40148E-04   -0.26466E-04  7289   0.377E-02    0.295E-02
RMM:   4    -0.375726867629E+03    0.12542E-04   -0.79229E-05  4927   0.174E-02    0.182E-02
RMM:   5    -0.375726867697E+03   -0.67132E-07   -0.19611E-05  3105   0.127E-02
  25 F= -.37572687E+03 E0= -.37573088E+03  d E =-.226509E-03
       N       E                     dE             d eps       ncg     rms          rms(c)
DAV:   1    -0.375727011930E+03   -0.14430E-03   -0.19867E-02  5620   0.436E-01    0.109E-01
RMM:   2    -0.375727003178E+03    0.87525E-05   -0.14027E-03  6389   0.100E-01    0.431E-02
RMM:   3    -0.375726973342E+03    0.29836E-04   -0.21148E-04  7118   0.330E-02    0.292E-02
RMM:   4    -0.375726951708E+03    0.21634E-04   -0.60000E-05  5326   0.161E-02    0.151E-02
RMM:   5    -0.375726945433E+03    0.62753E-05   -0.13798E-05  2680   0.116E-02
  26 F= -.37572695E+03 E0= -.37573096E+03  d E =-.304245E-03
       N       E                     dE             d eps       ncg     rms          rms(c)
DAV:   1    -0.375726947897E+03    0.38115E-05   -0.19853E-04  5800   0.457E-02    0.102E-02
RMM:   2    -0.375726946771E+03    0.11254E-05   -0.13733E-05  2683   0.114E-02
  27 F= -.37572695E+03 E0= -.37573096E+03  d E =-.305584E-03
       N       E                     dE             d eps       ncg     rms          rms(c)
DAV:   1    -0.375726945914E+03    0.19832E-05   -0.13335E-05  3160   0.143E-02    0.574E-03
RMM:   2    -0.375726945296E+03    0.61813E-06   -0.44383E-06  2608   0.780E-03
  28 F= -.37572695E+03 E0= -.37573096E+03  d E =-.304108E-03
       N       E                     dE             d eps       ncg     rms          rms(c)
DAV:   1    -0.375726928246E+03    0.17668E-04   -0.62679E-02  5072   0.709E-01    0.471E-02
RMM:   2    -0.375727110017E+03   -0.18177E-03   -0.20893E-03  6072   0.137E-01    0.257E-02
RMM:   3    -0.375727090609E+03    0.19408E-04   -0.20622E-04  6541   0.413E-02    0.209E-02
RMM:   4    -0.375727086008E+03    0.46009E-05   -0.44967E-05  4273   0.115E-02
  29 F= -.37572709E+03 E0= -.37573111E+03  d E =-.140713E-03
       N       E                     dE             d eps       ncg     rms          rms(c)
DAV:   1    -0.375726965798E+03    0.12481E-03   -0.81580E-02  5064   0.806E-01    0.544E-02
RMM:   2    -0.375727209431E+03   -0.24363E-03   -0.27883E-03  6624   0.157E-01    0.337E-02
RMM:   3    -0.375727190157E+03    0.19274E-04   -0.34325E-04  6889   0.454E-02    0.274E-02
RMM:   4    -0.375727184535E+03    0.56214E-05   -0.77272E-05  5251   0.143E-02
  30 F= -.37572718E+03 E0= -.37573122E+03  d E =-.239240E-03
       N       E                     dE             d eps       ncg     rms          rms(c)
DAV:   1    -0.375726312868E+03    0.87729E-03   -0.32624E-01  5040   0.161E+00    0.106E-01
RMM:   2    -0.375727268610E+03   -0.95574E-03   -0.10943E-02  6442   0.313E-01    0.623E-02
RMM:   3    -0.375727205201E+03    0.63409E-04   -0.13020E-03  7457   0.911E-02    0.519E-02
RMM:   4    -0.375727186169E+03    0.19032E-04   -0.27199E-04  7357   0.249E-02    0.324E-02
RMM:   5    -0.375727185717E+03    0.45175E-06   -0.10596E-04  6353   0.168E-02    0.192E-02
RMM:   6    -0.375727179379E+03    0.63382E-05   -0.34073E-05  3993   0.127E-02
  31 F= -.37572718E+03 E0= -.37573124E+03  d E =-.234083E-03
       N       E                     dE             d eps       ncg     rms          rms(c)
DAV:   1    -0.375726945418E+03    0.24030E-03   -0.11021E-01  5064   0.938E-01    0.606E-02
RMM:   2    -0.375727259018E+03   -0.31360E-03   -0.36067E-03  5815   0.181E-01    0.341E-02
RMM:   3    -0.375727223888E+03    0.35130E-04   -0.35029E-04  6965   0.550E-02    0.274E-02
RMM:   4    -0.375727216798E+03    0.70900E-05   -0.70422E-05  5300   0.140E-02
  32 F= -.37572722E+03 E0= -.37573127E+03  d E =-.271502E-03
       N       E                     dE             d eps       ncg     rms          rms(c)
DAV:   1    -0.375727387199E+03   -0.16331E-03   -0.18257E-02  5252   0.426E-01    0.106E-01
RMM:   2    -0.375727358049E+03    0.29151E-04   -0.13472E-03  7374   0.102E-01    0.400E-02
RMM:   3    -0.375727324069E+03    0.33980E-04   -0.21271E-04  7126   0.313E-02    0.293E-02
RMM:   4    -0.375727302479E+03    0.21590E-04   -0.56873E-05  5288   0.178E-02    0.155E-02
RMM:   5    -0.375727297264E+03    0.52158E-05   -0.16143E-05  2925   0.114E-02
  33 F= -.37572730E+03 E0= -.37573136E+03  d E =-.804659E-04
