<?xml version="1.0" encoding="ISO-8859-1"?>
<modeling>
 <generator>
  <i name="program" type="string">vasp </i>
  <i name="version" type="string">5.4.1  </i>
  <i name="subversion" type="string">05Feb16 (build Jan 29 2020 16:04:39) complex                          parallel </i>
  <i name="platform" type="string">IFC91_ompi </i>
  <i name="date" type="string">2020 06 15 </i>
  <i name="time" type="string">11:55:36 </i>
 </generator>
 <incar>
  <i type="string" name="SYSTEM"> automatically generated by mexm</i>
  <i type="int" name="ISTART">     0</i>
  <i type="string" name="PREC">accurate               ! avoid wrap aro</i>
  <i type="string" name="ALGO"> Fast                   ! blocked Davids</i>
  <i type="int" name="ISPIN">     1</i>
  <i type="int" name="ICHARG">     2</i>
  <i type="int" name="NELM">    70</i>
  <i type="int" name="IBRION">     2</i>
  <i name="EDIFF">      0.00001000</i>
  <i name="EDIFFG">     -0.01000000</i>
  <i type="int" name="NSW">   300</i>
  <i type="int" name="ISIF">     3</i>
  <i type="int" name="ISYM">     1</i>
  <i name="ENCUT">    300.00000000</i>
  <i name="POTIM">      0.15000000</i>
  <i type="string" name="LREAL"> Auto                  ! unpublished met</i>
  <i type="int" name="ISMEAR">     1</i>
  <i name="SIGMA">      0.15000000</i>
  <i type="logical" name="LWAVE"> F  </i>
  <i type="logical" name="LCHARG"> F  </i>
  <i type="logical" name="LVTOT"> F  </i>
  <v type="int" name="KPOINT_BSE">    -1     0     0     0</v>
  <i type="int" name="NELM">    70</i>
 </incar>
 <kpoints>
  <generation param="Gamma">
   <v type="int" name="divisions">       3        3        3 </v>
   <v name="usershift">      0.00000000       0.00000000       0.00000000 </v>
   <v name="genvec1">      0.33333333       0.00000000       0.00000000 </v>
   <v name="genvec2">     -0.00000000       0.33333333       0.00000000 </v>
   <v name="genvec3">      0.00000000       0.00000000       0.33333333 </v>
   <v name="shift">      0.00000000       0.00000000       0.00000000 </v>
  </generation>
  <varray name="kpointlist" >
   <v>       0.00000000       0.00000000       0.00000000 </v>
   <v>       0.33333333      -0.00000000       0.00000000 </v>
   <v>      -0.00000000       0.33333333       0.00000000 </v>
   <v>       0.33333333       0.33333333      -0.00000000 </v>
   <v>      -0.33333333       0.33333333       0.00000000 </v>
   <v>      -0.00000000      -0.00000000       0.33333333 </v>
   <v>       0.33333333       0.00000000       0.33333333 </v>
   <v>      -0.33333333      -0.00000000       0.33333333 </v>
   <v>      -0.00000000       0.33333333       0.33333333 </v>
   <v>       0.33333333       0.33333333       0.33333333 </v>
   <v>      -0.33333333       0.33333333       0.33333333 </v>
   <v>      -0.00000000      -0.33333333       0.33333333 </v>
   <v>       0.33333333      -0.33333333       0.33333333 </v>
   <v>      -0.33333333      -0.33333333       0.33333333 </v>
  </varray>
  <varray name="weights" >
   <v>       0.03703704 </v>
   <v>       0.07407407 </v>
   <v>       0.07407407 </v>
   <v>       0.07407407 </v>
   <v>       0.07407407 </v>
   <v>       0.07407407 </v>
   <v>       0.07407407 </v>
   <v>       0.07407407 </v>
   <v>       0.07407407 </v>
   <v>       0.07407407 </v>
   <v>       0.07407407 </v>
   <v>       0.07407407 </v>
   <v>       0.07407407 </v>
   <v>       0.07407407 </v>
  </varray>
 </kpoints>
 <parameters>
  <separator name="general" >
   <i type="string" name="SYSTEM">automatically generated by mexm</i>
   <i type="logical" name="LCOMPAT"> F  </i>
  </separator>
  <separator name="electronic" >
   <i type="string" name="PREC">accura</i>
   <i name="ENMAX">    300.00000000</i>
   <i name="ENAUG">    461.25700000</i>
   <i name="EDIFF">      0.00001000</i>
   <i type="int" name="IALGO">    68</i>
   <i type="int" name="IWAVPR">    11</i>
   <i type="int" name="NBANDS">   180</i>
   <i name="NELECT">    296.00000000</i>
   <i type="int" name="TURBO">     0</i>
   <i type="int" name="IRESTART">     0</i>
   <i type="int" name="NREBOOT">     0</i>
   <i type="int" name="NMIN">     0</i>
   <i name="EREF">      0.00000000</i>
   <separator name="electronic smearing" >
    <i type="int" name="ISMEAR">     1</i>
    <i name="SIGMA">      0.15000000</i>
    <i name="KSPACING">      0.50000000</i>
    <i type="logical" name="KGAMMA"> T  </i>
   </separator>
   <separator name="electronic projectors" >
    <i type="logical" name="LREAL"> T  </i>
    <v name="ROPT">     -0.00025000     -0.00025000     -0.00025000     -0.00025000</v>
    <i type="int" name="LMAXPAW">  -100</i>
    <i type="int" name="LMAXMIX">     2</i>
    <i type="logical" name="NLSPLINE"> F  </i>
   </separator>
   <separator name="electronic startup" >
    <i type="int" name="ISTART">     0</i>
    <i type="int" name="ICHARG">     2</i>
    <i type="int" name="INIWAV">     1</i>
   </separator>
   <separator name="electronic spin" >
    <i type="int" name="ISPIN">     1</i>
    <i type="logical" name="LNONCOLLINEAR"> F  </i>
    <v name="MAGMOM">      1.00000000      1.00000000      1.00000000      1.00000000      1.00000000      1.00000000      1.00000000      1.00000000      1.00000000      1.00000000      1.00000000      1.00000000      1.00000000      1.00000000      1.00000000      1.00000000      1.00000000      1.00000000      1.00000000      1.00000000
      1.00000000      1.00000000      1.00000000      1.00000000      1.00000000      1.00000000      1.00000000      1.00000000      1.00000000      1.00000000      1.00000000      1.00000000      1.00000000      1.00000000      1.00000000      1.00000000</v>
    <i name="NUPDOWN">     -1.00000000</i>
    <i type="logical" name="LSORBIT"> F  </i>
    <v name="SAXIS">      0.00000000      0.00000000      1.00000000</v>
    <i type="logical" name="LSPIRAL"> F  </i>
    <v name="QSPIRAL">      0.00000000      0.00000000      0.00000000</v>
    <i type="logical" name="LZEROZ"> F  </i>
   </separator>
   <separator name="electronic exchange-correlation" >
    <i type="logical" name="LASPH"> F  </i>
    <i type="logical" name="LMETAGGA"> F  </i>
   </separator>
   <separator name="electronic convergence" >
    <i type="int" name="NELM">    70</i>
    <i type="int" name="NELMDL">    -5</i>
    <i type="int" name="NELMIN">     2</i>
    <i name="ENINI">    300.00000000</i>
    <separator name="electronic convergence detail" >
     <i type="logical" name="LDIAG"> T  </i>
     <i type="logical" name="LSUBROT"> F  </i>
     <i name="WEIMIN">      0.00100000</i>
     <i name="EBREAK">      0.00000001</i>
     <i name="DEPER">      0.30000000</i>
     <i type="int" name="NRMM">     4</i>
     <i name="TIME">      0.40000000</i>
    </separator>
   </separator>
   <separator name="electronic mixer" >
    <i name="AMIX">      0.40000000</i>
    <i name="BMIX">      1.00000000</i>
    <i name="AMIN">      0.10000000</i>
    <i name="AMIX_MAG">      1.60000000</i>
    <i name="BMIX_MAG">      1.00000000</i>
    <separator name="electronic mixer details" >
     <i type="int" name="IMIX">     4</i>
     <i type="logical" name="MIXFIRST"> F  </i>
     <i type="int" name="MAXMIX">   -45</i>
     <i name="WC">    100.00000000</i>
     <i type="int" name="INIMIX">     1</i>
     <i type="int" name="MIXPRE">     1</i>
     <i type="int" name="MREMOVE">     5</i>
    </separator>
   </separator>
   <separator name="electronic dipolcorrection" >
    <i type="logical" name="LDIPOL"> F  </i>
    <i type="logical" name="LMONO"> F  </i>
    <i type="int" name="IDIPOL">     0</i>
    <i name="EPSILON">      1.00000000</i>
    <v name="DIPOL">   -100.00000000   -100.00000000   -100.00000000</v>
    <i name="EFIELD">      0.00000000</i>
   </separator>
  </separator>
  <separator name="grids" >
   <i type="int" name="NGX">    40</i>
   <i type="int" name="NGY">    60</i>
   <i type="int" name="NGZ">    60</i>
   <i type="int" name="NGXF">    80</i>
   <i type="int" name="NGYF">   120</i>
   <i type="int" name="NGZF">   120</i>
   <i type="logical" name="ADDGRID"> F  </i>
  </separator>
  <separator name="ionic" >
   <i type="int" name="NSW">   300</i>
   <i type="int" name="IBRION">     2</i>
   <i type="int" name="ISIF">     3</i>
   <i name="PSTRESS">      0.00000000</i>
   <i name="EDIFFG">     -0.01000000</i>
   <i type="int" name="NFREE">     1</i>
   <i name="POTIM">      0.15000000</i>
   <i name="SMASS">     -3.00000000</i>
   <i name="SCALEE">      1.00000000</i>
  </separator>
  <separator name="ionic md" >
   <i name="TEBEG">      0.00010000</i>
   <i name="TEEND">      0.00010000</i>
   <i type="int" name="NBLOCK">     1</i>
   <i type="int" name="KBLOCK">   300</i>
   <i type="int" name="NPACO">   256</i>
   <i name="APACO">     16.00000000</i>
  </separator>
  <separator name="symmetry" >
   <i type="int" name="ISYM">     1</i>
   <i name="SYMPREC">      0.00001000</i>
  </separator>
  <separator name="dos" >
   <i type="logical" name="LORBIT"> F  </i>
   <v name="RWIGS">     -1.00000000     -1.00000000     -1.00000000     -1.00000000</v>
   <i type="int" name="NEDOS">   301</i>
   <i name="EMIN">     10.00000000</i>
   <i name="EMAX">    -10.00000000</i>
   <i name="EFERMI">      0.00000000</i>
  </separator>
  <separator name="writing" >
   <i type="int" name="NWRITE">     2</i>
   <i type="logical" name="LWAVE"> F  </i>
   <i type="logical" name="LCHARG"> F  </i>
   <i type="logical" name="LPARD"> F  </i>
   <i type="logical" name="LVTOT"> F  </i>
   <i type="logical" name="LVHAR"> F  </i>
   <i type="logical" name="LELF"> F  </i>
   <i type="logical" name="LOPTICS"> F  </i>
   <v name="STM">      0.00000000      0.00000000      0.00000000      0.00000000      0.00000000      0.00000000      0.00000000</v>
  </separator>
  <separator name="performance" >
   <i type="int" name="NPAR">     4</i>
   <i type="int" name="NSIM">     4</i>
   <i type="int" name="NBLK">    -1</i>
   <i type="logical" name="LPLANE"> T  </i>
   <i type="logical" name="LSCALAPACK"> T  </i>
   <i type="logical" name="LSCAAWARE"> F  </i>
   <i type="logical" name="LSCALU"> F  </i>
   <i type="logical" name="LASYNC"> F  </i>
   <i type="logical" name="LORBITALREAL"> F  </i>
  </separator>
  <separator name="miscellaneous" >
   <i type="int" name="IDIOT">     3</i>
   <i type="logical" name="LMUSIC"> F  </i>
   <v name="POMASS">    180.94800000    178.49000000     92.91000000     91.22400000</v>
   <v name="DARWINR">      0.00000000      0.00000000      0.00000000      0.00000000</v>
   <v name="DARWINV">      1.00000000      1.00000000      1.00000000      1.00000000</v>
   <i type="logical" name="LCORR"> T  </i>
  </separator>
  <i type="logical" name="GGA_COMPAT"> T  </i>
  <i type="logical" name="LBERRY"> F  </i>
  <i type="int" name="ICORELEVEL">     0</i>
  <i type="logical" name="LDAU"> F  </i>
  <i type="int" name="I_CONSTRAINED_M">     0</i>
  <separator name="electronic exchange-correlation" >
   <i type="string" name="GGA">--</i>
   <i type="int" name="VOSKOWN">     0</i>
   <i type="logical" name="LHFCALC"> F  </i>
   <i type="string" name="PRECFOCK"></i>
   <i type="logical" name="LSYMGRAD"> F  </i>
   <i type="logical" name="LHFONE"> F  </i>
   <i type="logical" name="LRHFCALC"> F  </i>
   <i type="logical" name="LTHOMAS"> F  </i>
   <i type="logical" name="LMODELHF"> F  </i>
   <i name="ENCUT4O">     -1.00000000</i>
   <i type="int" name="EXXOEP">     0</i>
   <i type="int" name="FOURORBIT">     0</i>
   <i name="AEXX">      0.00000000</i>
   <i name="HFALPHA">      0.00000000</i>
   <i name="MCALPHA">      0.00000000</i>
   <i name="ALDAX">      1.00000000</i>
   <i name="AGGAX">      1.00000000</i>
   <i name="ALDAC">      1.00000000</i>
   <i name="AGGAC">      1.00000000</i>
   <i type="int" name="NKREDX">     1</i>
   <i type="int" name="NKREDY">     1</i>
   <i type="int" name="NKREDZ">     1</i>
   <i type="logical" name="SHIFTRED"> F  </i>
   <i type="logical" name="ODDONLY"> F  </i>
   <i type="logical" name="EVENONLY"> F  </i>
   <i type="int" name="LMAXFOCK">     0</i>
   <i type="int" name="NMAXFOCKAE">     0</i>
   <i type="logical" name="LFOCKAEDFT"> F  </i>
   <i name="HFSCREEN">      0.00000000</i>
   <i name="HFSCREENC">      0.00000000</i>
   <i type="int" name="NBANDSGWLOW">     0</i>
  </separator>
  <separator name="vdW DFT" >
   <i type="logical" name="LUSE_VDW"> F  </i>
   <i name="Zab_VDW">     -0.84910000</i>
   <i name="PARAM1">      0.12340000</i>
   <i name="PARAM2">      1.00000000</i>
   <i name="PARAM3">      0.00000000</i>
  </separator>
  <separator name="model GW" >
   <i type="int" name="MODEL_GW">     0</i>
   <i name="MODEL_EPS0">     11.57826763</i>
   <i name="MODEL_ALPHA">      1.00000000</i>
  </separator>
  <separator name="linear response parameters" >
   <i type="logical" name="LEPSILON"> F  </i>
   <i type="logical" name="LRPA"> F  </i>
   <i type="logical" name="LNABLA"> F  </i>
   <i type="logical" name="LVEL"> F  </i>
   <i type="int" name="KINTER">     0</i>
   <i name="CSHIFT">      0.10000000</i>
   <i name="OMEGAMAX">     -1.00000000</i>
   <i name="DEG_THRESHOLD">      0.00200000</i>
  </separator>
  <separator name="orbital magnetization" >
   <i type="logical" name="NUCIND"> F  </i>
   <v name="MAGPOS">      0.00000000      0.00000000      0.00000000</v>
   <i type="logical" name="LNICSALL"> T  </i>
   <i type="logical" name="ORBITALMAG"> F  </i>
   <i type="logical" name="LMAGBLOCH"> F  </i>
   <i type="logical" name="LCHIMAG"> F  </i>
   <i type="logical" name="LGAUGE"> T  </i>
   <i type="int" name="MAGATOM">     0</i>
   <v name="MAGDIPOL">      0.00000000      0.00000000      0.00000000</v>
   <v name="AVECCONST">      0.00000000      0.00000000      0.00000000</v>
  </separator>
  <separator name="response functions" >
   <i type="logical" name="LADDER"> F  </i>
   <i type="logical" name="LFXC"> F  </i>
   <i type="logical" name="LHARTREE"> T  </i>
   <i type="int" name="IBSE">     0</i>
   <v type="int" name="KPOINT">    -1     0     0     0</v>
   <i type="logical" name="LTCTE"> F  </i>
   <i type="logical" name="LTETE"> F  </i>
   <i type="logical" name="LTRIPLET"> F  </i>
   <i type="logical" name="LFXCEPS"> F  </i>
   <i type="logical" name="LFXHEG"> F  </i>
   <i type="int" name="NATURALO">     0</i>
   <i type="logical" name="L2ORDER"> F  </i>
   <i type="logical" name="LUSEW"> F  </i>
   <i name="ENCUTGW">     -2.00000000</i>
   <i name="ENCUTGWSOFT">     -2.00000000</i>
   <i name="ENCUTLF">     -1.00000000</i>
   <i type="int" name="LMAXMP2">    -1</i>
   <i name="SCISSOR">      0.00000000</i>
   <i type="int" name="NOMEGA">     0</i>
   <i type="int" name="NOMEGAR">     0</i>
   <i type="int" name="NBANDSGW">    -1</i>
   <i type="int" name="NBANDSO">    -1</i>
   <i type="int" name="NBANDSV">    -1</i>
   <i type="int" name="NELM">    70</i>
   <i type="int" name="NELMHF">     1</i>
   <i type="int" name="DIM">     3</i>
   <i type="int" name="ANTIRES">     0</i>
   <i name="OMEGAMAX">    -30.00000000</i>
   <i name="OMEGAMIN">    -30.00000000</i>
   <i name="OMEGATL">   -200.00000000</i>
   <i type="int" name="OMEGAGRID">     0</i>
   <i name="CSHIFT">     -0.10000000</i>
   <i type="logical" name="SELFENERGY"> F  </i>
   <i type="logical" name="LSPECTRAL"> F  </i>
   <i type="logical" name="LSPECTRALGW"> F  </i>
   <i type="logical" name="LSINGLES"> F  </i>
   <i type="logical" name="LFERMIGW"> F  </i>
   <i type="logical" name="ODDONLYGW"> F  </i>
   <i type="logical" name="EVENONLYGW"> F  </i>
   <i type="int" name="NKREDLFX">     1</i>
   <i type="int" name="NKREDLFY">     1</i>
   <i type="int" name="NKREDLFZ">     1</i>
   <i type="int" name="MAXMEM">  1800</i>
   <i type="int" name="TELESCOPE">     0</i>
   <i type="int" name="TAUPAR">     1</i>
   <i type="int" name="OMEGAPAR">    -1</i>
   <i name="LAMBDA">      1.00000000</i>
  </separator>
  <separator name="External order field" >
   <i name="OFIELD_KAPPA">      0.00000000</i>
   <v name="OFIELD_K">      0.00000000      0.00000000      0.00000000</v>
   <i name="OFIELD_Q6_NEAR">      0.00000000</i>
   <i name="OFIELD_Q6_FAR">      0.00000000</i>
   <i name="OFIELD_A">      0.00000000</i>
  </separator>
 </parameters>
 <atominfo>
  <atoms>      36 </atoms>
  <types>       4 </types>
  <array name="atoms" >
   <dimension dim="1">ion</dimension>
   <field type="string">element</field>
   <field type="int">atomtype</field>
   <set>
    <rc><c>Ta</c><c>   1</c></rc>
    <rc><c>Ta</c><c>   1</c></rc>
    <rc><c>Ta</c><c>   1</c></rc>
    <rc><c>Ta</c><c>   1</c></rc>
    <rc><c>Ta</c><c>   1</c></rc>
    <rc><c>Ta</c><c>   1</c></rc>
    <rc><c>Ta</c><c>   1</c></rc>
    <rc><c>Ta</c><c>   1</c></rc>
    <rc><c>Ta</c><c>   1</c></rc>
    <rc><c>Ta</c><c>   1</c></rc>
    <rc><c>Ta</c><c>   1</c></rc>
    <rc><c>Ta</c><c>   1</c></rc>
    <rc><c>Ta</c><c>   1</c></rc>
    <rc><c>Ta</c><c>   1</c></rc>
    <rc><c>Hf</c><c>   2</c></rc>
    <rc><c>Hf</c><c>   2</c></rc>
    <rc><c>Hf</c><c>   2</c></rc>
    <rc><c>Hf</c><c>   2</c></rc>
    <rc><c>Hf</c><c>   2</c></rc>
    <rc><c>Hf</c><c>   2</c></rc>
    <rc><c>Nb</c><c>   3</c></rc>
    <rc><c>Nb</c><c>   3</c></rc>
    <rc><c>Nb</c><c>   3</c></rc>
    <rc><c>Nb</c><c>   3</c></rc>
    <rc><c>Nb</c><c>   3</c></rc>
    <rc><c>Nb</c><c>   3</c></rc>
    <rc><c>Nb</c><c>   3</c></rc>
    <rc><c>Nb</c><c>   3</c></rc>
    <rc><c>Nb</c><c>   3</c></rc>
    <rc><c>Nb</c><c>   3</c></rc>
    <rc><c>Zr</c><c>   4</c></rc>
    <rc><c>Zr</c><c>   4</c></rc>
    <rc><c>Zr</c><c>   4</c></rc>
    <rc><c>Zr</c><c>   4</c></rc>
    <rc><c>Zr</c><c>   4</c></rc>
    <rc><c>Zr</c><c>   4</c></rc>
   </set>
  </array>
  <array name="atomtypes" >
   <dimension dim="1">type</dimension>
   <field type="int">atomspertype</field>
   <field type="string">element</field>
   <field>mass</field>
   <field>valence</field>
   <field type="string">pseudopotential</field>
   <set>
    <rc><c>  14</c><c>Ta</c><c>    180.94800000</c><c>      5.00000000</c><c>  PAW_PBE Ta 17Jan2003                  </c></rc>
    <rc><c>   6</c><c>Hf</c><c>    178.49000000</c><c>      4.00000000</c><c>  PAW_PBE Hf 20Jan2003                  </c></rc>
    <rc><c>  10</c><c>Nb</c><c>     92.91000000</c><c>     13.00000000</c><c>  PAW_PBE Nb_sv 25May2007               </c></rc>
    <rc><c>   6</c><c>Zr</c><c>     91.22400000</c><c>     12.00000000</c><c>  PAW_PBE Zr_sv 04Jan2005               </c></rc>
   </set>
  </array>
 </atominfo>
 <structure name="initialpos" >
  <crystal>
   <varray name="basis" >
    <v>       6.77875413      -0.01496992      -0.02515605 </v>
    <v>      -0.02123025      10.08914630       0.00572159 </v>
    <v>      -0.03738738       0.00533749      10.15777547 </v>
   </varray>
   <i name="volume">    694.69605793 </i>
   <varray name="rec_basis" >
    <v>       0.14752243       0.00031012       0.00054282 </v>
    <v>       0.00021870       0.09911690      -0.00005128 </v>
    <v>       0.00036522      -0.00005506       0.09844812 </v>
   </varray>
  </crystal>
  <varray name="positions" >
   <v>       0.52245100       0.99683600       0.00284500 </v>
   <v>       0.25012700       0.84531200       0.49828100 </v>
   <v>       0.75465800       0.84179000       0.49848500 </v>
   <v>       0.25166400       0.50453200       0.17654100 </v>
   <v>       0.74282100       0.49144000       0.49986700 </v>
   <v>       0.74902500       0.84121700       0.17014400 </v>
   <v>       0.97886800       0.00241000       0.00397800 </v>
   <v>       0.75902900       0.49802200       0.82192000 </v>
   <v>       0.25782900       0.16149100       0.49754300 </v>
   <v>       0.26479600       0.14833600       0.82613300 </v>
   <v>       0.50474700       0.99080400       0.65845300 </v>
   <v>       0.49696900       0.33045400       0.34149700 </v>
   <v>       0.74767900       0.16268800       0.17462600 </v>
   <v>       0.74614100       0.16477400       0.49968800 </v>
   <v>       0.25329700       0.83368600       0.16694700 </v>
   <v>       0.01366000       0.33292900       0.66353400 </v>
   <v>       0.73236400       0.16742400       0.82476600 </v>
   <v>       0.50441200       0.67170500       0.66235500 </v>
   <v>       0.47913800       0.33912900       0.99304300 </v>
   <v>       0.99949400       0.00631900       0.66088800 </v>
   <v>       0.98883800       0.66606500       0.99767800 </v>
   <v>       0.50003000       0.66440900       0.34375400 </v>
   <v>       0.76184700       0.83821200       0.83234700 </v>
   <v>       0.25770500       0.49534400       0.49603200 </v>
   <v>       0.50912700       0.00097900       0.33744500 </v>
   <v>       0.99415000       0.99882900       0.33603500 </v>
   <v>       0.99495400       0.66350200       0.66156300 </v>
   <v>       0.00352600       0.33138300       0.34585900 </v>
   <v>       0.22992400       0.52090500       0.83037300 </v>
   <v>       0.48882500       0.33892500       0.66276000 </v>
   <v>       0.00052000       0.66695700       0.34273600 </v>
   <v>       0.23958600       0.83908000       0.83428200 </v>
   <v>       0.74934400       0.48963100       0.17622800 </v>
   <v>       0.01376900       0.33191600       0.99330600 </v>
   <v>       0.50962500       0.66344800       0.99505700 </v>
   <v>       0.24905800       0.15913000       0.17301600 </v>
  </varray>
 </structure>
 <calculation>
  <scstep>
   <time name="dav">    1.26    1.33</time>
   <time name="total">    1.49    1.88</time>
   <energy>
    <i name="alphaZ">   1644.21828414 </i>
    <i name="ewald"> -20071.39766302 </i>
    <i name="hartreedc">  -6615.26439950 </i>
    <i name="XCdc">   -382.71142330 </i>
    <i name="pawpsdc">  21753.48753423 </i>
    <i name="pawaedc"> -20058.44501918 </i>
    <i name="eentropy">      0.00387005 </i>
    <i name="bandstr">     64.80732183 </i>
    <i name="atom">  25540.60277421 </i>
    <i name="e_fr_energy">   1875.30127946 </i>
    <i name="e_wo_entrp">   1875.29740941 </i>
    <i name="e_0_energy">   1875.29998944 </i>
   </energy>
  </scstep>
  <scstep>
   <time name="dav">    1.27    1.28</time>
   <time name="total">    1.27    1.38</time>
   <energy>
    <i name="e_fr_energy">   -115.86017499 </i>
    <i name="e_wo_entrp">   -115.85669603 </i>
    <i name="e_0_energy">   -115.85901534 </i>
   </energy>
  </scstep>
  <scstep>
   <time name="dav">    1.61    1.62</time>
   <time name="total">    1.62    1.65</time>
   <energy>
    <i name="e_fr_energy">   -361.09934211 </i>
    <i name="e_wo_entrp">   -361.10107359 </i>
    <i name="e_0_energy">   -361.09991927 </i>
   </energy>
  </scstep>
  <scstep>
   <time name="dav">    1.56    1.60</time>
   <time name="total">    1.57    1.63</time>
   <energy>
    <i name="e_fr_energy">   -388.09321117 </i>
    <i name="e_wo_entrp">   -388.09462957 </i>
    <i name="e_0_energy">   -388.09368397 </i>
   </energy>
  </scstep>
  <scstep>
   <time name="dav">    1.38    1.49</time>
   <time name="total">    1.42    1.55</time>
   <energy>
    <i name="e_fr_energy">   -390.75210709 </i>
    <i name="e_wo_entrp">   -390.75570436 </i>
    <i name="e_0_energy">   -390.75330618 </i>
   </energy>
  </scstep>
  <scstep>
   <time name="diag">    0.08    0.08</time>
   <time name="diis">    0.74    0.75</time>
   <time name="orth">    0.01    0.01</time>
   <time name="total">    0.90    0.93</time>
   <energy>
    <i name="e_fr_energy">   -380.16694293 </i>
    <i name="e_wo_entrp">   -380.17600316 </i>
    <i name="e_0_energy">   -380.16996301 </i>
   </energy>
  </scstep>
  <scstep>
   <time name="diag">    0.08    0.08</time>
   <time name="diis">    0.82    0.83</time>
   <time name="orth">    0.01    0.01</time>
   <time name="total">    1.02    1.04</time>
   <energy>
    <i name="e_fr_energy">   -383.73548771 </i>
    <i name="e_wo_entrp">   -383.73431946 </i>
    <i name="e_0_energy">   -383.73509829 </i>
   </energy>
  </scstep>
  <scstep>
   <time name="diag">    0.09    0.09</time>
   <time name="diis">    0.85    0.87</time>
   <time name="orth">    0.01    0.01</time>
   <time name="total">    1.06    1.12</time>
   <energy>
    <i name="e_fr_energy">   -375.86405709 </i>
    <i name="e_wo_entrp">   -375.86515193 </i>
    <i name="e_0_energy">   -375.86442204 </i>
   </energy>
  </scstep>
  <scstep>
   <time name="diag">    0.08    0.08</time>
   <time name="diis">    0.89    0.89</time>
   <time name="orth">    0.01    0.01</time>
   <time name="total">    1.05    1.07</time>
   <energy>
    <i name="e_fr_energy">   -375.58619885 </i>
    <i name="e_wo_entrp">   -375.59007234 </i>
    <i name="e_0_energy">   -375.58749001 </i>
   </energy>
  </scstep>
  <scstep>
   <time name="diag">    0.08    0.08</time>
   <time name="diis">    0.82    0.82</time>
   <time name="orth">    0.01    0.01</time>
   <time name="total">    0.98    1.01</time>
   <energy>
    <i name="e_fr_energy">   -375.55398884 </i>
    <i name="e_wo_entrp">   -375.56040254 </i>
    <i name="e_0_energy">   -375.55612674 </i>
   </energy>
  </scstep>
  <scstep>
   <time name="diag">    0.08    0.08</time>
   <time name="diis">    0.82    0.82</time>
   <time name="orth">    0.01    0.01</time>
   <time name="total">    1.00    1.03</time>
   <energy>
    <i name="e_fr_energy">   -375.52254286 </i>
    <i name="e_wo_entrp">   -375.52632941 </i>
    <i name="e_0_energy">   -375.52380504 </i>
   </energy>
  </scstep>
  <scstep>
   <time name="diag">    0.08    0.08</time>
   <time name="diis">    0.91    0.91</time>
   <time name="orth">    0.01    0.01</time>
   <time name="total">    1.09    1.13</time>
   <energy>
    <i name="e_fr_energy">   -375.51702170 </i>
    <i name="e_wo_entrp">   -375.52109106 </i>
    <i name="e_0_energy">   -375.51837815 </i>
   </energy>
  </scstep>
  <scstep>
   <time name="diag">    0.08    0.08</time>
   <time name="diis">    0.82    0.82</time>
   <time name="orth">    0.01    0.01</time>
   <time name="total">    0.98    1.01</time>
   <energy>
    <i name="e_fr_energy">   -375.51437805 </i>
    <i name="e_wo_entrp">   -375.51826295 </i>
    <i name="e_0_energy">   -375.51567302 </i>
   </energy>
  </scstep>
  <scstep>
   <time name="diag">    0.08    0.08</time>
   <time name="diis">    0.84    0.84</time>
   <time name="orth">    0.02    0.02</time>
   <time name="total">    0.99    1.02</time>
   <energy>
    <i name="e_fr_energy">   -375.51416906 </i>
    <i name="e_wo_entrp">   -375.51811345 </i>
    <i name="e_0_energy">   -375.51548386 </i>
   </energy>
  </scstep>
  <scstep>
   <time name="diag">    0.08    0.08</time>
   <time name="diis">    0.84    0.85</time>
   <time name="orth">    0.01    0.01</time>
   <time name="total">    1.00    1.03</time>
   <energy>
    <i name="e_fr_energy">   -375.51429224 </i>
    <i name="e_wo_entrp">   -375.51830105 </i>
    <i name="e_0_energy">   -375.51562851 </i>
   </energy>
  </scstep>
  <scstep>
   <time name="diag">    0.08    0.08</time>
   <time name="diis">    0.74    0.75</time>
   <time name="orth">    0.01    0.01</time>
   <time name="total">    0.90    0.92</time>
   <energy>
    <i name="e_fr_energy">   -375.51431710 </i>
    <i name="e_wo_entrp">   -375.51830495 </i>
    <i name="e_0_energy">   -375.51564638 </i>
   </energy>
  </scstep>
  <scstep>
   <time name="diag">    0.08    0.08</time>
   <time name="diis">    0.68    0.68</time>
   <time name="orth">    0.01    0.01</time>
   <time name="total">    0.84    0.87</time>
   <energy>
    <i name="e_fr_energy">   -375.51432121 </i>
    <i name="e_wo_entrp">   -375.51829656 </i>
    <i name="e_0_energy">   -375.51564633 </i>
   </energy>
  </scstep>
  <scstep>
   <time name="diag">    0.08    0.09</time>
   <time name="diis">    0.73    0.73</time>
   <time name="orth">    0.01    0.01</time>
   <time name="total">    0.89    0.91</time>
   <energy>
    <i name="e_fr_energy">   -375.51432675 </i>
    <i name="e_wo_entrp">   -375.51828021 </i>
    <i name="e_0_energy">   -375.51564457 </i>
   </energy>
  </scstep>
  <scstep>
   <time name="diag">    0.10    0.10</time>
   <time name="diis">    0.54    0.54</time>
   <time name="orth">    0.01    0.01</time>
   <time name="total">    0.87    0.91</time>
   <energy>
    <i name="alphaZ">   1644.21828414 </i>
    <i name="ewald"> -20071.39766302 </i>
    <i name="hartreedc">  -6375.95624351 </i>
    <i name="XCdc">   -381.92513279 </i>
    <i name="pawpsdc">  34740.89849646 </i>
    <i name="pawaedc"> -33027.32260128 </i>
    <i name="eentropy">      0.00395627 </i>
    <i name="bandstr">  -2444.63619838 </i>
    <i name="atom">  25540.60277421 </i>
    <i name="e_fr_energy">   -375.51432790 </i>
    <i name="e_wo_entrp">   -375.51828417 </i>
    <i name="e_0_energy">   -375.51564666 </i>
   </energy>
  </scstep>
  <structure>
   <crystal>
    <varray name="basis" >
     <v>       6.77875413      -0.01496992      -0.02515605 </v>
     <v>      -0.02123025      10.08914630       0.00572159 </v>
     <v>      -0.03738738       0.00533749      10.15777547 </v>
    </varray>
    <i name="volume">    694.69605793 </i>
    <varray name="rec_basis" >
     <v>       0.14752243       0.00031012       0.00054282 </v>
     <v>       0.00021870       0.09911690      -0.00005128 </v>
     <v>       0.00036522      -0.00005506       0.09844812 </v>
    </varray>
   </crystal>
   <varray name="positions" >
    <v>       0.52245100       0.99683600       0.00284500 </v>
    <v>       0.25012700       0.84531200       0.49828100 </v>
    <v>       0.75465800       0.84179000       0.49848500 </v>
    <v>       0.25166400       0.50453200       0.17654100 </v>
    <v>       0.74282100       0.49144000       0.49986700 </v>
    <v>       0.74902500       0.84121700       0.17014400 </v>
    <v>       0.97886800       0.00241000       0.00397800 </v>
    <v>       0.75902900       0.49802200       0.82192000 </v>
    <v>       0.25782900       0.16149100       0.49754300 </v>
    <v>       0.26479600       0.14833600       0.82613300 </v>
    <v>       0.50474700       0.99080400       0.65845300 </v>
    <v>       0.49696900       0.33045400       0.34149700 </v>
    <v>       0.74767900       0.16268800       0.17462600 </v>
    <v>       0.74614100       0.16477400       0.49968800 </v>
    <v>       0.25329700       0.83368600       0.16694700 </v>
    <v>       0.01366000       0.33292900       0.66353400 </v>
    <v>       0.73236400       0.16742400       0.82476600 </v>
    <v>       0.50441200       0.67170500       0.66235500 </v>
    <v>       0.47913800       0.33912900       0.99304300 </v>
    <v>       0.99949400       0.00631900       0.66088800 </v>
    <v>       0.98883800       0.66606500       0.99767800 </v>
    <v>       0.50003000       0.66440900       0.34375400 </v>
    <v>       0.76184700       0.83821200       0.83234700 </v>
    <v>       0.25770500       0.49534400       0.49603200 </v>
    <v>       0.50912700       0.00097900       0.33744500 </v>
    <v>       0.99415000       0.99882900       0.33603500 </v>
    <v>       0.99495400       0.66350200       0.66156300 </v>
    <v>       0.00352600       0.33138300       0.34585900 </v>
    <v>       0.22992400       0.52090500       0.83037300 </v>
    <v>       0.48882500       0.33892500       0.66276000 </v>
    <v>       0.00052000       0.66695700       0.34273600 </v>
    <v>       0.23958600       0.83908000       0.83428200 </v>
    <v>       0.74934400       0.48963100       0.17622800 </v>
    <v>       0.01376900       0.33191600       0.99330600 </v>
    <v>       0.50962500       0.66344800       0.99505700 </v>
    <v>       0.24905800       0.15913000       0.17301600 </v>
   </varray>
  </structure>
  <varray name="forces" >
   <v>      -0.03435420      -0.03527610       0.00145361 </v>
   <v>       0.36808371      -0.21653741      -0.35859838 </v>
   <v>      -0.36708442      -0.26379631      -0.37238358 </v>
   <v>      -0.01595016       0.01367630      -0.00507798 </v>
   <v>      -0.03209022      -0.02740110       0.00964573 </v>
   <v>      -0.03971862      -0.02214405       0.00164417 </v>
   <v>       0.04145111      -0.01410817      -0.10797168 </v>
   <v>      -0.04583102      -0.00330783      -0.00412544 </v>
   <v>       0.33469165       0.19039014      -0.30482645 </v>
   <v>       0.49239254       0.22300845       0.39918345 </v>
   <v>       0.01835651       0.01829973       0.00488871 </v>
   <v>       0.02084444      -0.02384566       0.00118816 </v>
   <v>      -0.02730738       0.00399126       0.00266229 </v>
   <v>      -0.39637648       0.29558454      -0.34559416 </v>
   <v>       0.01669151      -0.01470190      -0.00213140 </v>
   <v>      -0.05853713      -0.09877748      -0.00319287 </v>
   <v>      -0.33574600       0.27134221       0.19658653 </v>
   <v>       0.00026320      -0.01073094      -0.00193511 </v>
   <v>      -0.00850823      -0.02137270       0.00003020 </v>
   <v>      -0.03680240       0.13164894       0.02131498 </v>
   <v>      -0.00187351       0.02319360      -0.01250887 </v>
   <v>      -0.00225914       0.02567695       0.01027890 </v>
   <v>      -0.20137323      -0.29835132       0.36626949 </v>
   <v>       0.01635598      -0.04748593      -0.00289394 </v>
   <v>       0.02152661      -0.01439256       0.00837124 </v>
   <v>       0.00257754      -0.01012382       0.20804885 </v>
   <v>      -0.01532193       0.10368990       0.01880223 </v>
   <v>      -0.00510982       0.01365786      -0.01678817 </v>
   <v>       0.04992656       0.00009466      -0.00059290 </v>
   <v>       0.01062901       0.00848091       0.02397191 </v>
   <v>      -0.00091270      -0.01141428      -0.01902018 </v>
   <v>       0.19548740      -0.21155945       0.29736735 </v>
   <v>       0.00023229       0.02654359      -0.00840819 </v>
   <v>      -0.01315032      -0.02452549      -0.01895638 </v>
   <v>       0.00395129       0.01865934       0.00598521 </v>
   <v>       0.04484555       0.00191413       0.00731266 </v>
  </varray>
  <varray name="stress" >
   <v>       9.88203868      -0.42623849       0.54055374 </v>
   <v>      -0.42623848       6.43433839      -0.24975146 </v>
   <v>       0.54055373      -0.24975145       7.87657552 </v>
  </varray>
  <energy>
   <i name="e_fr_energy">   -375.51432790 </i>
   <i name="e_wo_entrp">   -375.51564666 </i>
   <i name="e_0_energy">      0.00395627 </i>
  </energy>
  <time name="totalsc">   22.75   24.02</time>
 </calculation>
 <calculation>
  <scstep>
   <time name="dav">    1.23    1.25</time>
   <time name="total">    1.43    1.57</time>
   <energy>
    <i name="alphaZ">   1637.30392910 </i>
    <i name="ewald"> -20039.21229758 </i>
    <i name="hartreedc">  -6370.93087955 </i>
    <i name="XCdc">   -383.12264660 </i>
    <i name="pawpsdc">  34741.16586125 </i>
    <i name="pawaedc"> -33027.58318922 </i>
    <i name="eentropy">      0.00616744 </i>
    <i name="bandstr">  -2473.82387885 </i>
    <i name="atom">  25540.60277421 </i>
    <i name="e_fr_energy">   -375.59415981 </i>
    <i name="e_wo_entrp">   -375.60032724 </i>
    <i name="e_0_energy">   -375.59621562 </i>
   </energy>
  </scstep>
  <scstep>
   <time name="diag">    0.08    0.08</time>
   <time name="diis">    0.78    0.78</time>
   <time name="orth">    0.01    0.01</time>
   <time name="total">    0.96    0.98</time>
   <energy>
    <i name="e_fr_energy">   -375.57790604 </i>
    <i name="e_wo_entrp">   -375.58271375 </i>
    <i name="e_0_energy">   -375.57950861 </i>
   </energy>
  </scstep>
  <scstep>
   <time name="diag">    0.12    0.12</time>
   <time name="diis">    0.87    0.88</time>
   <time name="orth">    0.01    0.01</time>
   <time name="total">    1.09    1.12</time>
   <energy>
    <i name="e_fr_energy">   -375.56514892 </i>
    <i name="e_wo_entrp">   -375.57032681 </i>
    <i name="e_0_energy">   -375.56687488 </i>
   </energy>
  </scstep>
  <scstep>
   <time name="diag">    0.08    0.08</time>
   <time name="diis">    0.82    0.83</time>
   <time name="orth">    0.01    0.01</time>
   <time name="total">    0.98    1.01</time>
   <energy>
    <i name="e_fr_energy">   -375.55880284 </i>
    <i name="e_wo_entrp">   -375.56459213 </i>
    <i name="e_0_energy">   -375.56073260 </i>
   </energy>
  </scstep>
  <scstep>
   <time name="diag">    0.08    0.08</time>
   <time name="diis">    0.82    0.83</time>
   <time name="orth">    0.01    0.01</time>
   <time name="total">    0.98    1.01</time>
   <energy>
    <i name="e_fr_energy">   -375.55744836 </i>
    <i name="e_wo_entrp">   -375.56307905 </i>
    <i name="e_0_energy">   -375.55932525 </i>
   </energy>
  </scstep>
  <scstep>
   <time name="diag">    0.08    0.08</time>
   <time name="diis">    0.83    0.84</time>
   <time name="orth">    0.01    0.01</time>
   <time name="total">    0.99    1.02</time>
   <energy>
    <i name="e_fr_energy">   -375.55750065 </i>
    <i name="e_wo_entrp">   -375.56294179 </i>
    <i name="e_0_energy">   -375.55931436 </i>
   </energy>
  </scstep>
  <scstep>
   <time name="diag">    0.10    0.10</time>
   <time name="diis">    0.83    0.84</time>
   <time name="orth">    0.02    0.02</time>
   <time name="total">    1.05    1.08</time>
   <energy>
    <i name="e_fr_energy">   -375.55749836 </i>
    <i name="e_wo_entrp">   -375.56306042 </i>
    <i name="e_0_energy">   -375.55935238 </i>
   </energy>
  </scstep>
  <scstep>
   <time name="diag">    0.11    0.11</time>
   <time name="diis">    0.74    0.75</time>
   <time name="orth">    0.01    0.01</time>
   <time name="total">    0.93    0.96</time>
   <energy>
    <i name="e_fr_energy">   -375.55753210 </i>
    <i name="e_wo_entrp">   -375.56308081 </i>
    <i name="e_0_energy">   -375.55938167 </i>
   </energy>
  </scstep>
  <scstep>
   <time name="diag">    0.08    0.08</time>
   <time name="diis">    0.70    0.71</time>
   <time name="orth">    0.01    0.01</time>
   <time name="total">    0.85    0.88</time>
   <energy>
    <i name="e_fr_energy">   -375.55755241 </i>
    <i name="e_wo_entrp">   -375.56311760 </i>
    <i name="e_0_energy">   -375.55940747 </i>
   </energy>
  </scstep>
  <scstep>
   <time name="diag">    0.08    0.08</time>
   <time name="diis">    0.55    0.56</time>
   <time name="orth">    0.01    0.01</time>
   <time name="total">    0.70    0.74</time>
   <energy>
    <i name="e_fr_energy">   -375.55756413 </i>
    <i name="e_wo_entrp">   -375.56310458 </i>
    <i name="e_0_energy">   -375.55941095 </i>
   </energy>
  </scstep>
  <scstep>
   <time name="diag">    0.08    0.08</time>
   <time name="diis">    0.56    0.56</time>
   <time name="orth">    0.01    0.01</time>
   <time name="total">    0.69    0.71</time>
   <energy>
    <i name="alphaZ">   1637.30392910 </i>
    <i name="ewald"> -20039.21229758 </i>
    <i name="hartreedc">  -6388.05141527 </i>
    <i name="XCdc">   -382.40731472 </i>
    <i name="pawpsdc">  34550.54021136 </i>
    <i name="pawaedc"> -32837.12796110 </i>
    <i name="eentropy">      0.00555927 </i>
    <i name="bandstr">  -2457.21104786 </i>
    <i name="atom">  25540.60277421 </i>
    <i name="e_fr_energy">   -375.55756260 </i>
    <i name="e_wo_entrp">   -375.56312187 </i>
    <i name="e_0_energy">   -375.55941569 </i>
   </energy>
  </scstep>
  <structure>
   <crystal>
    <varray name="basis" >
     <v>       6.79042986      -0.01548927      -0.02455120 </v>
     <v>      -0.02201590      10.10046361       0.00528821 </v>
     <v>      -0.03649505       0.00490403      10.17171837 </v>
    </varray>
    <i name="volume">    697.62976810 </i>
    <varray name="rec_basis" >
     <v>       0.14726872       0.00032072       0.00052823 </v>
     <v>       0.00022567       0.09900587      -0.00004692 </v>
     <v>       0.00035534      -0.00005070       0.09831311 </v>
    </varray>
   </crystal>
   <varray name="positions" >
    <v>       0.52237750       0.99678529       0.00284692 </v>
    <v>       0.25090909       0.84500281       0.49777218 </v>
    <v>       0.75387014       0.84141070       0.49795269 </v>
    <v>       0.25162997       0.50455157       0.17653367 </v>
    <v>       0.74275244       0.49140058       0.49988060 </v>
    <v>       0.74894011       0.84118511       0.17014615 </v>
    <v>       0.97895559       0.00238997       0.00382439 </v>
    <v>       0.75893110       0.49801711       0.82191388 </v>
    <v>       0.25854205       0.16176540       0.49711029 </v>
    <v>       0.26585143       0.14865717       0.82670419 </v>
    <v>       0.50478631       0.99083031       0.65846005 </v>
    <v>       0.49701341       0.33041986       0.34149882 </v>
    <v>       0.74762074       0.16269364       0.17462965 </v>
    <v>       0.74529332       0.16519702       0.49919326 </v>
    <v>       0.25333255       0.83366496       0.16694406 </v>
    <v>       0.01353455       0.33278712       0.66352922 </v>
    <v>       0.73164992       0.16781203       0.82504411 </v>
    <v>       0.50441250       0.67168961       0.66235225 </v>
    <v>       0.47911974       0.33909831       0.99304302 </v>
    <v>       0.99941618       0.00650772       0.66091807 </v>
    <v>       0.98883401       0.66609827       0.99766015 </v>
    <v>       0.50002537       0.66444582       0.34376861 </v>
    <v>       0.76141859       0.83778311       0.83286804 </v>
    <v>       0.25773969       0.49527594       0.49602800 </v>
    <v>       0.50917296       0.00095842       0.33745705 </v>
    <v>       0.99415709       0.99881433       0.33633145 </v>
    <v>       0.99492190       0.66365068       0.66158963 </v>
    <v>       0.00351502       0.33140259       0.34583504 </v>
    <v>       0.23003059       0.52090529       0.83037242 </v>
    <v>       0.48884792       0.33893718       0.66279421 </v>
    <v>       0.00051785       0.66694064       0.34270890 </v>
    <v>       0.24000476       0.83877692       0.83470690 </v>
    <v>       0.74934455       0.48966908       0.17621600 </v>
    <v>       0.01374066       0.33188079       0.99327894 </v>
    <v>       0.50963357       0.66347477       0.99506553 </v>
    <v>       0.24915381       0.15913288       0.17302665 </v>
   </varray>
  </structure>
  <varray name="forces" >
   <v>      -0.00322896      -0.03928790       0.01369093 </v>
   <v>       0.33959296      -0.17013340      -0.31665353 </v>
   <v>      -0.34079052      -0.21621091      -0.33594329 </v>
   <v>      -0.01720398       0.00823978       0.00235235 </v>
   <v>      -0.02708085      -0.02948662       0.01839672 </v>
   <v>      -0.02619523       0.00404320      -0.00134101 </v>
   <v>       0.01875475      -0.01764616      -0.10160170 </v>
   <v>      -0.02371756       0.00214355      -0.02011198 </v>
   <v>       0.30123647       0.16616914      -0.27045871 </v>
   <v>       0.44840649       0.17819036       0.34032172 </v>
   <v>       0.01787560       0.00690064      -0.00277707 </v>
   <v>       0.02042480      -0.01035970      -0.00289554 </v>
   <v>      -0.01260711      -0.01606163       0.00845261 </v>
   <v>      -0.35257977       0.25513628      -0.30124502 </v>
   <v>       0.00714478      -0.00210272       0.00352516 </v>
   <v>      -0.04529126      -0.09694532      -0.00784557 </v>
   <v>      -0.31763923       0.23376076       0.17414974 </v>
   <v>       0.00511407      -0.01470948      -0.00259529 </v>
   <v>      -0.01528761       0.00896629       0.01890224 </v>
   <v>      -0.02870828       0.12144696       0.01090038 </v>
   <v>      -0.00407703       0.01321156      -0.00730538 </v>
   <v>      -0.00623558       0.01695875       0.00669634 </v>
   <v>      -0.15781743      -0.24520724       0.32833170 </v>
   <v>       0.01157115      -0.05024386      -0.00049771 </v>
   <v>       0.02601231      -0.01484233       0.00225462 </v>
   <v>      -0.00920222      -0.01752230       0.18817913 </v>
   <v>      -0.02286976       0.08536643       0.01888789 </v>
   <v>      -0.00536166       0.01717343      -0.00825497 </v>
   <v>       0.02594683       0.00097192      -0.01391163 </v>
   <v>      -0.00013699       0.01734471       0.00803338 </v>
   <v>       0.00229942      -0.01468965      -0.01039699 </v>
   <v>       0.15781920      -0.17483777       0.25778581 </v>
   <v>      -0.00043824       0.02030222      -0.00377630 </v>
   <v>      -0.00353140      -0.01946297      -0.02018702 </v>
   <v>       0.00514015       0.00174539       0.01625572 </v>
   <v>       0.03266168      -0.00832140       0.01068225 </v>
  </varray>
  <varray name="stress" >
   <v>       3.12756093      -0.44707323       0.48162547 </v>
   <v>      -0.44707321       0.01156206      -0.21388501 </v>
   <v>       0.48162554      -0.21388501       1.46027248 </v>
  </varray>
  <energy>
   <i name="e_fr_energy">   -375.55756260 </i>
   <i name="e_wo_entrp">   -375.55941569 </i>
   <i name="e_0_energy">      0.00555927 </i>
  </energy>
  <time name="totalsc">   12.52   13.07</time>
 </calculation>
 <calculation>
  <scstep>
   <time name="dav">    1.04    1.06</time>
   <time name="total">    1.24    1.36</time>
   <energy>
    <i name="alphaZ">   1622.60989567 </i>
    <i name="ewald"> -19970.18565195 </i>
    <i name="hartreedc">  -6377.51827292 </i>
    <i name="XCdc">   -384.96713192 </i>
    <i name="pawpsdc">  34550.47302883 </i>
    <i name="pawaedc"> -32837.11624139 </i>
    <i name="eentropy">      0.00965158 </i>
    <i name="bandstr">  -2519.67247175 </i>
    <i name="atom">  25540.60277421 </i>
    <i name="e_fr_energy">   -375.76441963 </i>
    <i name="e_wo_entrp">   -375.77407121 </i>
    <i name="e_0_energy">   -375.76763682 </i>
   </energy>
  </scstep>
  <scstep>
   <time name="diag">    0.08    0.08</time>
   <time name="diis">    0.79    0.79</time>
   <time name="orth">    0.01    0.01</time>
   <time name="total">    0.94    0.97</time>
   <energy>
    <i name="e_fr_energy">   -375.69029776 </i>
    <i name="e_wo_entrp">   -375.69745555 </i>
    <i name="e_0_energy">   -375.69268369 </i>
   </energy>
  </scstep>
  <scstep>
   <time name="diag">    0.08    0.08</time>
   <time name="diis">    0.83    0.83</time>
   <time name="orth">    0.01    0.01</time>
   <time name="total">    0.98    1.01</time>
   <energy>
    <i name="e_fr_energy">   -375.62812297 </i>
    <i name="e_wo_entrp">   -375.63585320 </i>
    <i name="e_0_energy">   -375.63069971 </i>
   </energy>
  </scstep>
  <scstep>
   <time name="diag">    0.08    0.08</time>
   <time name="diis">    0.89    0.90</time>
   <time name="orth">    0.05    0.05</time>
   <time name="total">    1.13    1.18</time>
   <energy>
    <i name="e_fr_energy">   -375.60058304 </i>
    <i name="e_wo_entrp">   -375.60966386 </i>
    <i name="e_0_energy">   -375.60360998 </i>
   </energy>
  </scstep>
  <scstep>
   <time name="diag">    0.10    0.13</time>
   <time name="diis">    0.83    0.84</time>
   <time name="orth">    0.01    0.01</time>
   <time name="total">    1.01    1.09</time>
   <energy>
    <i name="e_fr_energy">   -375.59416518 </i>
    <i name="e_wo_entrp">   -375.60301769 </i>
    <i name="e_0_energy">   -375.59711602 </i>
   </energy>
  </scstep>
  <scstep>
   <time name="diag">    0.08    0.08</time>
   <time name="diis">    0.85    0.85</time>
   <time name="orth">    0.01    0.01</time>
   <time name="total">    1.01    1.04</time>
   <energy>
    <i name="e_fr_energy">   -375.59448689 </i>
    <i name="e_wo_entrp">   -375.60290225 </i>
    <i name="e_0_energy">   -375.59729201 </i>
   </energy>
  </scstep>
  <scstep>
   <time name="diag">    0.08    0.08</time>
   <time name="diis">    0.89    0.89</time>
   <time name="orth">    0.01    0.01</time>
   <time name="total">    1.07    1.11</time>
   <energy>
    <i name="e_fr_energy">   -375.59461578 </i>
    <i name="e_wo_entrp">   -375.60325076 </i>
    <i name="e_0_energy">   -375.59749411 </i>
   </energy>
  </scstep>
  <scstep>
   <time name="diag">    0.13    0.13</time>
   <time name="diis">    0.87    0.88</time>
   <time name="orth">    0.01    0.01</time>
   <time name="total">    1.14    1.19</time>
   <energy>
    <i name="e_fr_energy">   -375.59482548 </i>
    <i name="e_wo_entrp">   -375.60348396 </i>
    <i name="e_0_energy">   -375.59771164 </i>
   </energy>
  </scstep>
  <scstep>
   <time name="diag">    0.08    0.08</time>
   <time name="diis">    0.78    0.79</time>
   <time name="orth">    0.01    0.01</time>
   <time name="total">    0.94    0.97</time>
   <energy>
    <i name="e_fr_energy">   -375.59496687 </i>
    <i name="e_wo_entrp">   -375.60362862 </i>
    <i name="e_0_energy">   -375.59785412 </i>
   </energy>
  </scstep>
  <scstep>
   <time name="diag">    0.08    0.08</time>
   <time name="diis">    0.75    0.76</time>
   <time name="orth">    0.01    0.01</time>
   <time name="total">    0.91    0.94</time>
   <energy>
    <i name="e_fr_energy">   -375.59507041 </i>
    <i name="e_wo_entrp">   -375.60369124 </i>
    <i name="e_0_energy">   -375.59794402 </i>
   </energy>
  </scstep>
  <scstep>
   <time name="diag">    0.08    0.08</time>
   <time name="diis">    0.73    0.74</time>
   <time name="orth">    0.01    0.01</time>
   <time name="total">    0.91    0.95</time>
   <energy>
    <i name="e_fr_energy">   -375.59509431 </i>
    <i name="e_wo_entrp">   -375.60375032 </i>
    <i name="e_0_energy">   -375.59797965 </i>
   </energy>
  </scstep>
  <scstep>
   <time name="diag">    0.08    0.09</time>
   <time name="diis">    0.56    0.58</time>
   <time name="orth">    0.01    0.01</time>
   <time name="total">    0.72    0.77</time>
   <energy>
    <i name="e_fr_energy">   -375.59509050 </i>
    <i name="e_wo_entrp">   -375.60372754 </i>
    <i name="e_0_energy">   -375.59796951 </i>
   </energy>
  </scstep>
  <scstep>
   <time name="diag">    0.08    0.08</time>
   <time name="diis">    0.49    0.49</time>
   <time name="orth">    0.01    0.01</time>
   <time name="total">    0.62    0.65</time>
   <energy>
    <i name="alphaZ">   1622.60989567 </i>
    <i name="ewald"> -19970.18565195 </i>
    <i name="hartreedc">  -6413.85603291 </i>
    <i name="XCdc">   -383.44888272 </i>
    <i name="pawpsdc">  34151.62933952 </i>
    <i name="pawaedc"> -32438.95416290 </i>
    <i name="eentropy">      0.00865045 </i>
    <i name="bandstr">  -2484.00101868 </i>
    <i name="atom">  25540.60277421 </i>
    <i name="e_fr_energy">   -375.59508930 </i>
    <i name="e_wo_entrp">   -375.60373975 </i>
    <i name="e_0_energy">   -375.59797279 </i>
   </energy>
  </scstep>
  <structure>
   <crystal>
    <varray name="basis" >
     <v>       6.81546424      -0.01660284      -0.02325431 </v>
     <v>      -0.02370045      10.12472953       0.00435899 </v>
     <v>      -0.03458177       0.00397464      10.20161391 </v>
    </varray>
    <i name="volume">    703.94736493 </i>
    <varray name="rec_basis" >
     <v>       0.14672768       0.00034325       0.00049725 </v>
     <v>       0.00024048       0.09876865      -0.00003767 </v>
     <v>       0.00033436      -0.00004142       0.09802486 </v>
    </varray>
   </crystal>
   <varray name="positions" >
    <v>       0.52222018       0.99667666       0.00285103 </v>
    <v>       0.25258320       0.84434064       0.49668256 </v>
    <v>       0.75218384       0.84059820       0.49681298 </v>
    <v>       0.25155713       0.50459349       0.17651798 </v>
    <v>       0.74260567       0.49131616       0.49990971 </v>
    <v>       0.74875840       0.84111679       0.17015076 </v>
    <v>       0.97914311       0.00234708       0.00349547 </v>
    <v>       0.75872155       0.49800664       0.82190080 </v>
    <v>       0.26006849       0.16235313       0.49618371 </v>
    <v>       0.26811042       0.14934519       0.82792711 </v>
    <v>       0.50487046       0.99088665       0.65847514 </v>
    <v>       0.49710845       0.33034674       0.34150271 </v>
    <v>       0.74749602       0.16270570       0.17463746 </v>
    <v>       0.74347916       0.16610288       0.49813408 </v>
    <v>       0.25340865       0.83361992       0.16693777 </v>
    <v>       0.01326600       0.33248324       0.66351899 </v>
    <v>       0.73012149       0.16864304       0.82563973 </v>
    <v>       0.50441356       0.67165664       0.66234637 </v>
    <v>       0.47908064       0.33903259       0.99304305 </v>
    <v>       0.99924966       0.00691190       0.66098249 </v>
    <v>       0.98882547       0.66616954       0.99762193 </v>
    <v>       0.50001547       0.66452468       0.34379991 </v>
    <v>       0.76050135       0.83686453       0.83398371 </v>
    <v>       0.25781391       0.49513016       0.49601943 </v>
    <v>       0.50927133       0.00091434       0.33748285 </v>
    <v>       0.99417218       0.99878294       0.33696622 </v>
    <v>       0.99485322       0.66396911       0.66164666 </v>
    <v>       0.00349153       0.33144454       0.34578375 </v>
    <v>       0.23025875       0.52090594       0.83037116 </v>
    <v>       0.48889697       0.33896328       0.66286744 </v>
    <v>       0.00051325       0.66690559       0.34265088 </v>
    <v>       0.24090091       0.83812787       0.83561660 </v>
    <v>       0.74934574       0.48975065       0.17619031 </v>
    <v>       0.01368001       0.33180538       0.99322100 </v>
    <v>       0.50965191       0.66353212       0.99508381 </v>
    <v>       0.24935890       0.15913907       0.17304946 </v>
   </varray>
  </structure>
  <varray name="forces" >
   <v>       0.05913912      -0.04785547       0.03822699 </v>
   <v>       0.28217826      -0.07659318      -0.23222982 </v>
   <v>      -0.28603359      -0.11831807      -0.26074534 </v>
   <v>      -0.01946425      -0.00304310       0.01977130 </v>
   <v>      -0.01666297      -0.03399533       0.03784575 </v>
   <v>       0.00404077       0.05871556      -0.00718770 </v>
   <v>      -0.02751191      -0.02714147      -0.08588679 </v>
   <v>       0.02363406       0.01456161      -0.05707275 </v>
   <v>       0.23335001       0.11857233      -0.19875013 </v>
   <v>       0.35466485       0.08416391       0.21574052 </v>
   <v>       0.01542369      -0.01255226      -0.01948240 </v>
   <v>       0.02005719       0.01934361      -0.01238469 </v>
   <v>       0.01884481      -0.05777326       0.02196856 </v>
   <v>      -0.26260380       0.17282725      -0.20872315 </v>
   <v>      -0.01340112       0.02380615       0.01720876 </v>
   <v>      -0.02109100      -0.08826611      -0.01810109 </v>
   <v>      -0.27609866       0.15439656       0.12662227 </v>
   <v>       0.01531449      -0.02330393      -0.00418899 </v>
   <v>      -0.02791633       0.07541143       0.06066642 </v>
   <v>      -0.01226207       0.09725387      -0.01108987 </v>
   <v>      -0.00951914      -0.00878285       0.00196950 </v>
   <v>      -0.01533899      -0.00249133      -0.00249215 </v>
   <v>      -0.06801926      -0.13744272       0.25120819 </v>
   <v>       0.00062713      -0.05596745       0.00687341 </v>
   <v>       0.03357422      -0.01618212      -0.00975428 </v>
   <v>      -0.03211258      -0.03283487       0.14554376 </v>
   <v>      -0.03810269       0.04307798       0.02212490 </v>
   <v>      -0.00578146       0.02518568       0.00947646 </v>
   <v>      -0.02569079       0.00546774      -0.04376379 </v>
   <v>      -0.02111592       0.03745812      -0.02657603 </v>
   <v>       0.01028613      -0.02155964       0.00741720 </v>
   <v>       0.07824139      -0.10117635       0.17472216 </v>
   <v>      -0.00150138       0.00831337       0.00559742 </v>
   <v>       0.01624495      -0.00595346      -0.02290016 </v>
   <v>       0.00768632      -0.03616647       0.03838119 </v>
   <v>       0.00692051      -0.03115573       0.01996440 </v>
  </varray>
  <varray name="stress" >
   <v>     -11.25579787      -0.47606510       0.33396144 </v>
   <v>      -0.47606509     -13.52857514      -0.14327452 </v>
   <v>       0.33396143      -0.14327449     -12.19211883 </v>
  </varray>
  <energy>
   <i name="e_fr_energy">   -375.59508930 </i>
   <i name="e_wo_entrp">   -375.59797279 </i>
   <i name="e_0_energy">      0.00865045 </i>
  </energy>
  <time name="totalsc">   14.49   15.15</time>
 </calculation>
 <calculation>
  <scstep>
   <time name="dav">    1.04    1.13</time>
   <time name="total">    1.86    2.06</time>
   <energy>
    <i name="alphaZ">   1625.31790156 </i>
    <i name="ewald"> -19976.11201308 </i>
    <i name="hartreedc">  -6422.37443381 </i>
    <i name="XCdc">   -382.95647634 </i>
    <i name="pawpsdc">  34151.18108618 </i>
    <i name="pawaedc"> -32438.54386567 </i>
    <i name="eentropy">      0.00943313 </i>
    <i name="bandstr">  -2472.75528928 </i>
    <i name="atom">  25540.60277421 </i>
    <i name="e_fr_energy">   -375.63088309 </i>
    <i name="e_wo_entrp">   -375.64031622 </i>
    <i name="e_0_energy">   -375.63402747 </i>
   </energy>
  </scstep>
  <scstep>
   <time name="diag">    1.21    1.22</time>
   <time name="diis">    0.75    0.77</time>
   <time name="orth">    0.01    0.01</time>
   <time name="total">    2.05    2.11</time>
   <energy>
    <i name="e_fr_energy">   -375.63150828 </i>
    <i name="e_wo_entrp">   -375.64151773 </i>
    <i name="e_0_energy">   -375.63484476 </i>
   </energy>
  </scstep>
  <scstep>
   <time name="diag">    0.10    0.10</time>
   <time name="diis">    0.85    0.87</time>
   <time name="orth">    0.01    0.01</time>
   <time name="total">    1.03    1.08</time>
   <energy>
    <i name="e_fr_energy">   -375.62947418 </i>
    <i name="e_wo_entrp">   -375.63924240 </i>
    <i name="e_0_energy">   -375.63273026 </i>
   </energy>
  </scstep>
  <scstep>
   <time name="diag">    0.08    0.08</time>
   <time name="diis">    1.47    1.48</time>
   <time name="orth">    0.01    0.01</time>
   <time name="total">    1.63    1.66</time>
   <energy>
    <i name="e_fr_energy">   -375.62852630 </i>
    <i name="e_wo_entrp">   -375.63815353 </i>
    <i name="e_0_energy">   -375.63173538 </i>
   </energy>
  </scstep>
  <scstep>
   <time name="diag">    0.09    0.09</time>
   <time name="diis">    0.81    0.82</time>
   <time name="orth">    0.01    0.01</time>
   <time name="total">    0.98    1.01</time>
   <energy>
    <i name="e_fr_energy">   -375.62829654 </i>
    <i name="e_wo_entrp">   -375.63802826 </i>
    <i name="e_0_energy">   -375.63154045 </i>
   </energy>
  </scstep>
  <scstep>
   <time name="diag">    0.08    0.08</time>
   <time name="diis">    0.94    0.95</time>
   <time name="orth">    0.01    0.01</time>
   <time name="total">    1.10    1.13</time>
   <energy>
    <i name="e_fr_energy">   -375.62829960 </i>
    <i name="e_wo_entrp">   -375.63806309 </i>
    <i name="e_0_energy">   -375.63155410 </i>
   </energy>
  </scstep>
  <scstep>
   <time name="diag">    0.17    0.17</time>
   <time name="diis">    1.06    1.06</time>
   <time name="orth">    0.01    0.01</time>
   <time name="total">    1.36    1.39</time>
   <energy>
    <i name="e_fr_energy">   -375.62831475 </i>
    <i name="e_wo_entrp">   -375.63802008 </i>
    <i name="e_0_energy">   -375.63154986 </i>
   </energy>
  </scstep>
  <scstep>
   <time name="diag">    0.08    0.09</time>
   <time name="diis">    0.66    0.67</time>
   <time name="orth">    0.01    0.01</time>
   <time name="total">    0.83    0.86</time>
   <energy>
    <i name="e_fr_energy">   -375.62833166 </i>
    <i name="e_wo_entrp">   -375.63805964 </i>
    <i name="e_0_energy">   -375.63157432 </i>
   </energy>
  </scstep>
  <scstep>
   <time name="diag">    0.08    0.08</time>
   <time name="diis">    0.48    0.49</time>
   <time name="orth">    0.01    0.01</time>
   <time name="total">    0.61    0.64</time>
   <energy>
    <i name="alphaZ">   1625.31790156 </i>
    <i name="ewald"> -19976.11201308 </i>
    <i name="hartreedc">  -6415.91726814 </i>
    <i name="XCdc">   -383.23063630 </i>
    <i name="pawpsdc">  34225.17936996 </i>
    <i name="pawaedc"> -32512.62703155 </i>
    <i name="eentropy">      0.00973093 </i>
    <i name="bandstr">  -2478.85116862 </i>
    <i name="atom">  25540.60277421 </i>
    <i name="e_fr_energy">   -375.62834104 </i>
    <i name="e_wo_entrp">   -375.63807196 </i>
    <i name="e_0_energy">   -375.63158468 </i>
   </energy>
  </scstep>
  <structure>
   <crystal>
    <varray name="basis" >
     <v>       6.81413434      -0.01735672      -0.02249592 </v>
     <v>      -0.02483941      10.11552065       0.00385703 </v>
     <v>      -0.03346106       0.00347424      10.19587571 </v>
    </varray>
    <i name="volume">    702.77449062 </i>
    <varray name="rec_basis" >
     <v>       0.14675629       0.00036019       0.00048151 </v>
     <v>       0.00025170       0.09885862      -0.00003286 </v>
     <v>       0.00032370      -0.00003660       0.09807995 </v>
    </varray>
   </crystal>
   <varray name="positions" >
    <v>       0.52225793       0.99659192       0.00289139 </v>
    <v>       0.25356385       0.84404389       0.49608730 </v>
    <v>       0.75119017       0.84020752       0.49617042 </v>
    <v>       0.25150359       0.50460420       0.17653278 </v>
    <v>       0.74253190       0.49125340       0.49995769 </v>
    <v>       0.74870460       0.84115417       0.17014500 </v>
    <v>       0.97916286       0.00230510       0.00329940 </v>
    <v>       0.75868788       0.49801812       0.82183867 </v>
    <v>       0.26092712       0.16266961       0.49567616 </v>
    <v>       0.26939732       0.14965996       0.82855179 </v>
    <v>       0.50492157       0.99089253       0.65846043 </v>
    <v>       0.49717033       0.33034235       0.34149150 </v>
    <v>       0.74748329       0.16265070       0.17466242 </v>
    <v>       0.74248020       0.16657881       0.49757094 </v>
    <v>       0.25341365       0.83362928       0.16695307 </v>
    <v>       0.01314473       0.33229235       0.66349721 </v>
    <v>       0.72919804       0.16907525       0.82596437 </v>
    <v>       0.50443706       0.67162195       0.66234024 </v>
    <v>       0.47902591       0.33908779       0.99310445 </v>
    <v>       0.99917628       0.00714510       0.66099250 </v>
    <v>       0.98880818       0.66618414       0.99761125 </v>
    <v>       0.49998890       0.66454821       0.34380769 </v>
    <v>       0.76009534       0.83641961       0.83460760 </v>
    <v>       0.25783924       0.49502470       0.49602358 </v>
    <v>       0.50935472       0.00088329       0.33748162 </v>
    <v>       0.99412899       0.99873888       0.33732383 </v>
    <v>       0.99477295       0.66411849       0.66168783 </v>
    <v>       0.00347513       0.33148415       0.34577635 </v>
    <v>       0.23029501       0.52091170       0.83032626 </v>
    <v>       0.48888113       0.33901016       0.66286464 </v>
    <v>       0.00052731       0.66687197       0.34263925 </v>
    <v>       0.24131649       0.83780972       0.83609516 </v>
    <v>       0.74934392       0.48978615       0.17618747 </v>
    <v>       0.01368447       0.33177436       0.99317866 </v>
    <v>       0.50966971       0.66351416       0.99512882 </v>
    <v>       0.24943723       0.15910930       0.17307728 </v>
   </varray>
  </structure>
  <varray name="forces" >
   <v>       0.05863079      -0.04891128       0.04585419 </v>
   <v>       0.24303946      -0.05328376      -0.18924275 </v>
   <v>      -0.24721013      -0.08871639      -0.21662841 </v>
   <v>      -0.02704432      -0.00544833       0.01729396 </v>
   <v>       0.00179516      -0.02441240       0.05197764 </v>
   <v>       0.02063084       0.05274549      -0.00161662 </v>
   <v>      -0.01857556      -0.02342185      -0.07966110 </v>
   <v>       0.03015646       0.01461050      -0.06336286 </v>
   <v>       0.18647037       0.09539683      -0.15164555 </v>
   <v>       0.28987490       0.05528547       0.15776766 </v>
   <v>       0.01595497      -0.01484259      -0.00996111 </v>
   <v>       0.01772146       0.03527080      -0.04064984 </v>
   <v>       0.03451191      -0.05271825       0.01850069 </v>
   <v>      -0.20548518       0.13764813      -0.15285804 </v>
   <v>      -0.02458059       0.02782699       0.02286225 </v>
   <v>      -0.01324986      -0.08733952      -0.01502898 </v>
   <v>      -0.23670537       0.12398579       0.10682385 </v>
   <v>       0.01262379      -0.02704739       0.00133050 </v>
   <v>      -0.02166850       0.10020922       0.08537451 </v>
   <v>      -0.00597653       0.07951227      -0.00898451 </v>
   <v>      -0.00780043      -0.01251308       0.01708135 </v>
   <v>      -0.01739277      -0.00670920      -0.02182031 </v>
   <v>      -0.03046916      -0.09873338       0.19870422 </v>
   <v>      -0.01846191      -0.03970854       0.02035910 </v>
   <v>       0.02113750      -0.02113268      -0.02994872 </v>
   <v>      -0.02635580      -0.02946786       0.11109768 </v>
   <v>      -0.03685430       0.03272958       0.01859320 </v>
   <v>      -0.00501658       0.02377555      -0.00266686 </v>
   <v>      -0.03127822      -0.00491299      -0.05448335 </v>
   <v>      -0.03149871       0.04282458      -0.02817374 </v>
   <v>       0.01262915      -0.02601406       0.00838730 </v>
   <v>       0.04685020      -0.07386287       0.13335963 </v>
   <v>       0.00485517       0.00626002      -0.00025823 </v>
   <v>       0.01500292      -0.00599552      -0.01662050 </v>
   <v>       0.00123653      -0.04848590       0.05450930 </v>
   <v>      -0.00749766      -0.03440336       0.01373442 </v>
  </varray>
  <varray name="stress" >
   <v>      -9.04577836      -0.47651077       0.23379027 </v>
   <v>      -0.47651074     -10.83761710      -0.11500683 </v>
   <v>       0.23379025      -0.11500683      -9.69597689 </v>
  </varray>
  <energy>
   <i name="e_fr_energy">   -375.62834104 </i>
   <i name="e_wo_entrp">   -375.63158468 </i>
   <i name="e_0_energy">      0.00973093 </i>
  </energy>
  <time name="totalsc">   14.08   14.70</time>
 </calculation>
 <calculation>
  <scstep>
   <time name="dav">    1.18    1.29</time>
   <time name="total">    1.36    1.59</time>
   <energy>
    <i name="alphaZ">   1633.48121233 </i>
    <i name="ewald"> -19993.21195076 </i>
    <i name="hartreedc">  -6442.29105253 </i>
    <i name="XCdc">   -381.74184997 </i>
    <i name="pawpsdc">  34225.49709421 </i>
    <i name="pawaedc"> -32512.89305831 </i>
    <i name="eentropy">      0.01119851 </i>
    <i name="bandstr">  -2445.16036861 </i>
    <i name="atom">  25540.60277421 </i>
    <i name="e_fr_energy">   -375.70600091 </i>
    <i name="e_wo_entrp">   -375.71719943 </i>
    <i name="e_0_energy">   -375.70973375 </i>
   </energy>
  </scstep>
  <scstep>
   <time name="diag">    0.08    0.28</time>
   <time name="diis">    0.82    0.83</time>
   <time name="orth">    0.01    0.01</time>
   <time name="total">    0.98    1.60</time>
   <energy>
    <i name="e_fr_energy">   -375.71098101 </i>
    <i name="e_wo_entrp">   -375.72371943 </i>
    <i name="e_0_energy">   -375.71522715 </i>
   </energy>
  </scstep>
  <scstep>
   <time name="diag">    0.08    0.09</time>
   <time name="diis">    1.43    1.63</time>
   <time name="orth">    0.01    0.01</time>
   <time name="total">    1.59    1.82</time>
   <energy>
    <i name="e_fr_energy">   -375.69207972 </i>
    <i name="e_wo_entrp">   -375.70375523 </i>
    <i name="e_0_energy">   -375.69597156 </i>
   </energy>
  </scstep>
  <scstep>
   <time name="diag">    0.15    0.15</time>
   <time name="diis">    0.81    0.82</time>
   <time name="orth">    0.01    0.01</time>
   <time name="total">    1.05    1.10</time>
   <energy>
    <i name="e_fr_energy">   -375.68362725 </i>
    <i name="e_wo_entrp">   -375.69544241 </i>
    <i name="e_0_energy">   -375.68756563 </i>
   </energy>
  </scstep>
  <scstep>
   <time name="diag">    0.08    0.08</time>
   <time name="diis">    0.84    0.85</time>
   <time name="orth">    0.01    0.01</time>
   <time name="total">    1.00    1.04</time>
   <energy>
    <i name="e_fr_energy">   -375.68172750 </i>
    <i name="e_wo_entrp">   -375.69356438 </i>
    <i name="e_0_energy">   -375.68567312 </i>
   </energy>
  </scstep>
  <scstep>
   <time name="diag">    0.12    0.12</time>
   <time name="diis">    0.95    0.96</time>
   <time name="orth">    0.01    0.01</time>
   <time name="total">    1.17    1.20</time>
   <energy>
    <i name="e_fr_energy">   -375.68173927 </i>
    <i name="e_wo_entrp">   -375.69372733 </i>
    <i name="e_0_energy">   -375.68573529 </i>
   </energy>
  </scstep>
  <scstep>
   <time name="diag">    0.08    0.09</time>
   <time name="diis">    0.91    0.91</time>
   <time name="orth">    0.01    0.02</time>
   <time name="total">    1.09    1.14</time>
   <energy>
    <i name="e_fr_energy">   -375.68184776 </i>
    <i name="e_wo_entrp">   -375.69366651 </i>
    <i name="e_0_energy">   -375.68578734 </i>
   </energy>
  </scstep>
  <scstep>
   <time name="diag">    0.08    0.08</time>
   <time name="diis">    0.85    0.85</time>
   <time name="orth">    0.01    0.01</time>
   <time name="total">    1.01    1.04</time>
   <energy>
    <i name="e_fr_energy">   -375.68196752 </i>
    <i name="e_wo_entrp">   -375.69385918 </i>
    <i name="e_0_energy">   -375.68593140 </i>
   </energy>
  </scstep>
  <scstep>
   <time name="diag">    0.08    0.08</time>
   <time name="diis">    0.77    0.77</time>
   <time name="orth">    0.01    0.01</time>
   <time name="total">    0.93    0.95</time>
   <energy>
    <i name="e_fr_energy">   -375.68201650 </i>
    <i name="e_wo_entrp">   -375.69391420 </i>
    <i name="e_0_energy">   -375.68598240 </i>
   </energy>
  </scstep>
  <scstep>
   <time name="diag">    0.08    0.08</time>
   <time name="diis">    0.70    0.70</time>
   <time name="orth">    0.01    0.01</time>
   <time name="total">    0.85    0.88</time>
   <energy>
    <i name="e_fr_energy">   -375.68205641 </i>
    <i name="e_wo_entrp">   -375.69395425 </i>
    <i name="e_0_energy">   -375.68602236 </i>
   </energy>
  </scstep>
  <scstep>
   <time name="diag">    0.08    0.08</time>
   <time name="diis">    0.56    0.56</time>
   <time name="orth">    0.01    0.01</time>
   <time name="total">    0.72    0.74</time>
   <energy>
    <i name="e_fr_energy">   -375.68207663 </i>
    <i name="e_wo_entrp">   -375.69396353 </i>
    <i name="e_0_energy">   -375.68603893 </i>
   </energy>
  </scstep>
  <scstep>
   <time name="diag">    0.09    0.09</time>
   <time name="diis">    0.46    0.46</time>
   <time name="orth">    0.01    0.01</time>
   <time name="total">    0.59    0.62</time>
   <energy>
    <i name="alphaZ">   1633.48121233 </i>
    <i name="ewald"> -19993.21195076 </i>
    <i name="hartreedc">  -6423.61424532 </i>
    <i name="XCdc">   -382.53609106 </i>
    <i name="pawpsdc">  34466.12998082 </i>
    <i name="pawaedc"> -32753.00584146 </i>
    <i name="eentropy">      0.01188832 </i>
    <i name="bandstr">  -2463.53980959 </i>
    <i name="atom">  25540.60277421 </i>
    <i name="e_fr_energy">   -375.68208251 </i>
    <i name="e_wo_entrp">   -375.69397083 </i>
    <i name="e_0_energy">   -375.68604529 </i>
   </energy>
  </scstep>
  <structure>
   <crystal>
    <varray name="basis" >
     <v>       6.81014463      -0.01961835      -0.02022073 </v>
     <v>      -0.02825629      10.08789400       0.00235118 </v>
     <v>      -0.03009896       0.00197306      10.17866108 </v>
    </varray>
    <i name="volume">    699.26238009 </i>
    <varray name="rec_basis" >
     <v>       0.14684223       0.00041121       0.00043414 </v>
     <v>       0.00028551       0.09912952      -0.00001837 </v>
     <v>       0.00029165      -0.00002208       0.09824562 </v>
    </varray>
   </crystal>
   <varray name="positions" >
    <v>       0.52237114       0.99633746       0.00301250 </v>
    <v>       0.25650651       0.84315297       0.49430024 </v>
    <v>       0.74820872       0.83903407       0.49424181 </v>
    <v>       0.25134292       0.50463636       0.17657720 </v>
    <v>       0.74231048       0.49106495       0.50010171 </v>
    <v>       0.74854319       0.84126639       0.17012770 </v>
    <v>       0.97922221       0.00217902       0.00271086 </v>
    <v>       0.75858686       0.49805258       0.82165220 </v>
    <v>       0.26350394       0.16362005       0.49415251 </v>
    <v>       0.27325861       0.15060552       0.83042667 </v>
    <v>       0.50507492       0.99091021       0.65841628 </v>
    <v>       0.49735601       0.33032917       0.34145782 </v>
    <v>       0.74744503       0.16248555       0.17473734 </v>
    <v>       0.73948326       0.16800760       0.49588087 </v>
    <v>       0.25342865       0.83365742       0.16699902 </v>
    <v>       0.01278076       0.33171914       0.66343185 </v>
    <v>       0.72642724       0.17037291       0.82693909 </v>
    <v>       0.50450753       0.67151780       0.66232181 </v>
    <v>       0.47886168       0.33925352       0.99328879 </v>
    <v>       0.99895621       0.00784533       0.66102260 </v>
    <v>       0.98875633       0.66622798       0.99757920 </v>
    <v>       0.49990916       0.66461887       0.34383106 </v>
    <v>       0.75887653       0.83508363       0.83648032 </v>
    <v>       0.25791519       0.49470802       0.49603602 </v>
    <v>       0.50960492       0.00079010       0.33747789 </v>
    <v>       0.99399921       0.99860661       0.33839726 </v>
    <v>       0.99453215       0.66456700       0.66181147 </v>
    <v>       0.00342595       0.33160307       0.34575415 </v>
    <v>       0.23040384       0.52092899       0.83019148 </v>
    <v>       0.48883364       0.33915092       0.66285625 </v>
    <v>       0.00056948       0.66677104       0.34260430 </v>
    <v>       0.24256306       0.83685457       0.83753150 </v>
    <v>       0.74933848       0.48989275       0.17617897 </v>
    <v>       0.01369785       0.33168123       0.99305156 </v>
    <v>       0.50972311       0.66346025       0.99526394 </v>
    <v>       0.24967223       0.15901993       0.17316077 </v>
   </varray>
  </structure>
  <varray name="forces" >
   <v>       0.05403656      -0.05297128       0.07153400 </v>
   <v>       0.11567613       0.01763962      -0.05592994 </v>
   <v>      -0.12029483       0.00203978      -0.07468562 </v>
   <v>      -0.04881147      -0.01352553       0.00986190 </v>
   <v>       0.05780626       0.00539683       0.09473237 </v>
   <v>       0.07246203       0.03462714       0.01207467 </v>
   <v>       0.01003422      -0.01272166      -0.05852278 </v>
   <v>       0.05104149       0.01694058      -0.08225047 </v>
   <v>       0.03809698       0.02336603      -0.00187246 </v>
   <v>       0.07880745      -0.03448110      -0.02433753 </v>
   <v>       0.01737381      -0.01643567       0.02044578 </v>
   <v>       0.01044887       0.09323961      -0.13811874 </v>
   <v>       0.08432630      -0.03744612       0.00793433 </v>
   <v>      -0.02645281       0.02835074       0.02066663 </v>
   <v>      -0.05914243       0.04096461       0.03824142 </v>
   <v>       0.00729725      -0.07458993      -0.00268190 </v>
   <v>      -0.09929340       0.02960123       0.04509455 </v>
   <v>       0.00315825      -0.03929019       0.02381248 </v>
   <v>       0.00020514       0.18616558       0.16688412 </v>
   <v>       0.01180210       0.01978257      -0.00030108 </v>
   <v>      -0.00194827      -0.02664084       0.06603994 </v>
   <v>      -0.02374187      -0.02977841      -0.09315030 </v>
   <v>       0.08197069       0.01717819       0.03534608 </v>
   <v>      -0.07748065       0.00933772       0.06511429 </v>
   <v>      -0.01902105      -0.03545113      -0.09849631 </v>
   <v>      -0.00642696      -0.01688042       0.00996411 </v>
   <v>      -0.03026111       0.00089500       0.00903102 </v>
   <v>      -0.00357065       0.01695892      -0.04149608 </v>
   <v>      -0.04805890      -0.04028765      -0.09052873 </v>
   <v>      -0.06090653       0.06098830      -0.03184073 </v>
   <v>       0.01960002      -0.03982635       0.00955698 </v>
   <v>      -0.04956789       0.00946208       0.00419605 </v>
   <v>       0.02419025      -0.00066363      -0.01976945 </v>
   <v>       0.00888937      -0.00481361       0.00159574 </v>
   <v>      -0.01925503      -0.09001741       0.10719462 </v>
   <v>      -0.05298933      -0.04711364      -0.00533896 </v>
  </varray>
  <varray name="stress" >
   <v>      -1.40176052      -0.41941241      -0.07864807 </v>
   <v>      -0.41941244      -1.56950486       0.00803450 </v>
   <v>      -0.07864813       0.00803454      -1.20831234 </v>
  </varray>
  <energy>
   <i name="e_fr_energy">   -375.68208251 </i>
   <i name="e_wo_entrp">   -375.68604529 </i>
   <i name="e_0_energy">      0.01188832 </i>
  </energy>
  <time name="totalsc">   14.03   15.66</time>
 </calculation>
 <calculation>
  <scstep>
   <time name="dav">    1.02    1.04</time>
   <time name="total">    1.21    1.34</time>
   <energy>
    <i name="alphaZ">   1635.53350757 </i>
    <i name="ewald"> -19997.32506218 </i>
    <i name="hartreedc">  -6430.38757468 </i>
    <i name="XCdc">   -382.16108997 </i>
    <i name="pawpsdc">  34466.36776682 </i>
    <i name="pawaedc"> -32753.22205990 </i>
    <i name="eentropy">      0.01197294 </i>
    <i name="bandstr">  -2455.10594841 </i>
    <i name="atom">  25540.60277421 </i>
    <i name="e_fr_energy">   -375.68571359 </i>
    <i name="e_wo_entrp">   -375.69768654 </i>
    <i name="e_0_energy">   -375.68970457 </i>
   </energy>
  </scstep>
  <scstep>
   <time name="diag">    0.08    0.08</time>
   <time name="diis">    0.74    0.74</time>
   <time name="orth">    0.01    0.01</time>
   <time name="total">    0.89    0.92</time>
   <energy>
    <i name="e_fr_energy">   -375.68596090 </i>
    <i name="e_wo_entrp">   -375.69830749 </i>
    <i name="e_0_energy">   -375.69007643 </i>
   </energy>
  </scstep>
  <scstep>
   <time name="diag">    0.14    0.14</time>
   <time name="diis">    0.80    0.81</time>
   <time name="orth">    0.01    0.01</time>
   <time name="total">    1.04    1.07</time>
   <energy>
    <i name="e_fr_energy">   -375.68483386 </i>
    <i name="e_wo_entrp">   -375.69689037 </i>
    <i name="e_0_energy">   -375.68885269 </i>
   </energy>
  </scstep>
  <scstep>
   <time name="diag">    0.08    0.08</time>
   <time name="diis">    0.86    0.87</time>
   <time name="orth">    0.01    0.01</time>
   <time name="total">    1.02    1.04</time>
   <energy>
    <i name="e_fr_energy">   -375.68431125 </i>
    <i name="e_wo_entrp">   -375.69641854 </i>
    <i name="e_0_energy">   -375.68834701 </i>
   </energy>
  </scstep>
  <scstep>
   <time name="diag">    0.13    0.13</time>
   <time name="diis">    0.81    0.82</time>
   <time name="orth">    0.01    0.01</time>
   <time name="total">    1.03    1.06</time>
   <energy>
    <i name="e_fr_energy">   -375.68420936 </i>
    <i name="e_wo_entrp">   -375.69630288 </i>
    <i name="e_0_energy">   -375.68824053 </i>
   </energy>
  </scstep>
  <scstep>
   <time name="diag">    0.08    0.08</time>
   <time name="diis">    0.78    0.79</time>
   <time name="orth">    0.01    0.01</time>
   <time name="total">    0.94    0.96</time>
   <energy>
    <i name="e_fr_energy">   -375.68422336 </i>
    <i name="e_wo_entrp">   -375.69635791 </i>
    <i name="e_0_energy">   -375.68826821 </i>
   </energy>
  </scstep>
  <scstep>
   <time name="diag">    0.08    0.08</time>
   <time name="diis">    0.66    0.67</time>
   <time name="orth">    0.01    0.01</time>
   <time name="total">    0.81    0.84</time>
   <energy>
    <i name="e_fr_energy">   -375.68423980 </i>
    <i name="e_wo_entrp">   -375.69633516 </i>
    <i name="e_0_energy">   -375.68827158 </i>
   </energy>
  </scstep>
  <scstep>
   <time name="diag">    0.08    0.08</time>
   <time name="diis">    0.49    0.49</time>
   <time name="orth">    0.01    0.01</time>
   <time name="total">    0.64    0.68</time>
   <energy>
    <i name="e_fr_energy">   -375.68425397 </i>
    <i name="e_wo_entrp">   -375.69636480 </i>
    <i name="e_0_energy">   -375.68829091 </i>
   </energy>
  </scstep>
  <scstep>
[...]
       <r>    7.0697    1.0000 </r>
       <r>    7.0791    1.0000 </r>
       <r>    7.1556    1.0000 </r>
       <r>    7.1978    1.0000 </r>
       <r>    7.2436    1.0001 </r>
       <r>    7.2577    1.0002 </r>
       <r>    7.2998    1.0008 </r>
       <r>    7.3358    1.0023 </r>
       <r>    7.3639    1.0048 </r>
       <r>    7.3980    1.0102 </r>
       <r>    7.4175    1.0147 </r>
       <r>    7.4684    1.0297 </r>
       <r>    7.4917    1.0347 </r>
       <r>    7.5072    1.0353 </r>
       <r>    7.5380    1.0240 </r>
       <r>    7.5593    1.0012 </r>
       <r>    7.5740    0.9760 </r>
       <r>    7.6261    0.8116 </r>
       <r>    7.6451    0.7236 </r>
       <r>    7.7075    0.3825 </r>
       <r>    7.7315    0.2578 </r>
       <r>    7.7597    0.1363 </r>
       <r>    7.7988    0.0242 </r>
       <r>    7.8247   -0.0151 </r>
       <r>    7.8683   -0.0354 </r>
       <r>    7.9342   -0.0207 </r>
       <r>    7.9570   -0.0143 </r>
       <r>    7.9735   -0.0104 </r>
       <r>    8.0364   -0.0024 </r>
       <r>    8.1013   -0.0003 </r>
       <r>    8.1304   -0.0001 </r>
       <r>    8.1419   -0.0001 </r>
       <r>    8.2213   -0.0000 </r>
       <r>    8.2752   -0.0000 </r>
       <r>    8.3428   -0.0000 </r>
       <r>    8.4944   -0.0000 </r>
       <r>    8.5414   -0.0000 </r>
       <r>    8.7460   -0.0000 </r>
       <r>    8.8124   -0.0000 </r>
       <r>    8.9005   -0.0000 </r>
       <r>    9.6221   -0.0000 </r>
       <r>    9.6822   -0.0000 </r>
       <r>    9.7042   -0.0000 </r>
       <r>    9.7664   -0.0000 </r>
       <r>    9.8177   -0.0000 </r>
       <r>    9.8624   -0.0000 </r>
       <r>    9.9226   -0.0000 </r>
       <r>   10.0563   -0.0000 </r>
       <r>   10.1611   -0.0000 </r>
      </set>
     </set>
    </set>
   </array>
  </eigenvalues>
  <separator name="orbital magnetization" >
   <v name="MAGDIPOLOUT">      0.00000000      0.00000000      0.00000000</v>
  </separator>
  <dos>
   <i name="efermi">      7.68640804 </i>
   <total>
    <array>
     <dimension dim="1">gridpoints</dimension>
     <dimension dim="2">spin</dimension>
     <field>energy</field>
     <field>total</field>
     <field>integrated</field>
     <set>
      <set comment="spin 1">
       <r>   -49.3832     0.0000     0.0000 </r>
       <r>   -49.1752     0.0000     0.0000 </r>
       <r>   -48.9673     0.0000     0.0000 </r>
       <r>   -48.7594     0.0000     0.0000 </r>
       <r>   -48.5514     0.0000     0.0000 </r>
       <r>   -48.3435     0.0000     0.0000 </r>
       <r>   -48.1356     0.0000     0.0000 </r>
       <r>   -47.9276    -0.0000    -0.0000 </r>
       <r>   -47.7197    -0.0000    -0.0000 </r>
       <r>   -47.5118    -0.0000    -0.0000 </r>
       <r>   -47.3038    -0.0000    -0.0000 </r>
       <r>   -47.0959    -0.0000    -0.0000 </r>
       <r>   -46.8880    -0.0479    -0.0100 </r>
       <r>   -46.6800    -1.8286    -0.3902 </r>
       <r>   -46.4721    37.1943     7.3438 </r>
       <r>   -46.2642    60.7518    19.9761 </r>
       <r>   -46.0562     0.3767    20.0544 </r>
       <r>   -45.8483    -0.2611    20.0001 </r>
       <r>   -45.6404    -0.0004    20.0000 </r>
       <r>   -45.4324    -0.0000    20.0000 </r>
       <r>   -45.2245    -0.0000    20.0000 </r>
       <r>   -45.0166     0.0000    20.0000 </r>
       <r>   -44.8086     0.0000    20.0000 </r>
       <r>   -44.6007     0.0000    20.0000 </r>
       <r>   -44.3928     0.0000    20.0000 </r>
       <r>   -44.1848     0.0000    20.0000 </r>
       <r>   -43.9769     0.0000    20.0000 </r>
       <r>   -43.7690     0.0000    20.0000 </r>
       <r>   -43.5610     0.0000    20.0000 </r>
       <r>   -43.3531     0.0000    20.0000 </r>
       <r>   -43.1452     0.0000    20.0000 </r>
       <r>   -42.9372     0.0000    20.0000 </r>
       <r>   -42.7293     0.0000    20.0000 </r>
       <r>   -42.5214     0.0000    20.0000 </r>
       <r>   -42.3134     0.0000    20.0000 </r>
       <r>   -42.1055     0.0000    20.0000 </r>
       <r>   -41.8976     0.0000    20.0000 </r>
       <r>   -41.6896    -0.0000    20.0000 </r>
       <r>   -41.4817    -0.0000    20.0000 </r>
       <r>   -41.2738    -0.0000    20.0000 </r>
       <r>   -41.0658    -0.0000    20.0000 </r>
       <r>   -40.8579    -0.0024    19.9995 </r>
       <r>   -40.6500    -0.5977    19.8752 </r>
       <r>   -40.4420     7.3519    21.4039 </r>
       <r>   -40.2341    45.5297    30.8711 </r>
       <r>   -40.0262     5.9497    32.1082 </r>
       <r>   -39.8182    -0.5185    32.0004 </r>
       <r>   -39.6103    -0.0018    32.0000 </r>
       <r>   -39.4024    -0.0000    32.0000 </r>
       <r>   -39.1944    -0.0000    32.0000 </r>
       <r>   -38.9865     0.0000    32.0000 </r>
       <r>   -38.7786     0.0000    32.0000 </r>
       <r>   -38.5706     0.0000    32.0000 </r>
       <r>   -38.3627     0.0000    32.0000 </r>
       <r>   -38.1548     0.0000    32.0000 </r>
       <r>   -37.9468     0.0000    32.0000 </r>
       <r>   -37.7389     0.0000    32.0000 </r>
       <r>   -37.5310     0.0000    32.0000 </r>
       <r>   -37.3230     0.0000    32.0000 </r>
       <r>   -37.1151     0.0000    32.0000 </r>
       <r>   -36.9072     0.0000    32.0000 </r>
       <r>   -36.6992     0.0000    32.0000 </r>
       <r>   -36.4913     0.0000    32.0000 </r>
       <r>   -36.2834     0.0000    32.0000 </r>
       <r>   -36.0754     0.0000    32.0000 </r>
       <r>   -35.8675     0.0000    32.0000 </r>
       <r>   -35.6596     0.0000    32.0000 </r>
       <r>   -35.4516     0.0000    32.0000 </r>
       <r>   -35.2437     0.0000    32.0000 </r>
       <r>   -35.0358     0.0000    32.0000 </r>
       <r>   -34.8278     0.0000    32.0000 </r>
       <r>   -34.6199     0.0000    32.0000 </r>
       <r>   -34.4120     0.0000    32.0000 </r>
       <r>   -34.2040     0.0000    32.0000 </r>
       <r>   -33.9961     0.0000    32.0000 </r>
       <r>   -33.7882     0.0000    32.0000 </r>
       <r>   -33.5802     0.0000    32.0000 </r>
       <r>   -33.3723     0.0000    32.0000 </r>
       <r>   -33.1644     0.0000    32.0000 </r>
       <r>   -32.9564     0.0000    32.0000 </r>
       <r>   -32.7485     0.0000    32.0000 </r>
       <r>   -32.5406     0.0000    32.0000 </r>
       <r>   -32.3326     0.0000    32.0000 </r>
       <r>   -32.1247     0.0000    32.0000 </r>
       <r>   -31.9168     0.0000    32.0000 </r>
       <r>   -31.7088     0.0000    32.0000 </r>
       <r>   -31.5009     0.0000    32.0000 </r>
       <r>   -31.2930     0.0000    32.0000 </r>
       <r>   -31.0850     0.0000    32.0000 </r>
       <r>   -30.8771     0.0000    32.0000 </r>
       <r>   -30.6692     0.0000    32.0000 </r>
       <r>   -30.4612     0.0000    32.0000 </r>
       <r>   -30.2533     0.0000    32.0000 </r>
       <r>   -30.0454     0.0000    32.0000 </r>
       <r>   -29.8374     0.0000    32.0000 </r>
       <r>   -29.6295     0.0000    32.0000 </r>
       <r>   -29.4216     0.0000    32.0000 </r>
       <r>   -29.2136     0.0000    32.0000 </r>
       <r>   -29.0057     0.0000    32.0000 </r>
       <r>   -28.7978     0.0000    32.0000 </r>
       <r>   -28.5898     0.0000    32.0000 </r>
       <r>   -28.3819     0.0000    32.0000 </r>
       <r>   -28.1740     0.0000    32.0000 </r>
       <r>   -27.9660     0.0000    32.0000 </r>
       <r>   -27.7581     0.0000    32.0000 </r>
       <r>   -27.5502     0.0000    32.0000 </r>
       <r>   -27.3422     0.0000    32.0000 </r>
       <r>   -27.1343     0.0000    32.0000 </r>
       <r>   -26.9264     0.0000    32.0000 </r>
       <r>   -26.7185     0.0000    32.0000 </r>
       <r>   -26.5105     0.0000    32.0000 </r>
       <r>   -26.3026     0.0000    32.0000 </r>
       <r>   -26.0947     0.0000    32.0000 </r>
       <r>   -25.8867     0.0000    32.0000 </r>
       <r>   -25.6788     0.0000    32.0000 </r>
       <r>   -25.4709     0.0000    32.0000 </r>
       <r>   -25.2629     0.0000    32.0000 </r>
       <r>   -25.0550     0.0000    32.0000 </r>
       <r>   -24.8471     0.0000    32.0000 </r>
       <r>   -24.6391     0.0000    32.0000 </r>
       <r>   -24.4312     0.0000    32.0000 </r>
       <r>   -24.2233    -0.0000    32.0000 </r>
       <r>   -24.0153    -0.0000    32.0000 </r>
       <r>   -23.8074    -0.0000    32.0000 </r>
       <r>   -23.5995    -0.0000    32.0000 </r>
       <r>   -23.3915    -0.0029    31.9994 </r>
       <r>   -23.1836    -0.6557    31.8631 </r>
       <r>   -22.9757     8.3334    33.5959 </r>
       <r>   -22.7677    39.9234    41.8973 </r>
       <r>   -22.5598   100.7633    62.8493 </r>
       <r>   -22.3519    98.1921    83.2667 </r>
       <r>   -22.1439    42.8992    92.1869 </r>
       <r>   -21.9360    -0.7568    92.0295 </r>
       <r>   -21.7281    -0.1419    92.0000 </r>
       <r>   -21.5201    -0.0001    92.0000 </r>
       <r>   -21.3122    -0.0000    92.0000 </r>
       <r>   -21.1043     0.0000    92.0000 </r>
       <r>   -20.8963     0.0000    92.0000 </r>
       <r>   -20.6884     0.0000    92.0000 </r>
       <r>   -20.4805     0.0000    92.0000 </r>
       <r>   -20.2725     0.0000    92.0000 </r>
       <r>   -20.0646    -0.0000    92.0000 </r>
       <r>   -19.8567    -0.0000    92.0000 </r>
       <r>   -19.6487    -0.0000    92.0000 </r>
       <r>   -19.4408    -0.0000    92.0000 </r>
       <r>   -19.2329    -0.0028    91.9994 </r>
       <r>   -19.0249    -0.5271    91.8898 </r>
       <r>   -18.8170     6.9348    93.3318 </r>
       <r>   -18.6091    29.3981    99.4446 </r>
       <r>   -18.4011    72.4912   114.5180 </r>
       <r>   -18.1932    55.5179   126.0620 </r>
       <r>   -17.9853    10.0609   128.1540 </r>
       <r>   -17.7773    -0.7309   128.0020 </r>
       <r>   -17.5694    -0.0098   128.0000 </r>
       <r>   -17.3615    -0.0000   128.0000 </r>
       <r>   -17.1535    -0.0000   128.0000 </r>
       <r>   -16.9456     0.0000   128.0000 </r>
       <r>   -16.7377     0.0000   128.0000 </r>
       <r>   -16.5297     0.0000   128.0000 </r>
       <r>   -16.3218     0.0000   128.0000 </r>
       <r>   -16.1139     0.0000   128.0000 </r>
       <r>   -15.9059     0.0000   128.0000 </r>
       <r>   -15.6980     0.0000   128.0000 </r>
       <r>   -15.4901     0.0000   128.0000 </r>
       <r>   -15.2821     0.0000   128.0000 </r>
       <r>   -15.0742     0.0000   128.0000 </r>
       <r>   -14.8663     0.0000   128.0000 </r>
       <r>   -14.6583     0.0000   128.0000 </r>
       <r>   -14.4504     0.0000   128.0000 </r>
       <r>   -14.2425     0.0000   128.0000 </r>
       <r>   -14.0345     0.0000   128.0000 </r>
       <r>   -13.8266     0.0000   128.0000 </r>
       <r>   -13.6187     0.0000   128.0000 </r>
       <r>   -13.4107     0.0000   128.0000 </r>
       <r>   -13.2028     0.0000   128.0000 </r>
       <r>   -12.9949     0.0000   128.0000 </r>
       <r>   -12.7869     0.0000   128.0000 </r>
       <r>   -12.5790     0.0000   128.0000 </r>
       <r>   -12.3711     0.0000   128.0000 </r>
       <r>   -12.1631     0.0000   128.0000 </r>
       <r>   -11.9552     0.0000   128.0000 </r>
       <r>   -11.7473     0.0000   128.0000 </r>
       <r>   -11.5393     0.0000   128.0000 </r>
       <r>   -11.3314     0.0000   128.0000 </r>
       <r>   -11.1235     0.0000   128.0000 </r>
       <r>   -10.9155     0.0000   128.0000 </r>
       <r>   -10.7076     0.0000   128.0000 </r>
       <r>   -10.4997     0.0000   128.0000 </r>
       <r>   -10.2917     0.0000   128.0000 </r>
       <r>   -10.0838     0.0000   128.0000 </r>
       <r>    -9.8759     0.0000   128.0000 </r>
       <r>    -9.6679     0.0000   128.0000 </r>
       <r>    -9.4600     0.0000   128.0000 </r>
       <r>    -9.2521     0.0000   128.0000 </r>
       <r>    -9.0441     0.0000   128.0000 </r>
       <r>    -8.8362     0.0000   128.0000 </r>
       <r>    -8.6283     0.0000   128.0000 </r>
       <r>    -8.4203     0.0000   128.0000 </r>
       <r>    -8.2124     0.0000   128.0000 </r>
       <r>    -8.0045     0.0000   128.0000 </r>
       <r>    -7.7965     0.0000   128.0000 </r>
       <r>    -7.5886     0.0000   128.0000 </r>
       <r>    -7.3807     0.0000   128.0000 </r>
       <r>    -7.1727     0.0000   128.0000 </r>
       <r>    -6.9648     0.0000   128.0000 </r>
       <r>    -6.7569     0.0000   128.0000 </r>
       <r>    -6.5489     0.0000   128.0000 </r>
       <r>    -6.3410     0.0000   128.0000 </r>
       <r>    -6.1331     0.0000   128.0000 </r>
       <r>    -5.9251     0.0000   128.0000 </r>
       <r>    -5.7172     0.0000   128.0000 </r>
       <r>    -5.5093     0.0000   128.0000 </r>
       <r>    -5.3013     0.0000   128.0000 </r>
       <r>    -5.0934     0.0000   128.0000 </r>
       <r>    -4.8855     0.0000   128.0000 </r>
       <r>    -4.6775     0.0000   128.0000 </r>
       <r>    -4.4696     0.0000   128.0000 </r>
       <r>    -4.2617     0.0000   128.0000 </r>
       <r>    -4.0537     0.0000   128.0000 </r>
       <r>    -3.8458     0.0000   128.0000 </r>
       <r>    -3.6379     0.0000   128.0000 </r>
       <r>    -3.4299     0.0000   128.0000 </r>
       <r>    -3.2220     0.0000   128.0000 </r>
       <r>    -3.0141     0.0000   128.0000 </r>
       <r>    -2.8061     0.0000   128.0000 </r>
       <r>    -2.5982     0.0000   128.0000 </r>
       <r>    -2.3903     0.0000   128.0000 </r>
       <r>    -2.1823     0.0000   128.0000 </r>
       <r>    -1.9744     0.0000   128.0000 </r>
       <r>    -1.7665     0.0000   128.0000 </r>
       <r>    -1.5585     0.0000   128.0000 </r>
       <r>    -1.3506     0.0000   128.0000 </r>
       <r>    -1.1427     0.0000   128.0000 </r>
       <r>    -0.9347     0.0000   128.0000 </r>
       <r>    -0.7268     0.0000   128.0000 </r>
       <r>    -0.5189    -0.0000   128.0000 </r>
       <r>    -0.3109    -0.0000   128.0000 </r>
       <r>    -0.1030    -0.0000   128.0000 </r>
       <r>     0.1049    -0.0000   128.0000 </r>
       <r>     0.3129    -0.0000   128.0000 </r>
       <r>     0.5208    -0.0081   127.9983 </r>
       <r>     0.7287     0.0952   128.0181 </r>
       <r>     0.9367     0.5957   128.1420 </r>
       <r>     1.1446     1.4278   128.4389 </r>
       <r>     1.3525     1.6814   128.7885 </r>
       <r>     1.5605     2.5518   129.3191 </r>
       <r>     1.7684     3.8179   130.1130 </r>
       <r>     1.9763     2.6124   130.6562 </r>
       <r>     2.1843     2.6014   131.1971 </r>
       <r>     2.3922     4.8158   132.1984 </r>
       <r>     2.6001     3.4407   132.9139 </r>
       <r>     2.8081     4.7385   133.8992 </r>
       <r>     3.0160     8.9329   135.7566 </r>
       <r>     3.2239     7.8536   137.3896 </r>
       <r>     3.4319     6.5373   138.7490 </r>
       <r>     3.6398     9.5130   140.7270 </r>
       <r>     3.8477    13.4677   143.5274 </r>
       <r>     4.0557    19.5916   147.6011 </r>
       <r>     4.2636    21.3831   152.0474 </r>
       <r>     4.4715    25.8203   157.4163 </r>
       <r>     4.6795    30.5711   163.7730 </r>
       <r>     4.8874    35.1210   171.0759 </r>
       <r>     5.0953    38.9670   179.1784 </r>
       <r>     5.3033    38.5123   187.1864 </r>
       <r>     5.5112    35.9489   194.6614 </r>
       <r>     5.7191    33.7737   201.6840 </r>
       <r>     5.9271    27.9538   207.4965 </r>
       <r>     6.1350    11.7954   209.9492 </r>
       <r>     6.3429    50.6072   220.4721 </r>
       <r>     6.5509    68.9017   234.7991 </r>
       <r>     6.7588    57.7794   246.8133 </r>
       <r>     6.9667    51.0898   257.4366 </r>
       <r>     7.1747    48.7123   267.5655 </r>
       <r>     7.3826    57.4266   279.5064 </r>
       <r>     7.5905    56.2505   291.2028 </r>
       <r>     7.7985    48.5988   301.3081 </r>
       <r>     8.0064    48.6761   311.4294 </r>
       <r>     8.2143    43.5554   320.4860 </r>
       <r>     8.4223    29.3917   326.5976 </r>
       <r>     8.6302    27.6441   332.3457 </r>
       <r>     8.8381    16.9357   335.8672 </r>
       <r>     9.0461    14.1805   338.8158 </r>
       <r>     9.2540    10.3840   340.9750 </r>
       <r>     9.4619    21.1941   345.3819 </r>
       <r>     9.6699    28.3813   351.2833 </r>
       <r>     9.8778    24.1653   356.3081 </r>
       <r>    10.0857    13.1808   359.0489 </r>
       <r>    10.2937     4.8195   360.0510 </r>
       <r>    10.5016    -0.2372   360.0017 </r>
       <r>    10.7095    -0.0080   360.0000 </r>
       <r>    10.9175    -0.0000   360.0000 </r>
       <r>    11.1254    -0.0000   360.0000 </r>
       <r>    11.3333     0.0000   360.0000 </r>
       <r>    11.5413     0.0000   360.0000 </r>
       <r>    11.7492     0.0000   360.0000 </r>
       <r>    11.9571     0.0000   360.0000 </r>
       <r>    12.1651     0.0000   360.0000 </r>
       <r>    12.3730     0.0000   360.0000 </r>
       <r>    12.5809     0.0000   360.0000 </r>
       <r>    12.7889     0.0000   360.0000 </r>
       <r>    12.9968     0.0000   360.0000 </r>
      </set>
     </set>
    </array>
   </total>
  </dos>
 </calculation>
 <structure name="finalpos" >
  <crystal>
   <varray name="basis" >
    <v>       6.81534649      -0.02744583      -0.02034957 </v>
    <v>      -0.03988108      10.08430050       0.00216792 </v>
    <v>      -0.03034227       0.00182581      10.16995291 </v>
   </varray>
   <i name="volume">    698.94316253 </i>
   <varray name="rec_basis" >
    <v>       0.14673133       0.00058019       0.00043767 </v>
    <v>       0.00039930       0.09916562      -0.00001661 </v>
    <v>       0.00029352      -0.00001998       0.09832975 </v>
   </varray>
  </crystal>
  <varray name="positions" >
   <v>       0.52526166       0.99235869       0.00418331 </v>
   <v>       0.26185186       0.84439553       0.49268511 </v>
   <v>       0.74244578       0.83977025       0.49233773 </v>
   <v>       0.24514710       0.50540565       0.17771266 </v>
   <v>       0.74244004       0.49097547       0.50300815 </v>
   <v>       0.75344228       0.84053016       0.17066404 </v>
   <v>       0.98014257       0.00238847       0.00040855 </v>
   <v>       0.75832110       0.49816147       0.82037233 </v>
   <v>       0.26511808       0.16448713       0.49349091 </v>
   <v>       0.27844583       0.15197618       0.83012501 </v>
   <v>       0.50672655       0.99125504       0.65829453 </v>
   <v>       0.49740080       0.33231662       0.33782882 </v>
   <v>       0.75019092       0.16221810       0.17394331 </v>
   <v>       0.73678942       0.16848959       0.49417350 </v>
   <v>       0.24972790       0.83470002       0.16726894 </v>
   <v>       0.01122239       0.32877203       0.66381672 </v>
   <v>       0.72098190       0.17139148       0.83025048 </v>
   <v>       0.50345255       0.67066423       0.66281196 </v>
   <v>       0.48011852       0.34440711       0.99834132 </v>
   <v>       0.99834090       0.00881749       0.66142797 </v>
   <v>       0.98944769       0.66528370       0.99806247 </v>
   <v>       0.49853242       0.66374891       0.34238974 </v>
   <v>       0.76118687       0.83347392       0.83689518 </v>
   <v>       0.25471514       0.49432659       0.49751118 </v>
   <v>       0.50980850       0.00125257       0.33466313 </v>
   <v>       0.99417228       0.99903901       0.33817856 </v>
   <v>       0.99340555       0.66462541       0.66185479 </v>
   <v>       0.00288340       0.33135332       0.34566249 </v>
   <v>       0.22954753       0.51897727       0.82809525 </v>
   <v>       0.48653146       0.33980659       0.66188907 </v>
   <v>       0.00172064       0.66773653       0.34639464 </v>
   <v>       0.24195967       0.83568152       0.83762573 </v>
   <v>       0.75640179       0.49111017       0.17636037 </v>
   <v>       0.01509774       0.33061490       0.99150317 </v>
   <v>       0.50778904       0.66219999       0.99818938 </v>
   <v>       0.24922913       0.15730187       0.17158450 </v>
  </varray>
 </structure>
</modeling>
