<?xml version="1.0" encoding="ISO-8859-1"?>
<modeling>
 <generator>
  <i name="program" type="string">vasp </i>
  <i name="version" type="string">5.4.1  </i>
  <i name="subversion" type="string">05Feb16 (build Jan 29 2020 16:04:39) complex                          parallel </i>
  <i name="platform" type="string">IFC91_ompi </i>
  <i name="date" type="string">2020 06 15 </i>
  <i name="time" type="string">05:14:55 </i>
 </generator>
 <incar>
  <i type="string" name="SYSTEM"> automatically generated by mexm</i>
  <i type="int" name="ISTART">     0</i>
  <i type="string" name="PREC">accurate               ! avoid wrap aro</i>
  <i type="string" name="ALGO"> Fast                   ! blocked Davids</i>
  <i type="int" name="ISPIN">     1</i>
  <i type="int" name="ICHARG">     2</i>
  <i type="int" name="NELM">    70</i>
  <i type="int" name="IBRION">     2</i>
  <i name="EDIFF">      0.00001000</i>
  <i name="EDIFFG">     -0.01000000</i>
  <i type="int" name="NSW">   300</i>
  <i type="int" name="ISIF">     3</i>
  <i type="int" name="ISYM">     1</i>
  <i name="ENCUT">    300.00000000</i>
  <i name="POTIM">      0.15000000</i>
  <i type="string" name="LREAL"> Auto                  ! unpublished met</i>
  <i type="int" name="ISMEAR">     1</i>
  <i name="SIGMA">      0.15000000</i>
  <i type="logical" name="LWAVE"> F  </i>
  <i type="logical" name="LCHARG"> F  </i>
  <i type="logical" name="LVTOT"> F  </i>
  <v type="int" name="KPOINT_BSE">    -1     0     0     0</v>
  <i type="int" name="NELM">    70</i>
 </incar>
 <kpoints>
  <generation param="Gamma">
   <v type="int" name="divisions">       3        3        3 </v>
   <v name="usershift">      0.00000000       0.00000000       0.00000000 </v>
   <v name="genvec1">      0.33333333       0.00000000       0.00000000 </v>
   <v name="genvec2">      0.00000000       0.33333333       0.00000000 </v>
   <v name="genvec3">      0.00000000       0.00000000       0.33333333 </v>
   <v name="shift">      0.00000000       0.00000000       0.00000000 </v>
  </generation>
  <varray name="kpointlist" >
   <v>       0.00000000       0.00000000       0.00000000 </v>
   <v>       0.33333333      -0.00000000       0.00000000 </v>
   <v>       0.00000000       0.33333333       0.00000000 </v>
   <v>       0.33333333       0.33333333       0.00000000 </v>
   <v>      -0.33333333       0.33333333      -0.00000000 </v>
   <v>       0.00000000       0.00000000       0.33333333 </v>
   <v>       0.33333333      -0.00000000       0.33333333 </v>
   <v>      -0.33333333       0.00000000       0.33333333 </v>
   <v>       0.00000000       0.33333333       0.33333333 </v>
   <v>       0.33333333       0.33333333       0.33333333 </v>
   <v>      -0.33333333       0.33333333       0.33333333 </v>
   <v>       0.00000000      -0.33333333       0.33333333 </v>
   <v>       0.33333333      -0.33333333       0.33333333 </v>
   <v>      -0.33333333      -0.33333333       0.33333333 </v>
  </varray>
  <varray name="weights" >
   <v>       0.03703704 </v>
   <v>       0.07407407 </v>
   <v>       0.07407407 </v>
   <v>       0.07407407 </v>
   <v>       0.07407407 </v>
   <v>       0.07407407 </v>
   <v>       0.07407407 </v>
   <v>       0.07407407 </v>
   <v>       0.07407407 </v>
   <v>       0.07407407 </v>
   <v>       0.07407407 </v>
   <v>       0.07407407 </v>
   <v>       0.07407407 </v>
   <v>       0.07407407 </v>
  </varray>
 </kpoints>
 <parameters>
  <separator name="general" >
   <i type="string" name="SYSTEM">automatically generated by mexm</i>
   <i type="logical" name="LCOMPAT"> F  </i>
  </separator>
  <separator name="electronic" >
   <i type="string" name="PREC">accura</i>
   <i name="ENMAX">    300.00000000</i>
   <i name="ENAUG">    461.25700000</i>
   <i name="EDIFF">      0.00001000</i>
   <i type="int" name="IALGO">    68</i>
   <i type="int" name="IWAVPR">    11</i>
   <i type="int" name="NBANDS">   176</i>
   <i name="NELECT">    293.00000000</i>
   <i type="int" name="TURBO">     0</i>
   <i type="int" name="IRESTART">     0</i>
   <i type="int" name="NREBOOT">     0</i>
   <i type="int" name="NMIN">     0</i>
   <i name="EREF">      0.00000000</i>
   <separator name="electronic smearing" >
    <i type="int" name="ISMEAR">     1</i>
    <i name="SIGMA">      0.15000000</i>
    <i name="KSPACING">      0.50000000</i>
    <i type="logical" name="KGAMMA"> T  </i>
   </separator>
   <separator name="electronic projectors" >
    <i type="logical" name="LREAL"> T  </i>
    <v name="ROPT">     -0.00025000     -0.00025000     -0.00025000     -0.00025000</v>
    <i type="int" name="LMAXPAW">  -100</i>
    <i type="int" name="LMAXMIX">     2</i>
    <i type="logical" name="NLSPLINE"> F  </i>
   </separator>
   <separator name="electronic startup" >
    <i type="int" name="ISTART">     0</i>
    <i type="int" name="ICHARG">     2</i>
    <i type="int" name="INIWAV">     1</i>
   </separator>
   <separator name="electronic spin" >
    <i type="int" name="ISPIN">     1</i>
    <i type="logical" name="LNONCOLLINEAR"> F  </i>
    <v name="MAGMOM">      1.00000000      1.00000000      1.00000000      1.00000000      1.00000000      1.00000000      1.00000000      1.00000000      1.00000000      1.00000000      1.00000000      1.00000000      1.00000000      1.00000000      1.00000000      1.00000000      1.00000000      1.00000000      1.00000000      1.00000000
      1.00000000      1.00000000      1.00000000      1.00000000      1.00000000      1.00000000      1.00000000      1.00000000      1.00000000      1.00000000      1.00000000      1.00000000      1.00000000      1.00000000      1.00000000      1.00000000</v>
    <i name="NUPDOWN">     -1.00000000</i>
    <i type="logical" name="LSORBIT"> F  </i>
    <v name="SAXIS">      0.00000000      0.00000000      1.00000000</v>
    <i type="logical" name="LSPIRAL"> F  </i>
    <v name="QSPIRAL">      0.00000000      0.00000000      0.00000000</v>
    <i type="logical" name="LZEROZ"> F  </i>
   </separator>
   <separator name="electronic exchange-correlation" >
    <i type="logical" name="LASPH"> F  </i>
    <i type="logical" name="LMETAGGA"> F  </i>
   </separator>
   <separator name="electronic convergence" >
    <i type="int" name="NELM">    70</i>
    <i type="int" name="NELMDL">    -5</i>
    <i type="int" name="NELMIN">     2</i>
    <i name="ENINI">    300.00000000</i>
    <separator name="electronic convergence detail" >
     <i type="logical" name="LDIAG"> T  </i>
     <i type="logical" name="LSUBROT"> F  </i>
     <i name="WEIMIN">      0.00100000</i>
     <i name="EBREAK">      0.00000001</i>
     <i name="DEPER">      0.30000000</i>
     <i type="int" name="NRMM">     4</i>
     <i name="TIME">      0.40000000</i>
    </separator>
   </separator>
   <separator name="electronic mixer" >
    <i name="AMIX">      0.40000000</i>
    <i name="BMIX">      1.00000000</i>
    <i name="AMIN">      0.10000000</i>
    <i name="AMIX_MAG">      1.60000000</i>
    <i name="BMIX_MAG">      1.00000000</i>
    <separator name="electronic mixer details" >
     <i type="int" name="IMIX">     4</i>
     <i type="logical" name="MIXFIRST"> F  </i>
     <i type="int" name="MAXMIX">   -45</i>
     <i name="WC">    100.00000000</i>
     <i type="int" name="INIMIX">     1</i>
     <i type="int" name="MIXPRE">     1</i>
     <i type="int" name="MREMOVE">     5</i>
    </separator>
   </separator>
   <separator name="electronic dipolcorrection" >
    <i type="logical" name="LDIPOL"> F  </i>
    <i type="logical" name="LMONO"> F  </i>
    <i type="int" name="IDIPOL">     0</i>
    <i name="EPSILON">      1.00000000</i>
    <v name="DIPOL">   -100.00000000   -100.00000000   -100.00000000</v>
    <i name="EFIELD">      0.00000000</i>
   </separator>
  </separator>
  <separator name="grids" >
   <i type="int" name="NGX">    40</i>
   <i type="int" name="NGY">    60</i>
   <i type="int" name="NGZ">    60</i>
   <i type="int" name="NGXF">    80</i>
   <i type="int" name="NGYF">   120</i>
   <i type="int" name="NGZF">   120</i>
   <i type="logical" name="ADDGRID"> F  </i>
  </separator>
  <separator name="ionic" >
   <i type="int" name="NSW">   300</i>
   <i type="int" name="IBRION">     2</i>
   <i type="int" name="ISIF">     3</i>
   <i name="PSTRESS">      0.00000000</i>
   <i name="EDIFFG">     -0.01000000</i>
   <i type="int" name="NFREE">     1</i>
   <i name="POTIM">      0.15000000</i>
   <i name="SMASS">     -3.00000000</i>
   <i name="SCALEE">      1.00000000</i>
  </separator>
  <separator name="ionic md" >
   <i name="TEBEG">      0.00010000</i>
   <i name="TEEND">      0.00010000</i>
   <i type="int" name="NBLOCK">     1</i>
   <i type="int" name="KBLOCK">   300</i>
   <i type="int" name="NPACO">   256</i>
   <i name="APACO">     16.00000000</i>
  </separator>
  <separator name="symmetry" >
   <i type="int" name="ISYM">     1</i>
   <i name="SYMPREC">      0.00001000</i>
  </separator>
  <separator name="dos" >
   <i type="logical" name="LORBIT"> F  </i>
   <v name="RWIGS">     -1.00000000     -1.00000000     -1.00000000     -1.00000000</v>
   <i type="int" name="NEDOS">   301</i>
   <i name="EMIN">     10.00000000</i>
   <i name="EMAX">    -10.00000000</i>
   <i name="EFERMI">      0.00000000</i>
  </separator>
  <separator name="writing" >
   <i type="int" name="NWRITE">     2</i>
   <i type="logical" name="LWAVE"> F  </i>
   <i type="logical" name="LCHARG"> F  </i>
   <i type="logical" name="LPARD"> F  </i>
   <i type="logical" name="LVTOT"> F  </i>
   <i type="logical" name="LVHAR"> F  </i>
   <i type="logical" name="LELF"> F  </i>
   <i type="logical" name="LOPTICS"> F  </i>
   <v name="STM">      0.00000000      0.00000000      0.00000000      0.00000000      0.00000000      0.00000000      0.00000000</v>
  </separator>
  <separator name="performance" >
   <i type="int" name="NPAR">     4</i>
   <i type="int" name="NSIM">     4</i>
   <i type="int" name="NBLK">    -1</i>
   <i type="logical" name="LPLANE"> T  </i>
   <i type="logical" name="LSCALAPACK"> T  </i>
   <i type="logical" name="LSCAAWARE"> F  </i>
   <i type="logical" name="LSCALU"> F  </i>
   <i type="logical" name="LASYNC"> F  </i>
   <i type="logical" name="LORBITALREAL"> F  </i>
  </separator>
  <separator name="miscellaneous" >
   <i type="int" name="IDIOT">     3</i>
   <i type="logical" name="LMUSIC"> F  </i>
   <v name="POMASS">    180.94800000     92.91000000     91.22400000    178.49000000</v>
   <v name="DARWINR">      0.00000000      0.00000000      0.00000000      0.00000000</v>
   <v name="DARWINV">      1.00000000      1.00000000      1.00000000      1.00000000</v>
   <i type="logical" name="LCORR"> T  </i>
  </separator>
  <i type="logical" name="GGA_COMPAT"> T  </i>
  <i type="logical" name="LBERRY"> F  </i>
  <i type="int" name="ICORELEVEL">     0</i>
  <i type="logical" name="LDAU"> F  </i>
  <i type="int" name="I_CONSTRAINED_M">     0</i>
  <separator name="electronic exchange-correlation" >
   <i type="string" name="GGA">--</i>
   <i type="int" name="VOSKOWN">     0</i>
   <i type="logical" name="LHFCALC"> F  </i>
   <i type="string" name="PRECFOCK"></i>
   <i type="logical" name="LSYMGRAD"> F  </i>
   <i type="logical" name="LHFONE"> F  </i>
   <i type="logical" name="LRHFCALC"> F  </i>
   <i type="logical" name="LTHOMAS"> F  </i>
   <i type="logical" name="LMODELHF"> F  </i>
   <i name="ENCUT4O">     -1.00000000</i>
   <i type="int" name="EXXOEP">     0</i>
   <i type="int" name="FOURORBIT">     0</i>
   <i name="AEXX">      0.00000000</i>
   <i name="HFALPHA">      0.00000000</i>
   <i name="MCALPHA">      0.00000000</i>
   <i name="ALDAX">      1.00000000</i>
   <i name="AGGAX">      1.00000000</i>
   <i name="ALDAC">      1.00000000</i>
   <i name="AGGAC">      1.00000000</i>
   <i type="int" name="NKREDX">     1</i>
   <i type="int" name="NKREDY">     1</i>
   <i type="int" name="NKREDZ">     1</i>
   <i type="logical" name="SHIFTRED"> F  </i>
   <i type="logical" name="ODDONLY"> F  </i>
   <i type="logical" name="EVENONLY"> F  </i>
   <i type="int" name="LMAXFOCK">     0</i>
   <i type="int" name="NMAXFOCKAE">     0</i>
   <i type="logical" name="LFOCKAEDFT"> F  </i>
   <i name="HFSCREEN">      0.00000000</i>
   <i name="HFSCREENC">      0.00000000</i>
   <i type="int" name="NBANDSGWLOW">     0</i>
  </separator>
  <separator name="vdW DFT" >
   <i type="logical" name="LUSE_VDW"> F  </i>
   <i name="Zab_VDW">     -0.84910000</i>
   <i name="PARAM1">      0.12340000</i>
   <i name="PARAM2">      1.00000000</i>
   <i name="PARAM3">      0.00000000</i>
  </separator>
  <separator name="model GW" >
   <i type="int" name="MODEL_GW">     0</i>
   <i name="MODEL_EPS0">     12.53929516</i>
   <i name="MODEL_ALPHA">      1.00000000</i>
  </separator>
  <separator name="linear response parameters" >
   <i type="logical" name="LEPSILON"> F  </i>
   <i type="logical" name="LRPA"> F  </i>
   <i type="logical" name="LNABLA"> F  </i>
   <i type="logical" name="LVEL"> F  </i>
   <i type="int" name="KINTER">     0</i>
   <i name="CSHIFT">      0.10000000</i>
   <i name="OMEGAMAX">     -1.00000000</i>
   <i name="DEG_THRESHOLD">      0.00200000</i>
  </separator>
  <separator name="orbital magnetization" >
   <i type="logical" name="NUCIND"> F  </i>
   <v name="MAGPOS">      0.00000000      0.00000000      0.00000000</v>
   <i type="logical" name="LNICSALL"> T  </i>
   <i type="logical" name="ORBITALMAG"> F  </i>
   <i type="logical" name="LMAGBLOCH"> F  </i>
   <i type="logical" name="LCHIMAG"> F  </i>
   <i type="logical" name="LGAUGE"> T  </i>
   <i type="int" name="MAGATOM">     0</i>
   <v name="MAGDIPOL">      0.00000000      0.00000000      0.00000000</v>
   <v name="AVECCONST">      0.00000000      0.00000000      0.00000000</v>
  </separator>
  <separator name="response functions" >
   <i type="logical" name="LADDER"> F  </i>
   <i type="logical" name="LFXC"> F  </i>
   <i type="logical" name="LHARTREE"> T  </i>
   <i type="int" name="IBSE">     0</i>
   <v type="int" name="KPOINT">    -1     0     0     0</v>
   <i type="logical" name="LTCTE"> F  </i>
   <i type="logical" name="LTETE"> F  </i>
   <i type="logical" name="LTRIPLET"> F  </i>
   <i type="logical" name="LFXCEPS"> F  </i>
   <i type="logical" name="LFXHEG"> F  </i>
   <i type="int" name="NATURALO">     0</i>
   <i type="logical" name="L2ORDER"> F  </i>
   <i type="logical" name="LUSEW"> F  </i>
   <i name="ENCUTGW">     -2.00000000</i>
   <i name="ENCUTGWSOFT">     -2.00000000</i>
   <i name="ENCUTLF">     -1.00000000</i>
   <i type="int" name="LMAXMP2">    -1</i>
   <i name="SCISSOR">      0.00000000</i>
   <i type="int" name="NOMEGA">     0</i>
   <i type="int" name="NOMEGAR">     0</i>
   <i type="int" name="NBANDSGW">    -1</i>
   <i type="int" name="NBANDSO">    -1</i>
   <i type="int" name="NBANDSV">    -1</i>
   <i type="int" name="NELM">    70</i>
   <i type="int" name="NELMHF">     1</i>
   <i type="int" name="DIM">     3</i>
   <i type="int" name="ANTIRES">     0</i>
   <i name="OMEGAMAX">    -30.00000000</i>
   <i name="OMEGAMIN">    -30.00000000</i>
   <i name="OMEGATL">   -200.00000000</i>
   <i type="int" name="OMEGAGRID">     0</i>
   <i name="CSHIFT">     -0.10000000</i>
   <i type="logical" name="SELFENERGY"> F  </i>
   <i type="logical" name="LSPECTRAL"> F  </i>
   <i type="logical" name="LSPECTRALGW"> F  </i>
   <i type="logical" name="LSINGLES"> F  </i>
   <i type="logical" name="LFERMIGW"> F  </i>
   <i type="logical" name="ODDONLYGW"> F  </i>
   <i type="logical" name="EVENONLYGW"> F  </i>
   <i type="int" name="NKREDLFX">     1</i>
   <i type="int" name="NKREDLFY">     1</i>
   <i type="int" name="NKREDLFZ">     1</i>
   <i type="int" name="MAXMEM">  1800</i>
   <i type="int" name="TELESCOPE">     0</i>
   <i type="int" name="TAUPAR">     1</i>
   <i type="int" name="OMEGAPAR">    -1</i>
   <i name="LAMBDA">      1.00000000</i>
  </separator>
  <separator name="External order field" >
   <i name="OFIELD_KAPPA">      0.00000000</i>
   <v name="OFIELD_K">      0.00000000      0.00000000      0.00000000</v>
   <i name="OFIELD_Q6_NEAR">      0.00000000</i>
   <i name="OFIELD_Q6_FAR">      0.00000000</i>
   <i name="OFIELD_A">      0.00000000</i>
  </separator>
 </parameters>
 <atominfo>
  <atoms>      36 </atoms>
  <types>       4 </types>
  <array name="atoms" >
   <dimension dim="1">ion</dimension>
   <field type="string">element</field>
   <field type="int">atomtype</field>
   <set>
    <rc><c>Ta</c><c>   1</c></rc>
    <rc><c>Ta</c><c>   1</c></rc>
    <rc><c>Ta</c><c>   1</c></rc>
    <rc><c>Ta</c><c>   1</c></rc>
    <rc><c>Ta</c><c>   1</c></rc>
    <rc><c>Ta</c><c>   1</c></rc>
    <rc><c>Ta</c><c>   1</c></rc>
    <rc><c>Ta</c><c>   1</c></rc>
    <rc><c>Ta</c><c>   1</c></rc>
    <rc><c>Nb</c><c>   2</c></rc>
    <rc><c>Nb</c><c>   2</c></rc>
    <rc><c>Nb</c><c>   2</c></rc>
    <rc><c>Nb</c><c>   2</c></rc>
    <rc><c>Zr</c><c>   3</c></rc>
    <rc><c>Zr</c><c>   3</c></rc>
    <rc><c>Zr</c><c>   3</c></rc>
    <rc><c>Zr</c><c>   3</c></rc>
    <rc><c>Zr</c><c>   3</c></rc>
    <rc><c>Zr</c><c>   3</c></rc>
    <rc><c>Zr</c><c>   3</c></rc>
    <rc><c>Zr</c><c>   3</c></rc>
    <rc><c>Zr</c><c>   3</c></rc>
    <rc><c>Zr</c><c>   3</c></rc>
    <rc><c>Zr</c><c>   3</c></rc>
    <rc><c>Zr</c><c>   3</c></rc>
    <rc><c>Zr</c><c>   3</c></rc>
    <rc><c>Hf</c><c>   4</c></rc>
    <rc><c>Hf</c><c>   4</c></rc>
    <rc><c>Hf</c><c>   4</c></rc>
    <rc><c>Hf</c><c>   4</c></rc>
    <rc><c>Hf</c><c>   4</c></rc>
    <rc><c>Hf</c><c>   4</c></rc>
    <rc><c>Hf</c><c>   4</c></rc>
    <rc><c>Hf</c><c>   4</c></rc>
    <rc><c>Hf</c><c>   4</c></rc>
    <rc><c>Hf</c><c>   4</c></rc>
   </set>
  </array>
  <array name="atomtypes" >
   <dimension dim="1">type</dimension>
   <field type="int">atomspertype</field>
   <field type="string">element</field>
   <field>mass</field>
   <field>valence</field>
   <field type="string">pseudopotential</field>
   <set>
    <rc><c>   9</c><c>Ta</c><c>    180.94800000</c><c>      5.00000000</c><c>  PAW_PBE Ta 17Jan2003                  </c></rc>
    <rc><c>   4</c><c>Nb</c><c>     92.91000000</c><c>     13.00000000</c><c>  PAW_PBE Nb_sv 25May2007               </c></rc>
    <rc><c>  13</c><c>Zr</c><c>     91.22400000</c><c>     12.00000000</c><c>  PAW_PBE Zr_sv 04Jan2005               </c></rc>
    <rc><c>  10</c><c>Hf</c><c>    178.49000000</c><c>      4.00000000</c><c>  PAW_PBE Hf 20Jan2003                  </c></rc>
   </set>
  </array>
 </atominfo>
 <structure name="initialpos" >
  <crystal>
   <varray name="basis" >
    <v>       7.04681095       0.01159283      -0.03364116 </v>
    <v>       0.01700016      10.31757099      -0.00465908 </v>
    <v>      -0.05022729      -0.00479377      10.34821917 </v>
   </varray>
   <i name="volume">    752.35770972 </i>
   <varray name="rec_basis" >
    <v>       0.14191184      -0.00023352       0.00068869 </v>
    <v>      -0.00015924       0.09692232       0.00004413 </v>
    <v>       0.00046127       0.00004288       0.09663724 </v>
   </varray>
  </crystal>
  <varray name="positions" >
   <v>       0.74148700       0.83246100       0.82789600 </v>
   <v>       0.75740800       0.84065500       0.16933800 </v>
   <v>       0.99129600       0.99297700       0.32553700 </v>
   <v>       0.28301800       0.49657300       0.14584300 </v>
   <v>       0.23656200       0.84340300       0.18063900 </v>
   <v>       0.50311400       0.99078700       0.66342700 </v>
   <v>       0.72600200       0.50829600       0.15516400 </v>
   <v>       0.77724700       0.15389600       0.48780800 </v>
   <v>       0.50455500       0.67309500       0.99776300 </v>
   <v>       0.99517000       0.67369000       0.69336500 </v>
   <v>       0.24973300       0.82813400       0.81861400 </v>
   <v>       0.51898800       0.35281800       0.00315700 </v>
   <v>       0.73968000       0.50692400       0.84151900 </v>
   <v>       0.00081200       0.34534200       0.31845300 </v>
   <v>       0.49506400       0.66933000       0.32503600 </v>
   <v>       0.00343300       0.99419800       0.99596800 </v>
   <v>       0.22742100       0.16672200       0.50315300 </v>
   <v>       0.27208200       0.17149600       0.83303500 </v>
   <v>       0.00025900       0.66925800       0.00033500 </v>
   <v>       0.50955100       0.33621200       0.34122400 </v>
   <v>       0.78859700       0.51912600       0.50358400 </v>
   <v>       0.50634000       0.66918000       0.67156200 </v>
   <v>       0.76724900       0.83036800       0.50354900 </v>
   <v>       0.25793100       0.49393100       0.83485600 </v>
   <v>       0.26234200       0.16826400       0.15861300 </v>
   <v>       0.23378700       0.83108700       0.50305000 </v>
   <v>       0.96813000       0.32125900       0.68037300 </v>
   <v>       0.74200300       0.15744000       0.16801700 </v>
   <v>       0.98762000       0.00499500       0.68186700 </v>
   <v>       0.22818100       0.50193500       0.51489000 </v>
   <v>       0.01261200       0.66046700       0.30534400 </v>
   <v>       0.48327900       0.96599300       0.00228600 </v>
   <v>       0.50601300       0.99658700       0.34174000 </v>
   <v>       0.52977800       0.33310700       0.64885500 </v>
   <v>       0.98332000       0.34085600       0.00493700 </v>
   <v>       0.70993700       0.15914400       0.84921700 </v>
  </varray>
 </structure>
 <calculation>
  <scstep>
   <time name="dav">    0.98    1.00</time>
   <time name="total">    1.15    1.49</time>
   <energy>
    <i name="alphaZ">   1449.34142862 </i>
    <i name="ewald"> -19076.62772808 </i>
    <i name="hartreedc">  -6549.99337713 </i>
    <i name="XCdc">   -254.70078627 </i>
    <i name="pawpsdc">  20927.00053725 </i>
    <i name="pawaedc"> -19351.35385232 </i>
    <i name="eentropy">      0.00785011 </i>
    <i name="bandstr">   -167.94820813 </i>
    <i name="atom">  24849.44662987 </i>
    <i name="e_fr_energy">   1825.17249392 </i>
    <i name="e_wo_entrp">   1825.16464381 </i>
    <i name="e_0_energy">   1825.16987721 </i>
   </energy>
  </scstep>
  <scstep>
   <time name="dav">    1.16    1.20</time>
   <time name="total">    1.16    1.33</time>
   <energy>
    <i name="e_fr_energy">    -64.39421519 </i>
    <i name="e_wo_entrp">    -64.40650909 </i>
    <i name="e_0_energy">    -64.39831316 </i>
   </energy>
  </scstep>
  <scstep>
   <time name="dav">    1.40    1.42</time>
   <time name="total">    1.41    1.46</time>
   <energy>
    <i name="e_fr_energy">   -330.43755025 </i>
    <i name="e_wo_entrp">   -330.42682723 </i>
    <i name="e_0_energy">   -330.43397591 </i>
   </energy>
  </scstep>
  <scstep>
   <time name="dav">    1.45    1.46</time>
   <time name="total">    1.45    1.48</time>
   <energy>
    <i name="e_fr_energy">   -365.03750130 </i>
    <i name="e_wo_entrp">   -365.03582063 </i>
    <i name="e_0_energy">   -365.03694107 </i>
   </energy>
  </scstep>
  <scstep>
   <time name="dav">    1.31    1.36</time>
   <time name="total">    1.35    1.43</time>
   <energy>
    <i name="e_fr_energy">   -368.63441835 </i>
    <i name="e_wo_entrp">   -368.63726919 </i>
    <i name="e_0_energy">   -368.63536863 </i>
   </energy>
  </scstep>
  <scstep>
   <time name="diag">    0.12    0.17</time>
   <time name="diis">    0.73    0.78</time>
   <time name="orth">    0.01    0.01</time>
   <time name="total">    0.93    1.06</time>
   <energy>
    <i name="e_fr_energy">   -358.52084892 </i>
    <i name="e_wo_entrp">   -358.54004097 </i>
    <i name="e_0_energy">   -358.52724627 </i>
   </energy>
  </scstep>
  <scstep>
   <time name="diag">    0.09    0.09</time>
   <time name="diis">    0.77    0.84</time>
   <time name="orth">    0.01    0.01</time>
   <time name="total">    0.97    1.06</time>
   <energy>
    <i name="e_fr_energy">   -359.64163027 </i>
    <i name="e_wo_entrp">   -359.64451400 </i>
    <i name="e_0_energy">   -359.64259151 </i>
   </energy>
  </scstep>
  <scstep>
   <time name="diag">    0.08    0.10</time>
   <time name="diis">    0.86    0.89</time>
   <time name="orth">    0.01    0.01</time>
   <time name="total">    1.03    1.11</time>
   <energy>
    <i name="e_fr_energy">   -354.33096055 </i>
    <i name="e_wo_entrp">   -354.34280546 </i>
    <i name="e_0_energy">   -354.33490885 </i>
   </energy>
  </scstep>
  <scstep>
   <time name="diag">    0.09    0.09</time>
   <time name="diis">    0.73    0.79</time>
   <time name="orth">    0.01    0.01</time>
   <time name="total">    0.90    0.99</time>
   <energy>
    <i name="e_fr_energy">   -354.07944906 </i>
    <i name="e_wo_entrp">   -354.09885615 </i>
    <i name="e_0_energy">   -354.08591809 </i>
   </energy>
  </scstep>
  <scstep>
   <time name="diag">    0.26    0.26</time>
   <time name="diis">    0.79    0.81</time>
   <time name="orth">    0.01    0.01</time>
   <time name="total">    1.13    1.23</time>
   <energy>
    <i name="e_fr_energy">   -354.04875825 </i>
    <i name="e_wo_entrp">   -354.06740272 </i>
    <i name="e_0_energy">   -354.05497308 </i>
   </energy>
  </scstep>
  <scstep>
   <time name="diag">    0.09    0.10</time>
   <time name="diis">    0.77    0.78</time>
   <time name="orth">    0.02    0.02</time>
   <time name="total">    0.94    1.02</time>
   <energy>
    <i name="e_fr_energy">   -354.03491412 </i>
    <i name="e_wo_entrp">   -354.05222312 </i>
    <i name="e_0_energy">   -354.04068379 </i>
   </energy>
  </scstep>
  <scstep>
   <time name="diag">    0.08    0.08</time>
   <time name="diis">    0.80    0.81</time>
   <time name="orth">    0.01    0.01</time>
   <time name="total">    0.96    1.01</time>
   <energy>
    <i name="e_fr_energy">   -354.03169219 </i>
    <i name="e_wo_entrp">   -354.04952871 </i>
    <i name="e_0_energy">   -354.03763769 </i>
   </energy>
  </scstep>
  <scstep>
   <time name="diag">    0.09    0.09</time>
   <time name="diis">    0.77    0.79</time>
   <time name="orth">    0.01    0.01</time>
   <time name="total">    0.97    1.01</time>
   <energy>
    <i name="e_fr_energy">   -354.03077027 </i>
    <i name="e_wo_entrp">   -354.04852982 </i>
    <i name="e_0_energy">   -354.03669012 </i>
   </energy>
  </scstep>
  <scstep>
   <time name="diag">    0.11    0.13</time>
   <time name="diis">    0.80    0.81</time>
   <time name="orth">    0.01    0.01</time>
   <time name="total">    0.98    1.09</time>
   <energy>
    <i name="e_fr_energy">   -354.03125678 </i>
    <i name="e_wo_entrp">   -354.04906821 </i>
    <i name="e_0_energy">   -354.03719393 </i>
   </energy>
  </scstep>
  <scstep>
   <time name="diag">    0.08    0.08</time>
   <time name="diis">    0.80    0.81</time>
   <time name="orth">    0.01    0.01</time>
   <time name="total">    0.96    1.00</time>
   <energy>
    <i name="e_fr_energy">   -354.03157065 </i>
    <i name="e_wo_entrp">   -354.04946094 </i>
    <i name="e_0_energy">   -354.03753408 </i>
   </energy>
  </scstep>
  <scstep>
   <time name="diag">    0.11    0.11</time>
   <time name="diis">    0.72    0.73</time>
   <time name="orth">    0.01    0.01</time>
   <time name="total">    0.98    1.01</time>
   <energy>
    <i name="e_fr_energy">   -354.03171339 </i>
    <i name="e_wo_entrp">   -354.04962882 </i>
    <i name="e_0_energy">   -354.03768520 </i>
   </energy>
  </scstep>
  <scstep>
   <time name="diag">    0.11    0.11</time>
   <time name="diis">    0.65    0.65</time>
   <time name="orth">    0.01    0.01</time>
   <time name="total">    0.84    0.87</time>
   <energy>
    <i name="e_fr_energy">   -354.03177867 </i>
    <i name="e_wo_entrp">   -354.04964178 </i>
    <i name="e_0_energy">   -354.03773304 </i>
   </energy>
  </scstep>
  <scstep>
   <time name="diag">    0.08    0.08</time>
   <time name="diis">    0.71    0.72</time>
   <time name="orth">    0.01    0.01</time>
   <time name="total">    0.87    0.91</time>
   <energy>
    <i name="e_fr_energy">   -354.03181188 </i>
    <i name="e_wo_entrp">   -354.04969140 </i>
    <i name="e_0_energy">   -354.03777172 </i>
   </energy>
  </scstep>
  <scstep>
   <time name="diag">    0.08    0.08</time>
   <time name="diis">    0.47    0.49</time>
   <time name="orth">    0.01    0.01</time>
   <time name="total">    0.64    0.68</time>
   <energy>
    <i name="e_fr_energy">   -354.03182318 </i>
    <i name="e_wo_entrp">   -354.04971292 </i>
    <i name="e_0_energy">   -354.03778643 </i>
   </energy>
  </scstep>
  <scstep>
   <time name="diag">    0.08    0.08</time>
   <time name="diis">    0.48    0.49</time>
   <time name="orth">    0.01    0.01</time>
   <time name="total">    0.61    0.65</time>
   <energy>
    <i name="alphaZ">   1449.34142862 </i>
    <i name="ewald"> -19076.62772808 </i>
    <i name="hartreedc">  -6304.29340206 </i>
    <i name="XCdc">   -255.38596499 </i>
    <i name="pawpsdc">  33992.50873257 </i>
    <i name="pawaedc"> -32402.41854441 </i>
    <i name="eentropy">      0.01789462 </i>
    <i name="bandstr">  -2606.62087501 </i>
    <i name="atom">  24849.44662987 </i>
    <i name="e_fr_energy">   -354.03182887 </i>
    <i name="e_wo_entrp">   -354.04972349 </i>
    <i name="e_0_energy">   -354.03779374 </i>
   </energy>
  </scstep>
  <structure>
   <crystal>
    <varray name="basis" >
     <v>       7.04681095       0.01159283      -0.03364116 </v>
     <v>       0.01700016      10.31757099      -0.00465908 </v>
     <v>      -0.05022729      -0.00479377      10.34821917 </v>
    </varray>
    <i name="volume">    752.35770972 </i>
    <varray name="rec_basis" >
     <v>       0.14191184      -0.00023352       0.00068869 </v>
     <v>      -0.00015924       0.09692232       0.00004413 </v>
     <v>       0.00046127       0.00004288       0.09663724 </v>
    </varray>
   </crystal>
   <varray name="positions" >
    <v>       0.74148700       0.83246100       0.82789600 </v>
    <v>       0.75740800       0.84065500       0.16933800 </v>
    <v>       0.99129600       0.99297700       0.32553700 </v>
    <v>       0.28301800       0.49657300       0.14584300 </v>
    <v>       0.23656200       0.84340300       0.18063900 </v>
    <v>       0.50311400       0.99078700       0.66342700 </v>
    <v>       0.72600200       0.50829600       0.15516400 </v>
    <v>       0.77724700       0.15389600       0.48780800 </v>
    <v>       0.50455500       0.67309500       0.99776300 </v>
    <v>       0.99517000       0.67369000       0.69336500 </v>
    <v>       0.24973300       0.82813400       0.81861400 </v>
    <v>       0.51898800       0.35281800       0.00315700 </v>
    <v>       0.73968000       0.50692400       0.84151900 </v>
    <v>       0.00081200       0.34534200       0.31845300 </v>
    <v>       0.49506400       0.66933000       0.32503600 </v>
    <v>       0.00343300       0.99419800       0.99596800 </v>
    <v>       0.22742100       0.16672200       0.50315300 </v>
    <v>       0.27208200       0.17149600       0.83303500 </v>
    <v>       0.00025900       0.66925800       0.00033500 </v>
    <v>       0.50955100       0.33621200       0.34122400 </v>
    <v>       0.78859700       0.51912600       0.50358400 </v>
    <v>       0.50634000       0.66918000       0.67156200 </v>
    <v>       0.76724900       0.83036800       0.50354900 </v>
    <v>       0.25793100       0.49393100       0.83485600 </v>
    <v>       0.26234200       0.16826400       0.15861300 </v>
    <v>       0.23378700       0.83108700       0.50305000 </v>
    <v>       0.96813000       0.32125900       0.68037300 </v>
    <v>       0.74200300       0.15744000       0.16801700 </v>
    <v>       0.98762000       0.00499500       0.68186700 </v>
    <v>       0.22818100       0.50193500       0.51489000 </v>
    <v>       0.01261200       0.66046700       0.30534400 </v>
    <v>       0.48327900       0.96599300       0.00228600 </v>
    <v>       0.50601300       0.99658700       0.34174000 </v>
    <v>       0.52977800       0.33310700       0.64885500 </v>
    <v>       0.98332000       0.34085600       0.00493700 </v>
    <v>       0.70993700       0.15914400       0.84921700 </v>
   </varray>
  </structure>
  <varray name="forces" >
   <v>      -0.00734708       0.09782773       0.01588292 </v>
   <v>       0.00329273      -0.02567556       0.01204802 </v>
   <v>      -0.00468889       0.01105954       0.01180742 </v>
   <v>       0.00505321       0.00661781       0.01509857 </v>
   <v>      -0.00836701       0.00041397       0.01529616 </v>
   <v>       0.02696963       0.05673089       0.05908334 </v>
   <v>      -0.00048580       0.01905553       0.00376340 </v>
   <v>       0.00471032      -0.00481621       0.03997785 </v>
   <v>       0.02495148       0.00080055      -0.01489936 </v>
   <v>       0.00479516       0.00099716      -0.00342760 </v>
   <v>       0.00285848      -0.00745995       0.00356750 </v>
   <v>       0.02335321      -0.05458218      -0.01554642 </v>
   <v>      -0.00975978      -0.05349933       0.00485812 </v>
   <v>       0.00988404      -0.00758401       0.00518721 </v>
   <v>       0.00464242      -0.00629354      -0.00410862 </v>
   <v>      -0.01532821       0.03714672      -0.04256810 </v>
   <v>       0.00434620       0.00120349      -0.02711561 </v>
   <v>       0.06913104      -0.01246306       0.02359447 </v>
   <v>       0.00106979      -0.00243393      -0.00990710 </v>
   <v>      -0.00906694      -0.00009922      -0.00010082 </v>
   <v>       0.00011049       0.00503685      -0.00747305 </v>
   <v>      -0.00973688      -0.00392742       0.00235675 </v>
   <v>       0.00301243      -0.00901364      -0.01599855 </v>
   <v>      -0.00868563       0.02359629      -0.00276104 </v>
   <v>      -0.01147760       0.00427542       0.03234273 </v>
   <v>      -0.00993486      -0.00359520      -0.01449709 </v>
   <v>      -0.02121663      -0.02144889       0.01169128 </v>
   <v>      -0.01567118       0.01302918      -0.10415039 </v>
   <v>      -0.01395826       0.02621920       0.02334428 </v>
   <v>      -0.00294987       0.00053301      -0.00206748 </v>
   <v>      -0.00076557       0.00979305       0.00775085 </v>
   <v>      -0.00377673       0.02977492      -0.02513512 </v>
   <v>       0.00642830       0.00252031       0.01014221 </v>
   <v>       0.03520873      -0.03574178       0.03273927 </v>
   <v>      -0.03622974      -0.03536994      -0.03417864 </v>
   <v>      -0.04037098      -0.06262776      -0.00659737 </v>
  </varray>
  <varray name="stress" >
   <v>      -0.22078330      -0.02813675      -0.35856325 </v>
   <v>      -0.02813677      -1.06826020      -0.07470347 </v>
   <v>      -0.35856326      -0.07470349      -0.73197578 </v>
  </varray>
  <energy>
   <i name="e_fr_energy">   -354.03182887 </i>
   <i name="e_wo_entrp">   -354.03779374 </i>
   <i name="e_0_energy">      0.01789462 </i>
  </energy>
  <time name="totalsc">   22.00   23.72</time>
 </calculation>
 <calculation>
  <scstep>
   <time name="dav">    1.00    1.02</time>
   <time name="total">    1.14    1.28</time>
   <energy>
    <i name="alphaZ">   1449.89455993 </i>
    <i name="ewald"> -19079.90678364 </i>
    <i name="hartreedc">  -6304.27445835 </i>
    <i name="XCdc">   -255.27956029 </i>
    <i name="pawpsdc">  33992.37624276 </i>
    <i name="pawaedc"> -32402.28709805 </i>
    <i name="eentropy">      0.01797845 </i>
    <i name="bandstr">  -2604.02065326 </i>
    <i name="atom">  24849.44662987 </i>
    <i name="e_fr_energy">   -354.03314257 </i>
    <i name="e_wo_entrp">   -354.05112102 </i>
    <i name="e_0_energy">   -354.03913539 </i>
   </energy>
  </scstep>
  <scstep>
   <time name="diag">    0.08    0.09</time>
   <time name="diis">    0.80    0.81</time>
   <time name="orth">    0.01    0.01</time>
   <time name="total">    0.96    1.00</time>
   <energy>
    <i name="e_fr_energy">   -354.03305680 </i>
    <i name="e_wo_entrp">   -354.05090187 </i>
    <i name="e_0_energy">   -354.03900515 </i>
   </energy>
  </scstep>
  <scstep>
   <time name="diag">    0.08    0.08</time>
   <time name="diis">    0.77    0.79</time>
   <time name="orth">    0.01    0.01</time>
   <time name="total">    0.93    0.99</time>
   <energy>
    <i name="e_fr_energy">   -354.03296858 </i>
    <i name="e_wo_entrp">   -354.05092649 </i>
    <i name="e_0_energy">   -354.03895455 </i>
   </energy>
  </scstep>
  <scstep>
   <time name="diag">    0.08    0.08</time>
   <time name="diis">    0.70    0.72</time>
   <time name="orth">    0.01    0.01</time>
   <time name="total">    0.86    0.93</time>
   <energy>
    <i name="e_fr_energy">   -354.03292001 </i>
    <i name="e_wo_entrp">   -354.05081925 </i>
    <i name="e_0_energy">   -354.03888642 </i>
   </energy>
  </scstep>
  <scstep>
   <time name="diag">    0.08    0.09</time>
   <time name="diis">    0.45    0.47</time>
   <time name="orth">    0.01    0.01</time>
   <time name="total">    0.59    0.65</time>
   <energy>
    <i name="alphaZ">   1449.89455993 </i>
    <i name="ewald"> -19079.90678364 </i>
    <i name="hartreedc">  -6302.65144196 </i>
    <i name="XCdc">   -255.35046024 </i>
    <i name="pawpsdc">  34012.52402423 </i>
    <i name="pawaedc"> -32422.48533504 </i>
    <i name="eentropy">      0.01790701 </i>
    <i name="bandstr">  -2605.52201646 </i>
    <i name="atom">  24849.44662987 </i>
    <i name="e_fr_energy">   -354.03291630 </i>
    <i name="e_wo_entrp">   -354.05082331 </i>
    <i name="e_0_energy">   -354.03888530 </i>
   </energy>
  </scstep>
  <structure>
   <crystal>
    <varray name="basis" >
     <v>       7.04651945       0.01155354      -0.03411368 </v>
     <v>       0.01694496      10.31549022      -0.00480509 </v>
     <v>      -0.05092565      -0.00493847      10.34679267 </v>
    </varray>
    <i name="volume">    752.07068705 </i>
    <varray name="rec_basis" >
     <v>       0.14191780      -0.00023280       0.00069839 </v>
     <v>      -0.00015873       0.09694187       0.00004549 </v>
     <v>       0.00046783       0.00004425       0.09665063 </v>
    </varray>
   </crystal>
   <varray name="positions" >
    <v>       0.74147174       0.83259825       0.82791823 </v>
    <v>       0.75741497       0.84061898       0.16935486 </v>
    <v>       0.99128645       0.99299253       0.32555349 </v>
    <v>       0.28302851       0.49658228       0.14586415 </v>
    <v>       0.23654497       0.84340361       0.18066034 </v>
    <v>       0.50316979       0.99086655       0.66350985 </v>
    <v>       0.72600098       0.50832273       0.15516927 </v>
    <v>       0.77725709       0.15388926       0.48786394 </v>
    <v>       0.50460610       0.67309606       0.99774233 </v>
    <v>       0.99517981       0.67369139       0.69336024 </v>
    <v>       0.24973893       0.82812353       0.81861900 </v>
    <v>       0.51903599       0.35274137       0.00313538 </v>
    <v>       0.73966018       0.50684898       0.84152570 </v>
    <v>       0.00083238       0.34533134       0.31846032 </v>
    <v>       0.49507352       0.66932116       0.32503028 </v>
    <v>       0.00340097       0.99425012       0.99590838 </v>
    <v>       0.22742965       0.16672366       0.50311511 </v>
    <v>       0.27222426       0.17147837       0.83306845 </v>
    <v>       0.00026111       0.66925458       0.00032115 </v>
    <v>       0.50953238       0.33621188       0.34122380 </v>
    <v>       0.78859714       0.51913306       0.50357355 </v>
    <v>       0.50632004       0.66917451       0.67156523 </v>
    <v>       0.76725506       0.83035534       0.50352664 </v>
    <v>       0.25791305       0.49396412       0.83485210 </v>
    <v>       0.26231873       0.16827004       0.15865816 </v>
    <v>       0.23376646       0.83108197       0.50302966 </v>
    <v>       0.96808661       0.32122897       0.68038920 </v>
    <v>       0.74196973       0.15745825       0.16787124 </v>
    <v>       0.98759148       0.00503183       0.68189957 </v>
    <v>       0.22817492       0.50193575       0.51488709 </v>
    <v>       0.01261047       0.66048074       0.30535484 </v>
    <v>       0.48327089       0.96603476       0.00225084 </v>
    <v>       0.50602630       0.99659053       0.34175423 </v>
    <v>       0.52985076       0.33305680       0.64890100 </v>
    <v>       0.98324537       0.34080645       0.00488893 </v>
    <v>       0.70985423       0.15905624       0.84920746 </v>
   </varray>
  </structure>
  <varray name="forces" >
   <v>      -0.00625515       0.08967162       0.01387768 </v>
   <v>       0.00196681      -0.02290920       0.00901271 </v>
   <v>      -0.00423055       0.01242861       0.01071351 </v>
   <v>       0.00386656       0.00369253       0.01226933 </v>
   <v>      -0.00677834       0.00211200       0.01157884 </v>
   <v>       0.02365288       0.04959977       0.04961738 </v>
   <v>       0.00121214       0.01452826       0.00322246 </v>
   <v>       0.00421573      -0.00432260       0.03680893 </v>
   <v>       0.02178898       0.00181749      -0.01287408 </v>
   <v>       0.00427696       0.00059060      -0.00475662 </v>
   <v>       0.00230394      -0.00605384       0.00474712 </v>
   <v>       0.01909755      -0.04848992      -0.01325593 </v>
   <v>      -0.00937783      -0.04987726       0.00336472 </v>
   <v>       0.00880930      -0.00724684       0.00370207 </v>
   <v>       0.00308642      -0.00577952      -0.00123404 </v>
   <v>      -0.01148982       0.03664102      -0.03775408 </v>
   <v>       0.00428096       0.00236221      -0.02499933 </v>
   <v>       0.06015707      -0.00833465       0.02098021 </v>
   <v>       0.00108753      -0.00249005      -0.00830231 </v>
   <v>      -0.00821668      -0.00021968       0.00014120 </v>
   <v>      -0.00154145       0.00348627      -0.00690297 </v>
   <v>      -0.00837965      -0.00300376       0.00189494 </v>
   <v>       0.00210468      -0.00783725      -0.01397563 </v>
   <v>      -0.00835922       0.02029863      -0.00285338 </v>
   <v>      -0.01177263       0.00452108       0.03228536 </v>
   <v>      -0.00817662      -0.00174862      -0.01186173 </v>
   <v>      -0.01466987      -0.01942501       0.01169832 </v>
   <v>      -0.01741951       0.01223176      -0.09333633 </v>
   <v>      -0.01008365       0.02291875       0.02005033 </v>
   <v>      -0.00131788      -0.00193380      -0.00091885 </v>
   <v>       0.00042192       0.00775777       0.00721773 </v>
   <v>      -0.00767890       0.02494056      -0.01811523 </v>
   <v>       0.00663442       0.00433317       0.00715806 </v>
   <v>       0.02972905      -0.03211815       0.02848269 </v>
   <v>      -0.03093200      -0.03371690      -0.03264187 </v>
   <v>      -0.03201313      -0.05842505      -0.00504123 </v>
  </varray>
  <varray name="stress" >
   <v>       0.13043208      -0.03122087      -0.31946629 </v>
   <v>      -0.03122085      -0.75224416      -0.07214685 </v>
   <v>      -0.31946627      -0.07214688      -0.39928267 </v>
  </varray>
  <energy>
   <i name="e_fr_energy">   -354.03291630 </i>
   <i name="e_wo_entrp">   -354.03888530 </i>
   <i name="e_0_energy">      0.01790701 </i>
  </energy>
  <time name="totalsc">    6.18    6.66</time>
 </calculation>
 <calculation>
  <scstep>
   <time name="dav">    0.96    1.00</time>
   <time name="total">    1.11    1.25</time>
   <energy>
    <i name="alphaZ">   1451.55584060 </i>
    <i name="ewald"> -19089.73085529 </i>
    <i name="hartreedc">  -6302.62110598 </i>
    <i name="XCdc">   -255.02918610 </i>
    <i name="pawpsdc">  34010.77365789 </i>
    <i name="pawaedc"> -32420.72256912 </i>
    <i name="eentropy">      0.01811013 </i>
    <i name="bandstr">  -2597.72750938 </i>
    <i name="atom">  24849.44662987 </i>
    <i name="e_fr_energy">   -354.03698738 </i>
    <i name="e_wo_entrp">   -354.05509751 </i>
    <i name="e_0_energy">   -354.04302409 </i>
   </energy>
  </scstep>
  <scstep>
   <time name="diag">    0.08    0.08</time>
   <time name="diis">    0.75    0.77</time>
   <time name="orth">    0.01    0.01</time>
   <time name="total">    0.91    0.95</time>
   <energy>
    <i name="e_fr_energy">   -354.03628861 </i>
    <i name="e_wo_entrp">   -354.05398318 </i>
    <i name="e_0_energy">   -354.04218680 </i>
   </energy>
  </scstep>
  <scstep>
   <time name="diag">    0.08    0.08</time>
   <time name="diis">    0.78    0.80</time>
   <time name="orth">    0.01    0.01</time>
   <time name="total">    0.94    0.98</time>
   <energy>
    <i name="e_fr_energy">   -354.03544492 </i>
    <i name="e_wo_entrp">   -354.05349479 </i>
    <i name="e_0_energy">   -354.04146154 </i>
   </energy>
  </scstep>
  <scstep>
   <time name="diag">    0.08    0.08</time>
   <time name="diis">    0.78    0.80</time>
   <time name="orth">    0.01    0.01</time>
   <time name="total">    0.94    0.98</time>
   <energy>
    <i name="e_fr_energy">   -354.03499980 </i>
    <i name="e_wo_entrp">   -354.05286987 </i>
    <i name="e_0_energy">   -354.04095649 </i>
   </energy>
  </scstep>
  <scstep>
   <time name="diag">    0.08    0.08</time>
   <time name="diis">    0.75    0.77</time>
   <time name="orth">    0.01    0.01</time>
   <time name="total">    0.91    0.99</time>
   <energy>
    <i name="e_fr_energy">   -354.03494802 </i>
    <i name="e_wo_entrp">   -354.05284309 </i>
    <i name="e_0_energy">   -354.04091304 </i>
   </energy>
  </scstep>
  <scstep>
   <time name="diag">    0.12    0.12</time>
   <time name="diis">    0.63    0.65</time>
   <time name="orth">    0.01    0.01</time>
   <time name="total">    0.83    0.87</time>
   <energy>
    <i name="e_fr_energy">   -354.03496641 </i>
    <i name="e_wo_entrp">   -354.05287083 </i>
    <i name="e_0_energy">   -354.04093455 </i>
   </energy>
  </scstep>
  <scstep>
   <time name="diag">    0.08    0.08</time>
   <time name="diis">    0.52    0.53</time>
   <time name="orth">    0.01    0.01</time>
   <time name="total">    0.67    0.71</time>
   <energy>
    <i name="e_fr_energy">   -354.03498368 </i>
    <i name="e_wo_entrp">   -354.05286051 </i>
    <i name="e_0_energy">   -354.04094262 </i>
   </energy>
  </scstep>
  <scstep>
   <time name="diag">    0.07    0.12</time>
   <time name="diis">    0.50    0.54</time>
   <time name="orth">    0.01    0.01</time>
   <time name="total">    0.62    0.75</time>
   <energy>
    <i name="alphaZ">   1451.55584060 </i>
    <i name="ewald"> -19089.73085529 </i>
    <i name="hartreedc">  -6297.98943213 </i>
    <i name="XCdc">   -255.23004206 </i>
    <i name="pawpsdc">  34059.07471066 </i>
    <i name="pawaedc"> -32469.00343655 </i>
    <i name="eentropy">      0.01789506 </i>
    <i name="bandstr">  -2602.17630301 </i>
    <i name="atom">  24849.44662987 </i>
    <i name="e_fr_energy">   -354.03499286 </i>
    <i name="e_wo_entrp">   -354.05288792 </i>
    <i name="e_0_energy">   -354.04095788 </i>
   </energy>
  </scstep>
  <structure>
   <crystal>
    <varray name="basis" >
     <v>       7.04564496       0.01143565      -0.03553124 </v>
     <v>       0.01677937      10.30924792      -0.00524313 </v>
     <v>      -0.05302073      -0.00537259      10.34251317 </v>
    </varray>
    <i name="volume">    751.20995510 </i>
    <varray name="rec_basis" >
     <v>       0.14193569      -0.00023065       0.00072751 </v>
     <v>      -0.00015719       0.09700057       0.00004958 </v>
     <v>       0.00048753       0.00004838       0.09669082 </v>
    </varray>
   </crystal>
   <varray name="positions" >
    <v>       0.74142596       0.83301010       0.82798492 </v>
    <v>       0.75743588       0.84051092       0.16940543 </v>
    <v>       0.99125780       0.99303914       0.32560296 </v>
    <v>       0.28306003       0.49661013       0.14592763 </v>
    <v>       0.23649387       0.84340544       0.18072436 </v>
    <v>       0.50333719       0.99110527       0.66375844 </v>
    <v>       0.72599790       0.50840295       0.15518509 </v>
    <v>       0.77728737       0.15386903       0.48803179 </v>
    <v>       0.50475938       0.67309922       0.99768031 </v>
    <v>       0.99520924       0.67369554       0.69334595 </v>
    <v>       0.24975673       0.82809212       0.81863402 </v>
    <v>       0.51917997       0.35251144       0.00307051 </v>
    <v>       0.73960073       0.50662388       0.84154578 </v>
    <v>       0.00089352       0.34529936       0.31848227 </v>
    <v>       0.49510206       0.66929463       0.32501312 </v>
    <v>       0.00330485       0.99440649       0.99572951 </v>
    <v>       0.22745560       0.16672864       0.50300141 </v>
    <v>       0.27265108       0.17142549       0.83316885 </v>
    <v>       0.00026742       0.66924431       0.00027959 </v>
    <v>       0.50947651       0.33621153       0.34122319 </v>
    <v>       0.78859754       0.51915425       0.50354220 </v>
    <v>       0.50626015       0.66915806       0.67157491 </v>
    <v>       0.76727323       0.83031735       0.50345955 </v>
    <v>       0.25785921       0.49406349       0.83484038 </v>
    <v>       0.26224895       0.16828818       0.15879366 </v>
    <v>       0.23370484       0.83106688       0.50296861 </v>
    <v>       0.96795645       0.32113886       0.68043779 </v>
    <v>       0.74186988       0.15751299       0.16743389 </v>
    <v>       0.98750591       0.00514233       0.68199730 </v>
    <v>       0.22815667       0.50193801       0.51487835 </v>
    <v>       0.01260589       0.66052198       0.30538737 </v>
    <v>       0.48324656       0.96616006       0.00214534 </v>
    <v>       0.50606619       0.99660111       0.34179693 </v>
    <v>       0.53006907       0.33290619       0.64903904 </v>
    <v>       0.98302145       0.34065775       0.00474470 </v>
    <v>       0.70960590       0.15879290       0.84917884 </v>
   </varray>
  </structure>
  <varray name="forces" >
   <v>      -0.00352289       0.06584745       0.00781465 </v>
   <v>      -0.00174583      -0.01680095      -0.00018149 </v>
   <v>      -0.00457307       0.01382189       0.00763439 </v>
   <v>       0.00067556      -0.00367161       0.00262762 </v>
   <v>      -0.00265413       0.00565917       0.00074215 </v>
   <v>       0.01503121       0.02915399       0.02296478 </v>
   <v>       0.00572359       0.00331271       0.00100677 </v>
   <v>       0.00269642      -0.00249392       0.03022738 </v>
   <v>       0.01449570       0.00364119      -0.00763751 </v>
   <v>      -0.00031467       0.00266925      -0.00461291 </v>
   <v>      -0.00062708      -0.00190706       0.00460622 </v>
   <v>       0.00777781      -0.02805496      -0.00442788 </v>
   <v>      -0.00921852      -0.03825672      -0.00115918 </v>
   <v>       0.00415770      -0.00583297      -0.00197746 </v>
   <v>      -0.00154398      -0.00317328       0.00618572 </v>
   <v>       0.00010778       0.03211521      -0.02219747 </v>
   <v>       0.00245847       0.00376129      -0.01804178 </v>
   <v>       0.03351652       0.00322820       0.01173898 </v>
   <v>       0.00009286      -0.00164949      -0.00431713 </v>
   <v>      -0.00367917      -0.00051250       0.00125423 </v>
   <v>      -0.00580549      -0.00074546      -0.00380902 </v>
   <v>      -0.00157146       0.00065054       0.00248367 </v>
   <v>      -0.00035524      -0.00378806      -0.00693176 </v>
   <v>      -0.00666625       0.00993107      -0.00220875 </v>
   <v>      -0.01248443       0.00313014       0.03047559 </v>
   <v>      -0.00244400       0.00490337      -0.00284704 </v>
   <v>       0.00367803      -0.01306198       0.01153032 </v>
   <v>      -0.02244276       0.00852254      -0.06350711 </v>
   <v>       0.00004373       0.01353424       0.00959110 </v>
   <v>       0.00371009      -0.00898180       0.00300847 </v>
   <v>       0.00304097       0.00309061       0.00558661 </v>
   <v>      -0.01732319       0.00957493       0.00021506 </v>
   <v>       0.00919217       0.00742333      -0.00037241 </v>
   <v>       0.01419094      -0.02194083       0.01790092 </v>
   <v>      -0.01706554      -0.02738731      -0.03065121 </v>
   <v>      -0.00655185      -0.04571222      -0.00271454 </v>
  </varray>
  <varray name="stress" >
   <v>       1.38073146      -0.02332368      -0.05374243 </v>
   <v>      -0.02332370       0.73472199      -0.03379760 </v>
   <v>      -0.05374241      -0.03379761       1.01905075 </v>
  </varray>
  <energy>
   <i name="e_fr_energy">   -354.03499286 </i>
   <i name="e_wo_entrp">   -354.04095788 </i>
   <i name="e_0_energy">      0.01789506 </i>
  </energy>
  <time name="totalsc">    8.62    9.34</time>
 </calculation>
 <calculation>
  <scstep>
   <time name="dav">    1.04    1.07</time>
   <time name="total">    1.17    1.37</time>
   <energy>
    <i name="alphaZ">   1454.88691371 </i>
    <i name="ewald"> -19109.32034844 </i>
    <i name="hartreedc">  -6298.00780186 </i>
    <i name="XCdc">   -254.58622196 </i>
    <i name="pawpsdc">  34058.88075340 </i>
    <i name="pawaedc"> -32468.77031848 </i>
    <i name="eentropy">      0.01826202 </i>
    <i name="bandstr">  -2586.58958161 </i>
    <i name="atom">  24849.44662987 </i>
    <i name="e_fr_energy">   -354.04171335 </i>
    <i name="e_wo_entrp">   -354.05997538 </i>
    <i name="e_0_energy">   -354.04780069 </i>
   </energy>
  </scstep>
  <scstep>
   <time name="diag">    0.08    0.08</time>
   <time name="diis">    0.73    0.75</time>
   <time name="orth">    0.01    0.01</time>
   <time name="total">    0.89    0.93</time>
   <energy>
    <i name="e_fr_energy">   -354.03883666 </i>
    <i name="e_wo_entrp">   -354.05628209 </i>
    <i name="e_0_energy">   -354.04465181 </i>
   </energy>
  </scstep>
  <scstep>
   <time name="diag">    0.08    0.08</time>
   <time name="diis">    0.80    0.80</time>
   <time name="orth">    0.01    0.01</time>
   <time name="total">    0.97    1.01</time>
   <energy>
    <i name="e_fr_energy">   -354.03561171 </i>
    <i name="e_wo_entrp">   -354.05375993 </i>
    <i name="e_0_energy">   -354.04166112 </i>
   </energy>
  </scstep>
  <scstep>
   <time name="diag">    0.08    0.08</time>
   <time name="diis">    0.77    0.79</time>
   <time name="orth">    0.01    0.01</time>
   <time name="total">    0.93    0.99</time>
   <energy>
    <i name="e_fr_energy">   -354.03375479 </i>
    <i name="e_wo_entrp">   -354.05154900 </i>
    <i name="e_0_energy">   -354.03968620 </i>
   </energy>
  </scstep>
  <scstep>
   <time name="diag">    0.08    0.08</time>
   <time name="diis">    0.78    0.80</time>
   <time name="orth">    0.01    0.01</time>
   <time name="total">    0.94    0.98</time>
   <energy>
    <i name="e_fr_energy">   -354.03352927 </i>
    <i name="e_wo_entrp">   -354.05136630 </i>
    <i name="e_0_energy">   -354.03947494 </i>
   </energy>
  </scstep>
  <scstep>
   <time name="diag">    0.08    0.08</time>
   <time name="diis">    0.82    0.84</time>
   <time name="orth">    0.01    0.01</time>
   <time name="total">    1.07    1.12</time>
   <energy>
    <i name="e_fr_energy">   -354.03357547 </i>
    <i name="e_wo_entrp">   -354.05143715 </i>
    <i name="e_0_energy">   -354.03952936 </i>
   </energy>
  </scstep>
  <scstep>
   <time name="diag">    0.09    0.09</time>
   <time name="diis">    0.64    0.66</time>
   <time name="orth">    0.01    0.01</time>
   <time name="total">    0.82    0.88</time>
   <energy>
    <i name="e_fr_energy">   -354.03361705 </i>
    <i name="e_wo_entrp">   -354.05142058 </i>
    <i name="e_0_energy">   -354.03955156 </i>
   </energy>
  </scstep>
  <scstep>
   <time name="diag">    0.09    0.09</time>
   <time name="diis">    0.61    0.63</time>
   <time name="orth">    0.01    0.01</time>
   <time name="total">    0.78    0.82</time>
   <energy>
    <i name="e_fr_energy">   -354.03364135 </i>
    <i name="e_wo_entrp">   -354.05148293 </i>
    <i name="e_0_energy">   -354.03958854 </i>
   </energy>
  </scstep>
  <scstep>
   <time name="diag">    0.13    0.13</time>
   <time name="diis">    0.51    0.54</time>
   <time name="orth">    0.01    0.01</time>
   <time name="total">    0.73    0.80</time>
   <energy>
    <i name="e_fr_energy">   -354.03365963 </i>
    <i name="e_wo_entrp">   -354.05149360 </i>
    <i name="e_0_energy">   -354.03960429 </i>
   </energy>
  </scstep>
  <scstep>
   <time name="diag">    0.13    0.14</time>
   <time name="diis">    0.48    0.49</time>
   <time name="orth">    0.01    0.01</time>
   <time name="total">    0.72    0.77</time>
   <energy>
    <i name="e_fr_energy">   -354.03367319 </i>
    <i name="e_wo_entrp">   -354.05150462 </i>
    <i name="e_0_energy">   -354.03961700 </i>
   </energy>
  </scstep>
  <scstep>
   <time name="diag">    0.08    0.08</time>
   <time name="diis">    0.38    0.39</time>
   <time name="orth">    0.01    0.01</time>
   <time name="total">    0.50    0.53</time>
   <energy>
    <i name="alphaZ">   1454.88691371 </i>
    <i name="ewald"> -19109.32034844 </i>
    <i name="hartreedc">  -6288.84234856 </i>
    <i name="XCdc">   -254.98456483 </i>
    <i name="pawpsdc">  34162.67161259 </i>
    <i name="pawaedc"> -32572.31635673 </i>
    <i name="eentropy">      0.01782780 </i>
    <i name="bandstr">  -2595.59304487 </i>
    <i name="atom">  24849.44662987 </i>
    <i name="e_fr_energy">   -354.03367946 </i>
    <i name="e_wo_entrp">   -354.05150726 </i>
    <i name="e_0_energy">   -354.03962206 </i>
   </energy>
  </scstep>
  <structure>
   <crystal>
    <varray name="basis" >
     <v>       7.04389598       0.01119989      -0.03836635 </v>
     <v>       0.01644818      10.29676332      -0.00611921 </v>
     <v>      -0.05721089      -0.00624082      10.33395417 </v>
    </varray>
    <i name="volume">    749.49000336 </i>
    <varray name="rec_basis" >
     <v>       0.14197153      -0.00022632       0.00078585 </v>
     <v>      -0.00015410       0.09711818       0.00005780 </v>
     <v>       0.00052700       0.00005667       0.09677133 </v>
    </varray>
   </crystal>
   <varray name="positions" >
    <v>       0.74133445       0.83383429       0.82811837 </v>
    <v>       0.75747774       0.84029465       0.16950662 </v>
    <v>       0.99120054       0.99313241       0.32570195 </v>
    <v>       0.28312314       0.49666587       0.14605464 </v>
    <v>       0.23639170       0.84340911       0.18085244 </v>
    <v>       0.50367219       0.99158301       0.66425591 </v>
    <v>       0.72599177       0.50856348       0.15521675 </v>
    <v>       0.77734805       0.15382857       0.48836764 </v>
    <v>       0.50506596       0.67310556       0.99755627 </v>
    <v>       0.99526811       0.67370386       0.69331738 </v>
    <v>       0.24979234       0.82802926       0.81866406 </v>
    <v>       0.51946792       0.35205130       0.00294074 </v>
    <v>       0.73948182       0.50617339       0.84158593 </v>
    <v>       0.00101582       0.34523537       0.31852621 </v>
    <v>       0.49515915       0.66924154       0.32497879 </v>
    <v>       0.00311249       0.99471941       0.99537160 </v>
    <v>       0.22750743       0.16673860       0.50277393 </v>
    <v>       0.27350488       0.17131966       0.83336983 </v>
    <v>       0.00028003       0.66922375       0.00019644 </v>
    <v>       0.50936475       0.33621081       0.34122196 </v>
    <v>       0.78859833       0.51919664       0.50347948 </v>
    <v>       0.50614037       0.66912512       0.67159427 </v>
    <v>       0.76730952       0.83024131       0.50332531 </v>
    <v>       0.25775151       0.49426235       0.83481693 </v>
    <v>       0.26210944       0.16832449       0.15906475 </v>
    <v>       0.23358155       0.83103667       0.50284645 </v>
    <v>       0.96769612       0.32095853       0.68053496 </v>
    <v>       0.74166989       0.15762250       0.16655880 </v>
    <v>       0.98733482       0.00536347       0.68219283 </v>
    <v>       0.22812018       0.50194253       0.51486087 </v>
    <v>       0.01259675       0.66060452       0.30545246 </v>
    <v>       0.48319782       0.96641080       0.00193426 </v>
    <v>       0.50614601       0.99662230       0.34188237 </v>
    <v>       0.53050581       0.33260479       0.64931527 </v>
    <v>       0.98257346       0.34036017       0.00445604 </v>
    <v>       0.70910916       0.15826590       0.84912147 </v>
   </varray>
  </structure>
  <varray name="forces" >
   <v>       0.00270019       0.01659204      -0.00354076 </v>
   <v>      -0.00902686      -0.00507604      -0.01756602 </v>
   <v>      -0.00462996       0.01739961       0.00054049 </v>
   <v>      -0.00655424      -0.01892370      -0.01599753 </v>
   <v>       0.00568536       0.01236923      -0.02012069 </v>
   <v>      -0.00403152      -0.01210743      -0.03232403 </v>
   <v>       0.01532911      -0.02027697      -0.00305651 </v>
   <v>      -0.00071600       0.00104224       0.01537877 </v>
   <v>      -0.00053584       0.00690255       0.00377431 </v>
   <v>      -0.00817036       0.00535295      -0.00619653 </v>
   <v>      -0.00574074       0.00555033       0.00404790 </v>
   <v>      -0.01669930       0.01423915       0.01236713 </v>
   <v>      -0.00812257      -0.01377428      -0.01106399 </v>
   <v>      -0.00480716      -0.00342948      -0.01316040 </v>
   <v>      -0.01114821       0.00213074       0.02129897 </v>
   <v>       0.02459875       0.02327275       0.00991105 </v>
   <v>      -0.00055784       0.00646931      -0.00335017 </v>
   <v>      -0.02022849       0.02669296      -0.00602500 </v>
   <v>      -0.00125002      -0.00033831       0.00314421 </v>
   <v>       0.00478447      -0.00115785       0.00252221 </v>
   <v>      -0.01401335      -0.00844983       0.00330821 </v>
   <v>       0.01111022       0.00822766       0.00377693 </v>
   <v>      -0.00448886       0.00371654       0.00796458 </v>
   <v>      -0.00330992      -0.01030068      -0.00180173 </v>
   <v>      -0.01382944       0.00063725       0.02695997 </v>
   <v>       0.00781884       0.01757044       0.01594990 </v>
   <v>       0.04155002       0.00029540       0.01036148 </v>
   <v>      -0.03269896       0.00225688      -0.00278804 </v>
   <v>       0.02186191      -0.00502957      -0.01199859 </v>
   <v>       0.01289493      -0.02368791       0.00963340 </v>
   <v>       0.00797103      -0.00708725       0.00194231 </v>
   <v>      -0.03799455      -0.02126929       0.03896753 </v>
   <v>       0.01365732       0.01405810      -0.01634672 </v>
   <v>      -0.01764132      -0.00075765      -0.00467521 </v>
   <v>       0.01148208      -0.01439593      -0.02592185 </v>
   <v>       0.04475131      -0.01871396       0.00408439 </v>
  </varray>
  <varray name="stress" >
   <v>       4.15144818      -0.02129176       0.44356035 </v>
   <v>      -0.02129174       3.87361924       0.03625788 </v>
   <v>       0.44356037       0.03625792       4.02395066 </v>
  </varray>
  <energy>
   <i name="e_fr_energy">   -354.03367946 </i>
   <i name="e_wo_entrp">   -354.03962206 </i>
   <i name="e_0_energy">      0.01782780 </i>
  </energy>
  <time name="totalsc">   11.13   12.12</time>
 </calculation>
 <calculation>
  <scstep>
   <time name="dav">    0.95    0.97</time>
   <time name="total">    1.10    1.23</time>
   <energy>
    <i name="alphaZ">   1452.65899706 </i>
    <i name="ewald"> -19096.23133157 </i>
    <i name="hartreedc">  -6288.85446261 </i>
    <i name="XCdc">   -255.41378214 </i>
    <i name="pawpsdc">  34162.74333113 </i>
    <i name="pawaedc"> -32572.37390673 </i>
    <i name="eentropy">      0.01756737 </i>
    <i name="bandstr">  -2606.03230615 </i>
    <i name="atom">  24849.44662987 </i>
    <i name="e_fr_energy">   -354.03926377 </i>
    <i name="e_wo_entrp">   -354.05683113 </i>
    <i name="e_0_energy">   -354.04511955 </i>
   </energy>
  </scstep>
  <scstep>
   <time name="diag">    0.08    0.08</time>
   <time name="diis">    0.73    0.75</time>
   <time name="orth">    0.01    0.01</time>
   <time name="total">    0.89    0.93</time>
   <energy>
    <i name="e_fr_energy">   -354.03793480 </i>
    <i name="e_wo_entrp">   -354.05605536 </i>
    <i name="e_0_energy">   -354.04397498 </i>
   </energy>
  </scstep>
  <scstep>
   <time name="diag">    0.08    0.08</time>
   <time name="diis">    0.76    0.78</time>
   <time name="orth">    0.01    0.01</time>
   <time name="total">    0.92    0.97</time>
   <energy>
    <i name="e_fr_energy">   -354.03640344 </i>
    <i name="e_wo_entrp">   -354.05406451 </i>
    <i name="e_0_energy">   -354.04229047 </i>
   </energy>
  </scstep>
  <scstep>
   <time name="diag">    0.09    0.09</time>
   <time name="diis">    0.81    0.82</time>
   <time name="orth">    0.01    0.01</time>
   <time name="total">    0.98    1.02</time>
   <energy>
    <i name="e_fr_energy">   -354.03554321 </i>
    <i name="e_wo_entrp">   -354.05344246 </i>
    <i name="e_0_energy">   -354.04150963 </i>
   </energy>
  </scstep>
  <scstep>
   <time name="diag">    0.08    0.08</time>
   <time name="diis">    0.75    0.77</time>
   <time name="orth">    0.01    0.01</time>
   <time name="total">    0.91    0.99</time>
   <energy>
    <i name="e_fr_energy">   -354.03541620 </i>
    <i name="e_wo_entrp">   -354.05328425 </i>
    <i name="e_0_energy">   -354.04137221 </i>
   </energy>
  </scstep>
  <scstep>
   <time name="diag">    0.10    0.10</time>
   <time name="diis">    0.70    0.71</time>
   <time name="orth">    0.01    0.01</time>
   <time name="total">    0.88    0.92</time>
   <energy>
    <i name="e_fr_energy">   -354.03540641 </i>
    <i name="e_wo_entrp">   -354.05325894 </i>
    <i name="e_0_energy">   -354.04135725 </i>
   </energy>
  </scstep>
  <scstep>
   <time name="diag">    0.08    0.08</time>
   <time name="diis">    0.56    0.57</time>
   <time name="orth">    0.01    0.01</time>
   <time name="total">    0.76    0.82</time>
   <energy>
    <i name="e_fr_energy">   -354.03539595 </i>
    <i name="e_wo_entrp">   -354.05328664 </i>
    <i name="e_0_energy">   -354.04135951 </i>
   </energy>
  </scstep>
  <scstep>
   <time name="diag">    0.14    0.14</time>
   <time name="diis">    0.55    0.56</time>
   <time name="orth">    0.01    0.01</time>
   <time name="total">    0.74    0.79</time>
   <energy>
    <i name="alphaZ">   1452.65899706 </i>
    <i name="ewald"> -19096.23133157 </i>
    <i name="hartreedc">  -6295.22794708 </i>
    <i name="XCdc">   -255.13705729 </i>
    <i name="pawpsdc">  34095.83420611 </i>
    <i name="pawaedc"> -32505.33681216 </i>
    <i name="eentropy">      0.01786610 </i>
    <i name="bandstr">  -2600.05994393 </i>
    <i name="atom">  24849.44662987 </i>
    <i name="e_fr_energy">   -354.03539288 </i>
    <i name="e_wo_entrp">   -354.05325898 </i>
    <i name="e_0_energy">   -354.04134825 </i>
   </energy>
  </scstep>
  <structure>
   <crystal>
    <varray name="basis" >
     <v>       7.04506508       0.01135749      -0.03647122 </v>
     <v>       0.01666957      10.30510866      -0.00553360 </v>
     <v>      -0.05440998      -0.00566045      10.33967543 </v>
    </varray>
    <i name="volume">    750.63948252 </i>
    <varray name="rec_basis" >
     <v>       0.14194757      -0.00022921       0.00074684 </v>
     <v>      -0.00015617       0.09703953       0.00005230 </v>
     <v>       0.00050061       0.00005113       0.09671750 </v>
    </varray>
   </crystal>
   <varray name="positions" >
    <v>       0.74139556       0.83328269       0.82802906 </v>
    <v>       0.75744972       0.84043938       0.16943893 </v>
    <v>       0.99123878       0.99306998       0.32563573 </v>
    <v>       0.28308089       0.49662856       0.14596966 </v>
    <v>       0.23645996       0.84340665       0.18076677 </v>
    <v>       0.50344799       0.99126324       0.66392301 </v>
    <v>       0.72599585       0.50845604       0.15519556 </v>
    <v>       0.77730735       0.15385563       0.48814295 </v>
    <v>       0.50486103       0.67310132       0.99763920 </v>
    <v>       0.99522876       0.67369829       0.69333649 </v>
    <v>       0.24976852       0.82807133       0.81864396 </v>
    <v>       0.51927546       0.35235926       0.00302753 </v>
    <v>       0.73956133       0.50647488       0.84155912 </v>
    <v>       0.00093403       0.34527819       0.31849680 </v>
    <v>       0.49512099       0.66927707       0.32500175 </v>
    <v>       0.00324124       0.99451001       0.99561106 </v>
    <v>       0.22747287       0.16673195       0.50292610 </v>
    <v>       0.27293393       0.17139046       0.83323522 </v>
    <v>       0.00027163       0.66923751       0.00025207 </v>
    <v>       0.50943947       0.33621129       0.34122280 </v>
    <v>       0.78859782       0.51916827       0.50352144 </v>
    <v>       0.50622045       0.66914716       0.67158135 </v>
    <v>       0.76728531       0.83029221       0.50341511 </v>
    <v>       0.25782353       0.49412927       0.83483262 </v>
    <v>       0.26220261       0.16830018       0.15888341 </v>
    <v>       0.23366404       0.83105690       0.50292820 </v>
    <v>       0.96787015       0.32107922       0.68047001 </v>
    <v>       0.74180395       0.15754926       0.16714427 </v>
    <v>       0.98744913       0.00521546       0.68206204 </v>
    <v>       0.22814459       0.50193951       0.51487257 </v>
    <v>       0.01260283       0.66054928       0.30540891 </v>
    <v>       0.48323049       0.96624300       0.00207547 </v>
    <v>       0.50609260       0.99660811       0.34182519 </v>
    <v>       0.53021369       0.33280648       0.64913040 </v>
    <v>       0.98287312       0.34055936       0.00464926 </v>
    <v>       0.70944133       0.15861861       0.84915997 </v>
   </varray>
  </structure>
  <varray name="forces" >
   <v>      -0.00127136       0.05110428       0.00422976 </v>
   <v>      -0.00415433      -0.01438285      -0.00522739 </v>
   <v>      -0.00446757       0.01429289       0.00492009 </v>
   <v>      -0.00202936      -0.00863389      -0.00281375 </v>
   <v>       0.00013963       0.00706635      -0.00519244 </v>
   <v>       0.00896233       0.01666565       0.00541561 </v>
   <v>       0.00917412      -0.00380310       0.00022213 </v>
   <v>       0.00176093      -0.00121395       0.02559044 </v>
   <v>       0.01040821       0.00363461      -0.00379158 </v>
   <v>      -0.00314028       0.00311173      -0.00488046 </v>
   <v>      -0.00193236      -0.00038296       0.00306545 </v>
   <v>      -0.00080268      -0.01329045       0.00128923 </v>
   <v>      -0.00828932      -0.02920213      -0.00533780 </v>
   <v>       0.00087239      -0.00484994      -0.00612557 </v>
   <v>      -0.00516693      -0.00129655       0.01144278 </v>
   <v>       0.00901383       0.02900737      -0.01122251 </v>
   <v>       0.00155022       0.00410905      -0.01268833 </v>
   <v>       0.01610332       0.01096677       0.00559523 </v>
   <v>       0.00008409      -0.00167338      -0.00256795 </v>
   <v>      -0.00057758      -0.00093129       0.00161998 </v>
   <v>      -0.00843991      -0.00264742      -0.00095314 </v>
   <v>       0.00318155       0.00336878       0.00277842 </v>
   <v>      -0.00152768      -0.00158618      -0.00143293 </v>
   <v>      -0.00565316       0.00298755      -0.00230827 </v>
   <v>      -0.01254445       0.00223160       0.02904152 </v>
   <v>       0.00055597       0.00910112       0.00425021 </v>
   <v>       0.01603602      -0.00854334       0.01092310 </v>
   <v>      -0.02651545       0.00728544      -0.04479706 </v>
   <v>       0.00740442       0.00827442       0.00255204 </v>
   <v>       0.00614068      -0.01407306       0.00448771 </v>
   <v>       0.00409606      -0.00016032       0.00397255 </v>
   <v>      -0.02450736      -0.00047611       0.01360143 </v>
   <v>       0.01075684       0.00926887      -0.00566298 </v>
   <v>       0.00382992      -0.01495441       0.01028247 </v>
   <v>      -0.00798968      -0.02271419      -0.02960588 </v>
   <v>       0.00893892      -0.03766094      -0.00067211 </v>
  </varray>
  <varray name="stress" >
   <v>       2.61145666      -0.02797196       0.14886712 </v>
   <v>      -0.02797194       2.14733460      -0.00787102 </v>
   <v>       0.14886706      -0.00787097       2.33260066 </v>
  </varray>
  <energy>
   <i name="e_fr_energy">   -354.03539288 </i>
   <i name="e_wo_entrp">   -354.04134825 </i>
   <i name="e_0_energy">      0.01786610 </i>
  </energy>
  <time name="totalsc">    8.79    9.42</time>
 </calculation>
 <calculation>
  <scstep>
   <time name="dav">    0.94    0.97</time>
   <time name="total">    1.09    1.22</time>
   <energy>
    <i name="alphaZ">   1452.04264898 </i>
    <i name="ewald"> -19094.43924769 </i>
    <i name="hartreedc">  -6293.44685523 </i>
    <i name="XCdc">   -255.26236277 </i>
    <i name="pawpsdc">  34096.24498902 </i>
    <i name="pawaedc"> -32505.79496151 </i>
    <i name="eentropy">      0.01802592 </i>
    <i name="bandstr">  -2602.84527319 </i>
    <i name="atom">  24849.44662987 </i>
    <i name="e_fr_energy">   -354.03640661 </i>
    <i name="e_wo_entrp">   -354.05443253 </i>
    <i name="e_0_energy">   -354.04241525 </i>
   </energy>
  </scstep>
  <scstep>
   <time name="diag">    0.08    0.08</time>
   <time name="diis">    0.73    0.74</time>
   <time name="orth">    0.01    0.01</time>
   <time name="total">    0.89    0.92</time>
   <energy>
    <i name="e_fr_energy">   -354.03628181 </i>
    <i name="e_wo_entrp">   -354.05423946 </i>
    <i name="e_0_energy">   -354.04226769 </i>
   </energy>
  </scstep>
  <scstep>
   <time name="diag">    0.08    0.08</time>
   <time name="diis">    0.75    0.77</time>
   <time name="orth">    0.01    0.01</time>
   <time name="total">    0.91    0.96</time>
   <energy>
    <i name="e_fr_energy">   -354.03623245 </i>
    <i name="e_wo_entrp">   -354.05422581 </i>
    <i name="e_0_energy">   -354.04223024 </i>
   </energy>
  </scstep>
  <scstep>
   <time name="diag">    0.08    0.08</time>
   <time name="diis">    0.69    0.71</time>
   <time name="orth">    0.01    0.01</time>
   <time name="total">    0.85    0.89</time>
   <energy>
    <i name="e_fr_energy">   -354.03616955 </i>
    <i name="e_wo_entrp">   -354.05414571 </i>
    <i name="e_0_energy">   -354.04216160 </i>
   </energy>
  </scstep>
  <scstep>
   <time name="diag">    0.08    0.08</time>
   <time name="diis">    0.49    0.49</time>
   <time name="orth">    0.01    0.01</time>
   <time name="total">    0.62    0.64</time>
   <energy>
    <i name="alphaZ">   1452.04264898 </i>
    <i name="ewald"> -19094.43924769 </i>
    <i name="hartreedc">  -6295.08306478 </i>
    <i name="XCdc">   -255.18792562 </i>
    <i name="pawpsdc">  34071.34999766 </i>
    <i name="pawaedc"> -32480.93876921 </i>
    <i name="eentropy">      0.01797179 </i>
    <i name="bandstr">  -2601.24440379 </i>
    <i name="atom">  24849.44662987 </i>
    <i name="e_fr_energy">   -354.03616279 </i>
    <i name="e_wo_entrp">   -354.05413458 </i>
    <i name="e_0_energy">   -354.04215339 </i>
   </energy>
  </scstep>
  <structure>
   <crystal>
    <varray name="basis" >
     <v>       7.04675228       0.01130646      -0.03676639 </v>
     <v>       0.01659754      10.30568756      -0.00566556 </v>
     <v>      -0.05484905      -0.00579137      10.34101109 </v>
    </varray>
    <i name="volume">    750.95810623 </i>
    <varray name="rec_basis" >
     <v>       0.14191364      -0.00022814       0.00075259 </v>
     <v>      -0.00015541       0.09703408       0.00005352 </v>
     <v>       0.00050447       0.00005235       0.09670505 </v>
    </varray>
   </crystal>
   <varray name="positions" >
    <v>       0.74138123       0.83343811       0.82805106 </v>
    <v>       0.75745082       0.84039784       0.16944899 </v>
    <v>       0.99122566       0.99309424       0.32565342 </v>
    <v>       0.28308740       0.49662960       0.14598523 </v>
    <v>       0.23644578       0.84341269       0.18078065 </v>
    <v>       0.50350517       0.99134318       0.66399694 </v>
    <v>       0.72600552       0.50847553       0.15520020 </v>
    <v>       0.77731802       0.15384903       0.48820995 </v>
    <v>       0.50491583       0.67310504       0.99761892 </v>
    <v>       0.99523337       0.67370190       0.69332867 </v>
    <v>       0.24977131       0.82806223       0.81865055 </v>
    <v>       0.51931487       0.35228442       0.00301036 </v>
    <v>       0.73953521       0.50638894       0.84156053 </v>
    <v>       0.00095212       0.34526543       0.31849817 </v>
    <v>       0.49512313       0.66926863       0.32500586 </v>
    <v>       0.00322451       0.99457652       0.99555224 </v>
    <v>       0.22748181       0.16673655       0.50288436 </v>
    <v>       0.27307191       0.17138422       0.83326780 </v>
    <v>       0.00027348       0.66923332       0.00023842 </v>
    <v>       0.50942318       0.33621046       0.34122389 </v>
    <v>       0.78858826       0.51917214       0.50351188 </v>
    <v>       0.50620734       0.66914519       0.67158624 </v>
    <v>       0.76728863       0.83028032       0.50339519 </v>
    <v>       0.25780195       0.49415946       0.83482752 </v>
    <v>       0.26216889       0.16830704       0.15894398 </v>
    <v>       0.23364742       0.83105979       0.50291442 </v>
    <v>       0.96785216       0.32104726       0.68049220 </v>
    <v>       0.74174528       0.15757031       0.16698668 </v>
    <v>       0.98743367       0.00525289       0.68209144 </v>
    <v>       0.22814656       0.50192912       0.51487365 </v>
    <v>       0.01260627       0.66056070       0.30542114 </v>
    <v>       0.48319567       0.96627778       0.00205644 </v>
    <v>       0.50611605       0.99661832       0.34183278 </v>
    <v>       0.53027931       0.33275257       0.64917712 </v>
    <v>       0.98280111       0.34049990       0.00458569 </v>
    <v>       0.70938210       0.15851531       0.84915143 </v>
   </varray>
  </structure>
  <varray name="forces" >
   <v>      -0.00150335       0.04077622       0.00142899 </v>
   <v>      -0.00347908      -0.00986872      -0.00747341 </v>
   <v>      -0.00755152       0.01326074       0.00231500 </v>
   <v>       0.00059941      -0.01081594      -0.00839203 </v>
   <v>      -0.00114163       0.00971722      -0.00659968 </v>
   <v>       0.00687557       0.00761155      -0.00204168 </v>
   <v>       0.00628118      -0.00722697      -0.00437948 </v>
   <v>       0.00292671      -0.00184157       0.02222388 </v>
   <v>       0.00901863       0.00307684      -0.00175753 </v>
   <v>      -0.00522883       0.00594263      -0.00267484 </v>
   <v>      -0.00298156       0.00178830       0.00136149 </v>
   <v>      -0.00151524      -0.00522876       0.00527497 </v>
   <v>      -0.00921229      -0.02593536      -0.00456754 </v>
   <v>      -0.00091125      -0.00340704      -0.00817363 </v>
   <v>      -0.00616953      -0.00102963       0.01085385 </v>
   <v>       0.01188304       0.02571059      -0.00618012 </v>
   <v>      -0.00041323       0.00405539      -0.01050386 </v>
   <v>       0.01001789       0.01358750       0.00268914 </v>
   <v>      -0.00191731      -0.00128856      -0.00106418 </v>
   <v>       0.00094312      -0.00049156       0.00133640 </v>
   <v>      -0.00744112      -0.00355001       0.00125090 </v>
   <v>       0.00556553       0.00543955       0.00490675 </v>
   <v>      -0.00134170       0.00123214       0.00109916 </v>
   <v>      -0.00393149       0.00083888      -0.00100582 </v>
   <v>      -0.01230388       0.00169975       0.02828268 </v>
   <v>       0.00152022       0.01171342       0.00664368 </v>
   <v>       0.01911477      -0.00698420       0.01060005 </v>
   <v>      -0.02646896       0.00448148      -0.03301709 </v>
   <v>       0.00931279       0.00460874      -0.00010103 </v>
   <v>       0.00574479      -0.01536177       0.00706514 </v>
   <v>       0.00572790      -0.00164574       0.00159827 </v>
   <v>      -0.02640827      -0.00815256       0.01802860 </v>
   <v>       0.01310246       0.00945071      -0.00814947 </v>
   <v>       0.00127423      -0.01158291       0.00672569 </v>
   <v>      -0.00533561      -0.01850535      -0.02766877 </v>
   <v>       0.01534757      -0.03207503       0.00006555 </v>
  </varray>
[...]
       <r>    6.6352    1.0000 </r>
       <r>    6.6557    1.0000 </r>
       <r>    6.7057    1.0000 </r>
       <r>    6.7545    1.0000 </r>
       <r>    6.7911    1.0000 </r>
       <r>    6.8217    1.0000 </r>
       <r>    6.8398    1.0000 </r>
       <r>    6.8726    1.0000 </r>
       <r>    6.9318    1.0004 </r>
       <r>    6.9576    1.0009 </r>
       <r>    6.9973    1.0027 </r>
       <r>    7.0231    1.0052 </r>
       <r>    7.0391    1.0075 </r>
       <r>    7.0899    1.0193 </r>
       <r>    7.1180    1.0279 </r>
       <r>    7.1392    1.0333 </r>
       <r>    7.1791    1.0320 </r>
       <r>    7.2139    1.0028 </r>
       <r>    7.2545    0.9131 </r>
       <r>    7.2940    0.7571 </r>
       <r>    7.3041    0.7071 </r>
       <r>    7.3827    0.2806 </r>
       <r>    7.3852    0.2678 </r>
       <r>    7.4795   -0.0140 </r>
       <r>    7.4983   -0.0288 </r>
       <r>    7.5143   -0.0344 </r>
       <r>    7.5725   -0.0260 </r>
       <r>    7.6020   -0.0172 </r>
       <r>    7.6408   -0.0082 </r>
       <r>    7.6827   -0.0030 </r>
       <r>    7.7364   -0.0006 </r>
       <r>    7.7679   -0.0002 </r>
       <r>    7.8006   -0.0001 </r>
       <r>    7.8305   -0.0000 </r>
       <r>    7.8631   -0.0000 </r>
       <r>    7.8965   -0.0000 </r>
       <r>    7.9103   -0.0000 </r>
       <r>    7.9871   -0.0000 </r>
       <r>    8.0603   -0.0000 </r>
       <r>    8.1052   -0.0000 </r>
       <r>    8.1681   -0.0000 </r>
       <r>    8.1953   -0.0000 </r>
       <r>    8.2319   -0.0000 </r>
       <r>    8.2978   -0.0000 </r>
       <r>    8.4309   -0.0000 </r>
       <r>    8.4998   -0.0000 </r>
       <r>    8.6163   -0.0000 </r>
       <r>    8.7602   -0.0000 </r>
       <r>    9.0534   -0.0000 </r>
      </set>
     </set>
    </set>
   </array>
  </eigenvalues>
  <separator name="orbital magnetization" >
   <v name="MAGDIPOLOUT">      0.00000000      0.00000000      0.00000000</v>
  </separator>
  <dos>
   <i name="efermi">      7.34217781 </i>
   <total>
    <array>
     <dimension dim="1">gridpoints</dimension>
     <dimension dim="2">spin</dimension>
     <field>energy</field>
     <field>total</field>
     <field>integrated</field>
     <set>
      <set comment="spin 1">
       <r>   -49.6839     0.0000     0.0000 </r>
       <r>   -49.4783     0.0000     0.0000 </r>
       <r>   -49.2727     0.0000     0.0000 </r>
       <r>   -49.0671     0.0000     0.0000 </r>
       <r>   -48.8615     0.0000     0.0000 </r>
       <r>   -48.6559     0.0000     0.0000 </r>
       <r>   -48.4503     0.0000     0.0000 </r>
       <r>   -48.2447    -0.0000    -0.0000 </r>
       <r>   -48.0391    -0.0000    -0.0000 </r>
       <r>   -47.8335    -0.0000    -0.0000 </r>
       <r>   -47.6279    -0.0000    -0.0000 </r>
       <r>   -47.4223    -0.0000    -0.0000 </r>
       <r>   -47.2167    -0.0488    -0.0100 </r>
       <r>   -47.0111    -0.4736    -0.1074 </r>
       <r>   -46.8055    17.8839     3.5694 </r>
       <r>   -46.6000    19.6559     7.6106 </r>
       <r>   -46.3944     2.1038     8.0431 </r>
       <r>   -46.1888    -0.2090     8.0001 </r>
       <r>   -45.9832    -0.0007     8.0000 </r>
       <r>   -45.7776    -0.0000     8.0000 </r>
       <r>   -45.5720    -0.0000     8.0000 </r>
       <r>   -45.3664     0.0000     8.0000 </r>
       <r>   -45.1608     0.0000     8.0000 </r>
       <r>   -44.9552     0.0000     8.0000 </r>
       <r>   -44.7496     0.0000     8.0000 </r>
       <r>   -44.5440     0.0000     8.0000 </r>
       <r>   -44.3384     0.0000     8.0000 </r>
       <r>   -44.1328     0.0000     8.0000 </r>
       <r>   -43.9272     0.0000     8.0000 </r>
       <r>   -43.7216     0.0000     8.0000 </r>
       <r>   -43.5160     0.0000     8.0000 </r>
       <r>   -43.3104     0.0000     8.0000 </r>
       <r>   -43.1048     0.0000     8.0000 </r>
       <r>   -42.8993     0.0000     8.0000 </r>
       <r>   -42.6937     0.0000     8.0000 </r>
       <r>   -42.4881     0.0000     8.0000 </r>
       <r>   -42.2825    -0.0000     8.0000 </r>
       <r>   -42.0769    -0.0000     8.0000 </r>
       <r>   -41.8713    -0.0000     8.0000 </r>
       <r>   -41.6657    -0.0000     8.0000 </r>
       <r>   -41.4601    -0.0017     7.9996 </r>
       <r>   -41.2545    -0.6394     7.8682 </r>
       <r>   -41.0489     4.9105     8.8778 </r>
       <r>   -40.8433    84.1364    26.1757 </r>
       <r>   -40.6377    39.3936    34.2749 </r>
       <r>   -40.4321    -1.2339    34.0212 </r>
       <r>   -40.2265    -0.1029    34.0000 </r>
       <r>   -40.0209    -0.0001    34.0000 </r>
       <r>   -39.8153    -0.0000    34.0000 </r>
       <r>   -39.6097     0.0000    34.0000 </r>
       <r>   -39.4041     0.0000    34.0000 </r>
       <r>   -39.1986     0.0000    34.0000 </r>
       <r>   -38.9930     0.0000    34.0000 </r>
       <r>   -38.7874     0.0000    34.0000 </r>
       <r>   -38.5818     0.0000    34.0000 </r>
       <r>   -38.3762     0.0000    34.0000 </r>
       <r>   -38.1706     0.0000    34.0000 </r>
       <r>   -37.9650     0.0000    34.0000 </r>
       <r>   -37.7594     0.0000    34.0000 </r>
       <r>   -37.5538     0.0000    34.0000 </r>
       <r>   -37.3482     0.0000    34.0000 </r>
       <r>   -37.1426     0.0000    34.0000 </r>
       <r>   -36.9370     0.0000    34.0000 </r>
       <r>   -36.7314     0.0000    34.0000 </r>
       <r>   -36.5258     0.0000    34.0000 </r>
       <r>   -36.3202     0.0000    34.0000 </r>
       <r>   -36.1146     0.0000    34.0000 </r>
       <r>   -35.9090     0.0000    34.0000 </r>
       <r>   -35.7034     0.0000    34.0000 </r>
       <r>   -35.4979     0.0000    34.0000 </r>
       <r>   -35.2923     0.0000    34.0000 </r>
       <r>   -35.0867     0.0000    34.0000 </r>
       <r>   -34.8811     0.0000    34.0000 </r>
       <r>   -34.6755     0.0000    34.0000 </r>
       <r>   -34.4699     0.0000    34.0000 </r>
       <r>   -34.2643     0.0000    34.0000 </r>
       <r>   -34.0587     0.0000    34.0000 </r>
       <r>   -33.8531     0.0000    34.0000 </r>
       <r>   -33.6475     0.0000    34.0000 </r>
       <r>   -33.4419     0.0000    34.0000 </r>
       <r>   -33.2363     0.0000    34.0000 </r>
       <r>   -33.0307     0.0000    34.0000 </r>
       <r>   -32.8251     0.0000    34.0000 </r>
       <r>   -32.6195     0.0000    34.0000 </r>
       <r>   -32.4139     0.0000    34.0000 </r>
       <r>   -32.2083     0.0000    34.0000 </r>
       <r>   -32.0027     0.0000    34.0000 </r>
       <r>   -31.7972     0.0000    34.0000 </r>
       <r>   -31.5916     0.0000    34.0000 </r>
       <r>   -31.3860     0.0000    34.0000 </r>
       <r>   -31.1804     0.0000    34.0000 </r>
       <r>   -30.9748     0.0000    34.0000 </r>
       <r>   -30.7692     0.0000    34.0000 </r>
       <r>   -30.5636     0.0000    34.0000 </r>
       <r>   -30.3580     0.0000    34.0000 </r>
       <r>   -30.1524     0.0000    34.0000 </r>
       <r>   -29.9468     0.0000    34.0000 </r>
       <r>   -29.7412     0.0000    34.0000 </r>
       <r>   -29.5356     0.0000    34.0000 </r>
       <r>   -29.3300     0.0000    34.0000 </r>
       <r>   -29.1244     0.0000    34.0000 </r>
       <r>   -28.9188     0.0000    34.0000 </r>
       <r>   -28.7132     0.0000    34.0000 </r>
       <r>   -28.5076     0.0000    34.0000 </r>
       <r>   -28.3020     0.0000    34.0000 </r>
       <r>   -28.0965     0.0000    34.0000 </r>
       <r>   -27.8909     0.0000    34.0000 </r>
       <r>   -27.6853     0.0000    34.0000 </r>
       <r>   -27.4797     0.0000    34.0000 </r>
       <r>   -27.2741     0.0000    34.0000 </r>
       <r>   -27.0685     0.0000    34.0000 </r>
       <r>   -26.8629     0.0000    34.0000 </r>
       <r>   -26.6573     0.0000    34.0000 </r>
       <r>   -26.4517     0.0000    34.0000 </r>
       <r>   -26.2461     0.0000    34.0000 </r>
       <r>   -26.0405     0.0000    34.0000 </r>
       <r>   -25.8349     0.0000    34.0000 </r>
       <r>   -25.6293     0.0000    34.0000 </r>
       <r>   -25.4237     0.0000    34.0000 </r>
       <r>   -25.2181     0.0000    34.0000 </r>
       <r>   -25.0125     0.0000    34.0000 </r>
       <r>   -24.8069     0.0000    34.0000 </r>
       <r>   -24.6014    -0.0000    34.0000 </r>
       <r>   -24.3958    -0.0000    34.0000 </r>
       <r>   -24.1902    -0.0000    34.0000 </r>
       <r>   -23.9846    -0.0000    34.0000 </r>
       <r>   -23.7790    -0.0010    33.9998 </r>
       <r>   -23.5734    -0.2405    33.9504 </r>
       <r>   -23.3678     2.9097    34.5486 </r>
       <r>   -23.1622    14.0685    37.4410 </r>
       <r>   -22.9566    31.4802    43.9132 </r>
       <r>   -22.7510    46.7153    53.5176 </r>
       <r>   -22.5454    16.5909    56.9286 </r>
       <r>   -22.3398     5.6133    58.0826 </r>
       <r>   -22.1342    -0.3984    58.0007 </r>
       <r>   -21.9286    -0.0035    58.0000 </r>
       <r>   -21.7230    -0.0000    58.0000 </r>
       <r>   -21.5174    -0.0000    58.0000 </r>
       <r>   -21.3118     0.0000    58.0000 </r>
       <r>   -21.1062     0.0000    58.0000 </r>
       <r>   -20.9007     0.0000    58.0000 </r>
       <r>   -20.6951    -0.0000    58.0000 </r>
       <r>   -20.4895    -0.0000    58.0000 </r>
       <r>   -20.2839    -0.0000    58.0000 </r>
       <r>   -20.0783    -0.0000    58.0000 </r>
       <r>   -19.8727    -0.0004    57.9999 </r>
       <r>   -19.6671    -0.1795    57.9630 </r>
       <r>   -19.4615     0.3832    58.0418 </r>
       <r>   -19.2559    31.5377    64.5258 </r>
       <r>   -19.0503   116.9145    88.5627 </r>
       <r>   -18.8447   141.9744   117.7519 </r>
       <r>   -18.6391    78.7418   133.9408 </r>
       <r>   -18.4335    10.9316   136.1882 </r>
       <r>   -18.2279    -0.9026   136.0027 </r>
       <r>   -18.0223    -0.0130   136.0000 </r>
       <r>   -17.8167    -0.0000   136.0000 </r>
       <r>   -17.6111    -0.0000   136.0000 </r>
       <r>   -17.4055     0.0000   136.0000 </r>
       <r>   -17.2000     0.0000   136.0000 </r>
       <r>   -16.9944     0.0000   136.0000 </r>
       <r>   -16.7888     0.0000   136.0000 </r>
       <r>   -16.5832     0.0000   136.0000 </r>
       <r>   -16.3776     0.0000   136.0000 </r>
       <r>   -16.1720     0.0000   136.0000 </r>
       <r>   -15.9664     0.0000   136.0000 </r>
       <r>   -15.7608     0.0000   136.0000 </r>
       <r>   -15.5552     0.0000   136.0000 </r>
       <r>   -15.3496     0.0000   136.0000 </r>
       <r>   -15.1440     0.0000   136.0000 </r>
       <r>   -14.9384     0.0000   136.0000 </r>
       <r>   -14.7328     0.0000   136.0000 </r>
       <r>   -14.5272     0.0000   136.0000 </r>
       <r>   -14.3216     0.0000   136.0000 </r>
       <r>   -14.1160     0.0000   136.0000 </r>
       <r>   -13.9104     0.0000   136.0000 </r>
       <r>   -13.7048     0.0000   136.0000 </r>
       <r>   -13.4993     0.0000   136.0000 </r>
       <r>   -13.2937     0.0000   136.0000 </r>
       <r>   -13.0881     0.0000   136.0000 </r>
       <r>   -12.8825     0.0000   136.0000 </r>
       <r>   -12.6769     0.0000   136.0000 </r>
       <r>   -12.4713     0.0000   136.0000 </r>
       <r>   -12.2657     0.0000   136.0000 </r>
       <r>   -12.0601     0.0000   136.0000 </r>
       <r>   -11.8545     0.0000   136.0000 </r>
       <r>   -11.6489     0.0000   136.0000 </r>
       <r>   -11.4433     0.0000   136.0000 </r>
       <r>   -11.2377     0.0000   136.0000 </r>
       <r>   -11.0321     0.0000   136.0000 </r>
       <r>   -10.8265     0.0000   136.0000 </r>
       <r>   -10.6209     0.0000   136.0000 </r>
       <r>   -10.4153     0.0000   136.0000 </r>
       <r>   -10.2097     0.0000   136.0000 </r>
       <r>   -10.0041     0.0000   136.0000 </r>
       <r>    -9.7986     0.0000   136.0000 </r>
       <r>    -9.5930     0.0000   136.0000 </r>
       <r>    -9.3874     0.0000   136.0000 </r>
       <r>    -9.1818     0.0000   136.0000 </r>
       <r>    -8.9762     0.0000   136.0000 </r>
       <r>    -8.7706     0.0000   136.0000 </r>
       <r>    -8.5650     0.0000   136.0000 </r>
       <r>    -8.3594     0.0000   136.0000 </r>
       <r>    -8.1538     0.0000   136.0000 </r>
       <r>    -7.9482     0.0000   136.0000 </r>
       <r>    -7.7426     0.0000   136.0000 </r>
       <r>    -7.5370     0.0000   136.0000 </r>
       <r>    -7.3314     0.0000   136.0000 </r>
       <r>    -7.1258     0.0000   136.0000 </r>
       <r>    -6.9202     0.0000   136.0000 </r>
       <r>    -6.7146     0.0000   136.0000 </r>
       <r>    -6.5090     0.0000   136.0000 </r>
       <r>    -6.3034     0.0000   136.0000 </r>
       <r>    -6.0979     0.0000   136.0000 </r>
       <r>    -5.8923     0.0000   136.0000 </r>
       <r>    -5.6867     0.0000   136.0000 </r>
       <r>    -5.4811     0.0000   136.0000 </r>
       <r>    -5.2755     0.0000   136.0000 </r>
       <r>    -5.0699     0.0000   136.0000 </r>
       <r>    -4.8643     0.0000   136.0000 </r>
       <r>    -4.6587     0.0000   136.0000 </r>
       <r>    -4.4531     0.0000   136.0000 </r>
       <r>    -4.2475     0.0000   136.0000 </r>
       <r>    -4.0419     0.0000   136.0000 </r>
       <r>    -3.8363     0.0000   136.0000 </r>
       <r>    -3.6307     0.0000   136.0000 </r>
       <r>    -3.4251     0.0000   136.0000 </r>
       <r>    -3.2195     0.0000   136.0000 </r>
       <r>    -3.0139     0.0000   136.0000 </r>
       <r>    -2.8083     0.0000   136.0000 </r>
       <r>    -2.6027     0.0000   136.0000 </r>
       <r>    -2.3972     0.0000   136.0000 </r>
       <r>    -2.1916     0.0000   136.0000 </r>
       <r>    -1.9860     0.0000   136.0000 </r>
       <r>    -1.7804     0.0000   136.0000 </r>
       <r>    -1.5748     0.0000   136.0000 </r>
       <r>    -1.3692     0.0000   136.0000 </r>
       <r>    -1.1636     0.0000   136.0000 </r>
       <r>    -0.9580     0.0000   136.0000 </r>
       <r>    -0.7524     0.0000   136.0000 </r>
       <r>    -0.5468    -0.0000   136.0000 </r>
       <r>    -0.3412    -0.0000   136.0000 </r>
       <r>    -0.1356    -0.0000   136.0000 </r>
       <r>     0.0700    -0.0000   136.0000 </r>
       <r>     0.2756    -0.0001   136.0000 </r>
       <r>     0.4812    -0.0121   135.9975 </r>
       <r>     0.6868     0.1519   136.0287 </r>
       <r>     0.8924     0.7848   136.1901 </r>
       <r>     1.0980     1.5760   136.5141 </r>
       <r>     1.3035     1.9974   136.9247 </r>
       <r>     1.5091     3.2559   137.5941 </r>
       <r>     1.7147     4.5202   138.5234 </r>
       <r>     1.9203     1.5503   138.8422 </r>
       <r>     2.1259     5.6972   140.0135 </r>
       <r>     2.3315     2.2498   140.4760 </r>
       <r>     2.5371     4.2768   141.3553 </r>
       <r>     2.7427     7.0066   142.7958 </r>
       <r>     2.9483     7.6284   144.3642 </r>
       <r>     3.1539     8.7756   146.1684 </r>
       <r>     3.3595     7.8448   147.7813 </r>
       <r>     3.5651     8.4254   149.5135 </r>
       <r>     3.7707    13.2328   152.2341 </r>
       <r>     3.9763    19.8341   156.3118 </r>
       <r>     4.1819    23.0163   161.0438 </r>
       <r>     4.3875    25.9410   166.3772 </r>
       <r>     4.5931    32.5144   173.0620 </r>
       <r>     4.7987    33.8631   180.0240 </r>
       <r>     5.0042    40.9605   188.4453 </r>
       <r>     5.2098    38.9861   196.4606 </r>
       <r>     5.4154    34.1746   203.4867 </r>
       <r>     5.6210    34.1946   210.5169 </r>
       <r>     5.8266    26.0752   215.8778 </r>
       <r>     6.0322    24.1273   220.8383 </r>
       <r>     6.2378    53.6040   231.8590 </r>
       <r>     6.4434    58.1843   243.8213 </r>
       <r>     6.6490    57.7018   255.6845 </r>
       <r>     6.8546    55.4847   267.0919 </r>
       <r>     7.0602    57.4831   278.9101 </r>
       <r>     7.2658    51.7247   289.5444 </r>
       <r>     7.4714    44.2758   298.6472 </r>
       <r>     7.6770    49.3133   308.7858 </r>
       <r>     7.8826    51.7751   319.4304 </r>
       <r>     8.0882    41.0889   327.8781 </r>
       <r>     8.2938    34.4325   334.9572 </r>
       <r>     8.4994    28.2298   340.7611 </r>
       <r>     8.7049    23.6376   345.6209 </r>
       <r>     8.9105    16.1567   348.9426 </r>
       <r>     9.1161    11.8480   351.3785 </r>
       <r>     9.3217     3.2113   352.0387 </r>
       <r>     9.5273    -0.1829   352.0011 </r>
       <r>     9.7329    -0.0054   352.0000 </r>
       <r>     9.9385    -0.0000   352.0000 </r>
       <r>    10.1441    -0.0000   352.0000 </r>
       <r>    10.3497     0.0000   352.0000 </r>
       <r>    10.5553     0.0000   352.0000 </r>
       <r>    10.7609     0.0000   352.0000 </r>
       <r>    10.9665     0.0000   352.0000 </r>
       <r>    11.1721     0.0000   352.0000 </r>
       <r>    11.3777     0.0000   352.0000 </r>
       <r>    11.5833     0.0000   352.0000 </r>
       <r>    11.7889     0.0000   352.0000 </r>
       <r>    11.9945     0.0000   352.0000 </r>
      </set>
     </set>
    </array>
   </total>
  </dos>
 </calculation>
 <structure name="finalpos" >
  <crystal>
   <varray name="basis" >
    <v>       7.05612090       0.01154772      -0.03468030 </v>
    <v>       0.01696385      10.30190016      -0.00779073 </v>
    <v>      -0.05186769      -0.00793246      10.33916688 </v>
   </varray>
   <i name="volume">    751.54808098 </i>
   <varray name="rec_basis" >
    <v>       0.14172480      -0.00023284       0.00071080 </v>
    <v>      -0.00015850       0.09706979       0.00007368 </v>
    <v>       0.00047526       0.00007236       0.09672203 </v>
   </varray>
  </crystal>
  <varray name="positions" >
   <v>       0.74127702       0.83521469       0.82867039 </v>
   <v>       0.75733810       0.83958801       0.16891071 </v>
   <v>       0.98882985       0.99377176       0.32560676 </v>
   <v>       0.28251161       0.49628649       0.14565486 </v>
   <v>       0.23499269       0.84352535       0.18193410 </v>
   <v>       0.50336699       0.99147715       0.66364871 </v>
   <v>       0.72619342       0.50793218       0.15456613 </v>
   <v>       0.77779725       0.15391409       0.48925368 </v>
   <v>       0.50538640       0.67298861       0.99772184 </v>
   <v>       0.99504837       0.67424279       0.69319824 </v>
   <v>       0.24950852       0.82801919       0.81856809 </v>
   <v>       0.51893070       0.35184713       0.00266590 </v>
   <v>       0.73921768       0.50606590       0.84147875 </v>
   <v>      -0.00035122       0.34541215       0.31803373 </v>
   <v>       0.49468602       0.66889913       0.32480509 </v>
   <v>       0.00424475       0.99553085       0.99583618 </v>
   <v>       0.22757548       0.16718626       0.50164278 </v>
   <v>       0.27484831       0.17199062       0.83346059 </v>
   <v>      -0.00010779       0.66906813       0.00012983 </v>
   <v>       0.51021807       0.33663044       0.34137550 </v>
   <v>       0.78875885       0.51916129       0.50397814 </v>
   <v>       0.50668833       0.66996035       0.67195100 </v>
   <v>       0.76722165       0.83047933       0.50353746 </v>
   <v>       0.25818341       0.49443696       0.83469282 </v>
   <v>       0.26137347       0.16853705       0.16097811 </v>
   <v>       0.23374918       0.83133127       0.50249146 </v>
   <v>       0.96917809       0.32084672       0.68126544 </v>
   <v>       0.73973629       0.15826289       0.16537048 </v>
   <v>       0.98933389       0.00534767       0.68200187 </v>
   <v>       0.22878225       0.50133904       0.51516422 </v>
   <v>       0.01286990       0.65988765       0.30563544 </v>
   <v>       0.48066860       0.96588077       0.00318021 </v>
   <v>       0.50790488       0.99656448       0.34141512 </v>
   <v>       0.53119060       0.33223671       0.64923704 </v>
   <v>       0.98287990       0.33957187       0.00300699 </v>
   <v>       0.70996947       0.15657103       0.84894632 </v>
  </varray>
 </structure>
</modeling>
