 vasp.5.4.1 05Feb16 (build Jan 29 2020 16:04:39) complex                        
  
 executed on           IFC91_ompi date 2020.06.15  13:00:31
 running on  160 total cores
 distrk:  each k-point on   20 cores,    8 groups
 distr:  one band on NCORES_PER_BAND=   5 cores,    4 groups


--------------------------------------------------------------------------------------------------------


 INCAR:
 POTCAR:    PAW_PBE Zr_sv 04Jan2005               
 POTCAR:    PAW_PBE Nb_sv 25May2007               
 POTCAR:    PAW_PBE Ta 17Jan2003                  
 POTCAR:    PAW_PBE Hf 20Jan2003                  

 ----------------------------------------------------------------------------- 
|                                                                             |
|           W    W    AA    RRRRR   N    N  II  N    N   GGGG   !!!           |
|           W    W   A  A   R    R  NN   N  II  NN   N  G    G  !!!           |
|           W    W  A    A  R    R  N N  N  II  N N  N  G       !!!           |
|           W WW W  AAAAAA  RRRRR   N  N N  II  N  N N  G  GGG   !            |
|           WW  WW  A    A  R   R   N   NN  II  N   NN  G    G                |
|           W    W  A    A  R    R  N    N  II  N    N   GGGG   !!!           |
|                                                                             |
|      For optimal performance we recommend to set                            |
|        NCORE= 4 - approx SQRT( number of cores)                             |
|      NCORE specifies how many cores store one orbital (NPAR=cpu/NCORE).     |
|      This setting can  greatly improve the performance of VASP for DFT.     |
|      The default, NPAR=number of cores might be grossly inefficient         |
|      on modern multi-core architectures or massively parallel machines.     |
|      Do your own testing !!!!                                               |
|      Unfortunately you need to use the default for GW and RPA calculations. |
|      (for HF NCORE is supported but not extensively tested yet)             |
|                                                                             |
 ----------------------------------------------------------------------------- 


 ----------------------------------------------------------------------------- 
|                                                                             |
|           W    W    AA    RRRRR   N    N  II  N    N   GGGG   !!!           |
|           W    W   A  A   R    R  NN   N  II  NN   N  G    G  !!!           |
|           W    W  A    A  R    R  N N  N  II  N N  N  G       !!!           |
|           W WW W  AAAAAA  RRRRR   N  N N  II  N  N N  G  GGG   !            |
|           WW  WW  A    A  R   R   N   NN  II  N   NN  G    G                |
|           W    W  A    A  R    R  N    N  II  N    N   GGGG   !!!           |
|                                                                             |
|      You have enabled k-point parallelism (KPAR>1).                         |
|      This developmental code was originally  written by Paul Kent at ORNL,  |
|      and carefully double checked in Vienna.                                |
|      GW as well as linear response parallelism added by Martijn Marsman     |
|      and Georg Kresse.                                                      |
|      Carefully verify results versus KPAR=1.                                |
|      Report problems to Paul Kent and Vienna.                               |
|                                                                             |
 ----------------------------------------------------------------------------- 

 POTCAR:    PAW_PBE Zr_sv 04Jan2005               
   VRHFIN =Zr: 4s4p5s4d                                                         
   LEXCH  = PE                                                                  
   EATOM  =  1284.2219 eV,   94.3876 Ry                                         
                                                                                
   TITEL  = PAW_PBE Zr_sv 04Jan2005                                             
   LULTRA =        F    use ultrasoft PP ?                                      
   IUNSCR =        1    unscreen: 0-lin 1-nonlin 2-no                           
   RPACOR =    2.200    partial core radius                                     
   POMASS =   91.224; ZVAL   =   12.000    mass and valenz                      
   RCORE  =    2.500    outmost cutoff radius                                   
   RWIGS  =    3.070; RWIGS  =    1.625    wigner-seitz radius (au A)           
   ENMAX  =  229.898; ENMIN  =  172.424 eV                                      
   ICORE  =        3    local potential                                         
   LCOR   =        T    correct aug charges                                     
   LPAW   =        T    paw PP                                                  
   EAUG   =  461.257                                                            
   DEXC   =    0.000                                                            
   RMAX   =    2.561    core radius for proj-oper                               
   RAUG   =    1.300    factor for augmentation sphere                          
   RDEP   =    2.597    radius for radial grids                                 
   RDEPT  =    2.007    core radius for aug-charge                              
                                                                                
   Atomic configuration                                                         
   11 entries                                                                   
     n  l   j            E        occ.                                          
     1  0  0.50    -17820.0161   2.0000                                         
     2  0  0.50     -2467.0882   2.0000                                         
     2  1  1.50     -2199.6095   6.0000                                         
     3  0  0.50      -402.4863   2.0000                                         
     3  1  1.50      -315.3675   6.0000                                         
     3  2  2.50      -172.4472  10.0000                                         
     4  0  0.50       -52.4146   2.0000                                         
     5  0  0.50        -3.8421   1.0000                                         
     4  1  1.50       -30.5054   6.0000                                         
     4  2  2.50        -2.3341   3.0000                                         
     4  3  2.50        -1.3606   0.0000                                         
   Description                                                                  
     l       E           TYP  RCUT    TYP  RCUT                                 
     0    -52.4145962     23  2.200                                             
     0     -3.8421270     23  2.500                                             
     1    -30.5053914     23  2.200                                             
     1     20.4087390     23  2.200                                             
     2     -2.3340816     23  2.500                                             
     2     -0.6120942     23  2.500                                             
     3     -4.0817478     23  2.500                                             
  local pseudopotential read in
  partial core-charges read in
  partial kinetic energy density read in
  atomic valenz-charges read in
  non local Contribution for L=           0  read in
    real space projection operators read in
  non local Contribution for L=           0  read in
    real space projection operators read in
  non local Contribution for L=           1  read in
    real space projection operators read in
  non local Contribution for L=           1  read in
    real space projection operators read in
  non local Contribution for L=           2  read in
    real space projection operators read in
  non local Contribution for L=           2  read in
    real space projection operators read in
    PAW grid and wavefunctions read in
 
   number of l-projection  operators is LMAX  =           6
   number of lm-projection operators is LMMAX =          18
 
 POTCAR:    PAW_PBE Nb_sv 25May2007               
   VRHFIN =Nb: 4p5s4d                                                           
   LEXCH  = PE                                                                  
   EATOM  =  1555.1913 eV,  114.3033 Ry                                         
                                                                                
   TITEL  = PAW_PBE Nb_sv 25May2007                                             
   LULTRA =        F    use ultrasoft PP ?                                      
   IUNSCR =        1    unscreen: 0-lin 1-nonlin 2-no                           
   RPACOR =    1.800    partial core radius                                     
   POMASS =   92.910; ZVAL   =   13.000    mass and valenz                      
   RCORE  =    2.400    outmost cutoff radius                                   
   RWIGS  =    2.400; RWIGS  =    1.270    wigner-seitz radius (au A)           
   ENMAX  =  293.235; ENMIN  =  219.927 eV                                      
   ICORE  =        3    local potential                                         
   LCOR   =        T    correct aug charges                                     
   LPAW   =        T    paw PP                                                  
   EAUG   =  455.659                                                            
   DEXC   =    0.000                                                            
   RMAX   =    2.456    core radius for proj-oper                               
   RAUG   =    1.300    factor for augmentation sphere                          
   RDEP   =    2.451    radius for radial grids                                 
   RDEPT  =    1.956    core radius for aug-charge                              
                                                                                
   Atomic configuration                                                         
   11 entries                                                                   
     n  l   j            E        occ.                                          
     1  0  0.50    -18805.2457   2.0000                                         
     2  0  0.50     -2630.2869   2.0000                                         
     2  1  1.50     -2348.4046   6.0000                                         
     3  0  0.50      -438.8757   2.0000                                         
     3  1  1.50      -346.7588   6.0000                                         
     3  2  2.50      -196.2560  10.0000                                         
     4  0  0.50       -58.3859   2.0000                                         
     5  0  0.50        -3.9816   1.0000                                         
     4  1  1.50       -34.5141   6.0000                                         
     4  2  2.50        -3.0408   4.0000                                         
     4  3  2.50        -1.3606   0.0000                                         
   Description                                                                  
     l       E           TYP  RCUT    TYP  RCUT                                 
     0    -58.3859094     23  2.200                                             
     0     -3.9816262     23  2.200                                             
     1    -34.5140738     23  2.200                                             
     1     13.6058260     23  2.200                                             
     2     -3.0408010     23  2.200                                             
     2     -0.1283038     23  2.200                                             
     3     -1.3605826     23  2.400                                             
  local pseudopotential read in
  partial core-charges read in
  partial kinetic energy density read in
  atomic valenz-charges read in
  non local Contribution for L=           0  read in
    real space projection operators read in
  non local Contribution for L=           0  read in
    real space projection operators read in
  non local Contribution for L=           1  read in
    real space projection operators read in
  non local Contribution for L=           1  read in
    real space projection operators read in
  non local Contribution for L=           2  read in
    real space projection operators read in
  non local Contribution for L=           2  read in
    real space projection operators read in
    PAW grid and wavefunctions read in
 
   number of l-projection  operators is LMAX  =           6
   number of lm-projection operators is LMMAX =          18
 
 POTCAR:    PAW_PBE Ta 17Jan2003                  
   VRHFIN =Ta:  6s5d                                                            
   LEXCH  = PE                                                                  
   EATOM  =   130.6506 eV,    9.6025 Ry                                         
                                                                                
   TITEL  = PAW_PBE Ta 17Jan2003                                                
   LULTRA =        F    use ultrasoft PP ?                                      
   IUNSCR =        1    unscreen: 0-lin 1-nonlin 2-no                           
   RPACOR =    2.330    partial core radius                                     
   POMASS =  180.948; ZVAL   =    5.000    mass and valenz                      
   RCORE  =    2.900    outmost cutoff radius                                   
   RWIGS  =    2.840; RWIGS  =    1.503    wigner-seitz radius (au A)           
   ENMAX  =  223.667; ENMIN  =  167.750 eV                                      
   RCLOC  =    2.205    cutoff for local pot                                    
   LCOR   =        T    correct aug charges                                     
   LPAW   =        T    paw PP                                                  
   EAUG   =  332.075                                                            
   DEXC   =    0.000                                                            
   RMAX   =    2.970    core radius for proj-oper                               
   RAUG   =    1.300    factor for augmentation sphere                          
   RDEP   =    3.060    radius for radial grids                                 
   RDEPT  =    2.354    core radius for aug-charge                              
                                                                                
   Atomic configuration                                                         
   16 entries                                                                   
     n  l   j            E        occ.                                          
     1  0  0.50    -67341.2807   2.0000                                         
     2  0  0.50    -11566.9376   2.0000                                         
     2  1  1.50    -10134.1182   6.0000                                         
     3  0  0.50     -2648.5620   2.0000                                         
     3  1  1.50     -2222.6012   6.0000                                         
     3  2  2.50     -1726.3120  10.0000                                         
     4  0  0.50      -538.6961   2.0000                                         
     4  1  1.50      -399.0129   6.0000                                         
     4  2  2.50      -220.3959  10.0000                                         
     4  3  3.50       -23.0374  14.0000                                         
     5  0  0.50       -71.2901   2.0000                                         
     5  1  1.50       -37.8225   6.0000                                         
     5  2  2.50        -2.6455   4.0000                                         
     6  0  0.50        -4.9623   1.0000                                         
     6  1  1.50        -1.3606   0.0000                                         
     5  3  2.50        -1.3606   0.0000                                         
   Description                                                                  
     l       E           TYP  RCUT    TYP  RCUT                                 
     2     -2.6455043     23  2.500                                             
     2     -0.6258895     23  2.500                                             
     0     -4.9622780     23  2.500                                             
     0      4.7531321     23  2.500                                             
     1     -1.3605826     23  2.900                                             
     1     27.2116520     23  2.900                                             
  local pseudopotential read in
  partial core-charges read in
  partial kinetic energy density read in
  atomic valenz-charges read in
  non local Contribution for L=           2  read in
    real space projection operators read in
  non local Contribution for L=           2  read in
    real space projection operators read in
  non local Contribution for L=           0  read in
    real space projection operators read in
  non local Contribution for L=           0  read in
    real space projection operators read in
  non local Contribution for L=           1  read in
    real space projection operators read in
  non local Contribution for L=           1  read in
    real space projection operators read in
    PAW grid and wavefunctions read in
 
   number of l-projection  operators is LMAX  =           6
   number of lm-projection operators is LMMAX =          18
 
 POTCAR:    PAW_PBE Hf 20Jan2003                  
   VRHFIN =Hf: 6s5d                                                             
   LEXCH  = PE                                                                  
   EATOM  =    75.9011 eV,    5.5786 Ry                                         
                                                                                
   TITEL  = PAW_PBE Hf 20Jan2003                                                
   LULTRA =        F    use ultrasoft PP ?                                      
   IUNSCR =        1    unscreen: 0-lin 1-nonlin 2-no                           
   RPACOR =    2.500    partial core radius                                     
   POMASS =  178.490; ZVAL   =    4.000    mass and valenz                      
   RCORE  =    3.000    outmost cutoff radius                                   
   RWIGS  =    3.050; RWIGS  =    1.614    wigner-seitz radius (au A)           
   ENMAX  =  220.334; ENMIN  =  165.250 eV                                      
   RCLOC  =    2.212    cutoff for local pot                                    
   LCOR   =        T    correct aug charges                                     
   LPAW   =        T    paw PP                                                  
   EAUG   =  335.116                                                            
   DEXC   =    0.000                                                            
   RMAX   =    3.077    core radius for proj-oper                               
   RAUG   =    1.300    factor for augmentation sphere                          
   RDEP   =    3.047    radius for radial grids                                 
   RDEPT  =    2.344    core radius for aug-charge                              
                                                                                
   Atomic configuration                                                         
   16 entries                                                                   
     n  l   j            E        occ.                                          
     1  0  0.50    -65259.4397   2.0000                                         
     2  0  0.50    -11157.9882   2.0000                                         
     2  1  1.50     -9795.2113   6.0000                                         
     3  0  0.50     -2541.4058   2.0000                                         
     3  1  1.50     -2134.4770   6.0000                                         
     3  2  2.50     -1653.5418  10.0000                                         
     4  0  0.50      -510.9575   2.0000                                         
     4  1  1.50      -377.5023   6.0000                                         
     4  2  2.50      -205.2085  10.0000                                         
     4  3  3.50       -15.4905  14.0000                                         
     5  0  0.50       -65.6020   2.0000                                         
     5  1  1.50       -34.2798   6.0000                                         
     5  2  2.50        -1.9877   3.0000                                         
     6  0  0.50        -4.7357   1.0000                                         
     6  1  1.50        -1.3606   0.0000                                         
     5  3  2.50        -1.3606   0.0000                                         
   Description                                                                  
     l       E           TYP  RCUT    TYP  RCUT                                 
     2     -1.9876627     23  2.500                                             
     2      0.0744703     23  2.500                                             
     0     -4.7356889     23  2.600                                             
     0      3.2364747     23  2.600                                             
     1     -1.3605826     23  3.000                                             
     1     27.2116520     23  3.000                                             
  local pseudopotential read in
  partial core-charges read in
  partial kinetic energy density read in
  atomic valenz-charges read in
  non local Contribution for L=           2  read in
    real space projection operators read in
  non local Contribution for L=           2  read in
    real space projection operators read in
  non local Contribution for L=           0  read in
    real space projection operators read in
  non local Contribution for L=           0  read in
    real space projection operators read in
  non local Contribution for L=           1  read in
    real space projection operators read in
  non local Contribution for L=           1  read in
    real space projection operators read in
    PAW grid and wavefunctions read in
 
   number of l-projection  operators is LMAX  =           6
   number of lm-projection operators is LMMAX =          18
 
 Optimization of the real space projectors (new method)

 maximal supplied QI-value         = 15.12
 optimisation between [QCUT,QGAM] = [  8.77, 17.69] = [ 21.53, 87.61] Ry 
 Optimized for a Real-space Cutoff    1.74 Angstroem

   l    n(q)    QCUT    max X(q) W(low)/X(q) W(high)/X(q)  e(spline) 
   0      9     8.768    12.107    0.28E-04    0.53E-06    0.29E-07
   0      9     8.768     9.948    0.36E-04    0.50E-05    0.64E-07
   1      9     8.768     3.563    0.14E-04    0.16E-04    0.88E-07
   1      9     8.768     4.524    0.21E-03    0.33E-03    0.19E-06
   2      8     8.768    87.261    0.19E-03    0.25E-03    0.24E-06
   2      8     8.768    70.950    0.19E-03    0.24E-03    0.24E-06
 Optimization of the real space projectors (new method)

 maximal supplied QI-value         = 15.68
 optimisation between [QCUT,QGAM] = [  8.78, 17.72] = [ 21.60, 87.97] Ry 
 Optimized for a Real-space Cutoff    1.96 Angstroem

   l    n(q)    QCUT    max X(q) W(low)/X(q) W(high)/X(q)  e(spline) 
   0     10     8.783    10.201    0.29E-04    0.25E-05    0.69E-07
   0     10     8.783     8.174    0.45E-04    0.57E-05    0.14E-06
   1     10     8.783     3.488    0.76E-05    0.24E-04    0.95E-07
   1     10     8.783     4.917    0.78E-04    0.14E-03    0.46E-06
   2      9     8.783   153.744    0.22E-03    0.34E-04    0.15E-05
   2      9     8.783   126.342    0.22E-03    0.35E-04    0.15E-05
 Optimization of the real space projectors (new method)

 maximal supplied QI-value         = 12.85
 optimisation between [QCUT,QGAM] = [  8.87, 17.73] = [ 22.01, 88.06] Ry 
 Optimized for a Real-space Cutoff    1.90 Angstroem

   l    n(q)    QCUT    max X(q) W(low)/X(q) W(high)/X(q)  e(spline) 
   2      9     8.867    62.315    0.23E-03    0.62E-04    0.11E-05
   2      9     8.867    52.185    0.23E-03    0.62E-04    0.11E-05
   0     10     8.867   103.837    0.15E-04    0.23E-04    0.98E-07
   0     10     8.867    59.728    0.12E-04    0.21E-04    0.89E-07
   1     10     8.867    13.958    0.50E-04    0.22E-04    0.14E-06
   1     10     8.867     8.441    0.36E-04    0.19E-04    0.98E-07
 Optimization of the real space projectors (new method)

 maximal supplied QI-value         = 12.47
 optimisation between [QCUT,QGAM] = [  8.86, 17.71] = [ 21.96, 87.83] Ry 
 Optimized for a Real-space Cutoff    1.90 Angstroem

   l    n(q)    QCUT    max X(q) W(low)/X(q) W(high)/X(q)  e(spline) 
   2      9     8.855    48.111    0.22E-03    0.80E-04    0.10E-05
   2      9     8.855    40.545    0.21E-03    0.76E-04    0.95E-06
   0     10     8.855   121.658    0.27E-04    0.12E-04    0.11E-06
   0     10     8.855    71.177    0.22E-04    0.11E-04    0.99E-07
   1     10     8.855    14.183    0.65E-04    0.10E-03    0.98E-07
   1     10     8.855     8.257    0.43E-04    0.73E-04    0.72E-07
  PAW_PBE Zr_sv 04Jan2005               :
 energy of atom  1       EATOM=-1284.2219
 kinetic energy error for atom=    0.0483 (will be added to EATOM!!)
  PAW_PBE Nb_sv 25May2007               :
 energy of atom  2       EATOM=-1555.1913
 kinetic energy error for atom=    0.0655 (will be added to EATOM!!)
  PAW_PBE Ta 17Jan2003                  :
 energy of atom  3       EATOM= -130.6506
 kinetic energy error for atom=    0.0121 (will be added to EATOM!!)
  PAW_PBE Hf 20Jan2003                  :
 energy of atom  4       EATOM=  -75.9011
 kinetic energy error for atom=    0.0071 (will be added to EATOM!!)
 
 
 POSCAR: generated by pypospack                  
  positions in direct lattice
  No initial velocities read in
 exchange correlation table for  LEXCH =        8
   RHO(1)=    0.500       N(1)  =     2000
   RHO(2)=  100.500       N(2)  =     4000
 


--------------------------------------------------------------------------------------------------------


 ion  position               nearest neighbor table
   1  0.776  0.844  0.498-  11 2.92  25 2.93  20 2.94  28 2.98  19 2.98  23 3.00  34 3.15  22 3.15
                            36 3.22   3 3.26  13 3.29   7 3.32  24 3.56  36 3.80
   2  0.014  0.006  0.008-  10 3.02  18 3.02   4 3.04  33 3.06   7 3.08   5 3.08  35 3.09  20 3.09
                            13 3.15  26 3.31  31 3.35  22 3.40  32 3.55  26 3.71
   3  0.770  0.163  0.496-  20 3.00  14 3.01  15 3.02   6 3.03  16 3.05  22 3.08  19 3.10  34 3.21
                             1 3.26  30 3.27   5 3.34  24 3.40   4 3.43  30 3.75
   4  0.756  0.168  0.831-  16 2.94  22 3.00  17 3.03   2 3.04  26 3.07   6 3.07  31 3.09  34 3.13
                             9 3.30   7 3.34  18 3.41   3 3.43   5 3.50
   5  0.735  0.173  0.172-  17 2.92  20 2.93  14 2.93  19 2.95  15 2.96  31 3.06  26 3.06   2 3.08
                            21 3.29  10 3.34   3 3.34  13 3.45   4 3.50
   6  0.493  0.331  0.654-  18 2.97   8 3.02   3 3.03   9 3.04  30 3.05  24 3.06   4 3.07  29 3.09
                            14 3.16  16 3.40  34 3.41  28 3.46
   7  0.772  0.841  0.822-  11 2.88  22 2.99  28 3.04  32 3.05  34 3.07  12 3.07   2 3.08  26 3.14
                            35 3.29   1 3.32   4 3.34   9 3.60  35 3.75
   8  0.234  0.506  0.495-  11 2.90  14 2.95  15 2.98  25 3.00  16 3.00   6 3.02  23 3.07  28 3.11
                            24 3.28  36 3.32  27 3.35  30 3.49  29 3.52  24 3.74
   9  0.734  0.491  0.840-  12 2.94  11 2.99  16 3.01  28 3.02  32 3.03   6 3.04  17 3.04  31 3.06
                             4 3.30  29 3.37  21 3.43  24 3.58   7 3.60  29 3.65
  10  0.259  0.170  0.183-  17 2.83  20 2.86  19 2.90  15 2.93  31 2.99  26 3.00  14 3.00   2 3.02
                            30 3.08   5 3.34  27 3.46
  11  0.973  0.652  0.662-  24 2.79   7 2.88   8 2.90   1 2.92   9 2.99  29 3.04  35 3.06  28 3.14
                            36 3.15
  12  0.528  0.678  0.009-  13 2.80  21 2.87  33 2.91   9 2.94  27 3.01  35 3.01   7 3.07  32 3.07
                            29 3.15  26 3.33
  13  0.737  0.835  0.179-  19 2.74  12 2.80  20 2.83  23 2.83  25 2.83  32 2.89  26 3.07   2 3.15
                             1 3.29  33 3.36   5 3.45
  14  0.507  0.342  0.346-  21 2.81  24 2.85   5 2.93   8 2.95  27 2.98  30 2.99  10 3.00   3 3.01
                             6 3.16
  15  0.992  0.344  0.322-  24 2.80  21 2.85  10 2.93   5 2.96   8 2.98  30 2.99   3 3.02  27 3.02
                            31 3.21  25 3.23
  16  0.009  0.334  0.674-  18 2.77   4 2.94   8 3.00  29 3.01   9 3.01  24 3.01  30 3.04   3 3.05
                            22 3.31   6 3.40  31 3.43
  17  0.474  0.317  0.002-  18 2.80  10 2.83   5 2.92  27 2.95  29 2.99   4 3.03   9 3.04  21 3.10
                            26 3.22  31 3.24
  18  0.243  0.179  0.829-  22 2.72  16 2.77  17 2.80  31 2.90  34 2.94   6 2.97  26 3.02   2 3.02
                            29 3.37   4 3.41
  19  0.504  0.992  0.329-  13 2.74  10 2.90  33 2.95   5 2.95   1 2.98  30 3.00  36 3.01   3 3.10
                            26 3.40
  20  0.999  0.997  0.309-  13 2.83  10 2.86  33 2.90   5 2.93   1 2.94  30 3.00   3 3.00  36 3.01
                             2 3.09
  21  0.724  0.494  0.174-  14 2.81  23 2.82  15 2.85  25 2.87  12 2.87  32 2.89  31 3.09  17 3.10
                            27 3.18  24 3.27   5 3.29   9 3.43
  22  0.044  0.011  0.677-  18 2.72  30 2.88  35 2.94  36 2.97   7 2.99   4 3.00  34 3.02   3 3.08
                             1 3.15  16 3.31   2 3.40
  23  0.526  0.667  0.342-  21 2.82  13 2.83  24 2.87  33 2.98   1 3.00  36 3.02  27 3.02   8 3.07
                            25 3.13  28 3.17
  24  0.768  0.496  0.491-  11 2.79  15 2.80  25 2.81  14 2.85  23 2.87  28 2.93  16 3.01   6 3.06
                            21 3.27   8 3.28   3 3.40   1 3.56   9 3.58   8 3.74
  25  0.971  0.659  0.322-  24 2.81  13 2.83  21 2.87   1 2.93   8 3.00  27 3.02  33 3.02  36 3.10
                            32 3.10  23 3.13  15 3.23
  26  0.486  0.002  0.998-  10 3.00  18 3.02  33 3.06   5 3.06  13 3.07   4 3.07  35 3.12   7 3.14
                            17 3.22   2 3.31  12 3.33  34 3.38  19 3.40   2 3.71
  27  0.270  0.508  0.169-  17 2.95  14 2.98  12 3.01  15 3.02  25 3.02  23 3.02  31 3.04  32 3.05
                            21 3.18  33 3.19   8 3.35  29 3.40  10 3.46
  28  0.526  0.668  0.652-  24 2.93   1 2.98   9 3.02   7 3.04  35 3.09  36 3.10   8 3.11  11 3.14
                            29 3.17  23 3.17  34 3.40   6 3.46
  29  0.254  0.508  0.838-  17 2.99  16 3.01  31 3.03  11 3.04   6 3.09  35 3.10  32 3.14  12 3.15
                            28 3.17   9 3.37  18 3.37  27 3.40   8 3.52   9 3.65
  30  0.236  0.165  0.483-  22 2.88  14 2.99  15 2.99  20 3.00  19 3.00  16 3.04  34 3.04   6 3.05
                            10 3.08   3 3.27  36 3.42   8 3.49   3 3.75
  31  0.013  0.333  0.009-  18 2.90  10 2.99  29 3.03  27 3.04   9 3.06   5 3.06   4 3.09  21 3.09
                            15 3.21  17 3.24   2 3.35  32 3.37  16 3.43
  32  0.966  0.661  0.019-  13 2.89  21 2.89   9 3.03   7 3.05  27 3.05  12 3.07  33 3.08  25 3.10
                            35 3.11  29 3.14  31 3.37   2 3.55
  33  0.259  0.820  0.174-  20 2.90  12 2.91  19 2.95  23 2.98  25 3.02  26 3.06   2 3.06  32 3.08
                            27 3.19  36 3.24  13 3.36  35 3.49
  34  0.474  0.999  0.668-  18 2.94  22 3.02  36 3.03  30 3.04  35 3.06   7 3.07   4 3.13   1 3.15
                             3 3.21  26 3.38  28 3.40   6 3.41
  35  0.240  0.811  0.834-  22 2.94  12 3.01  34 3.06  11 3.06  28 3.09   2 3.09  29 3.10  32 3.11
                            26 3.12   7 3.29  33 3.49  36 3.54   7 3.75
  36  0.235  0.831  0.490-  22 2.97  19 3.01  20 3.01  23 3.02  34 3.03  28 3.10  25 3.10  11 3.15
                             1 3.22  33 3.24   8 3.32  30 3.42  35 3.54   1 3.80
 
  LATTYP: Found a triclinic cell.
 ALAT       =    12.3947211179
 B/A-ratio  =     1.8493759636
 C/A-ratio  =     0.5656538591
 COS(alpha) =     0.0017846111
 COS(beta)  =     0.5616828373
 COS(gamma) =     0.7414413435
  
  Lattice vectors:
  
 A1 = (   6.9860782719,   0.0503120947, -10.2382269296)
 A2 = (   0.0200979010,  10.2331937249, -20.5115166903)
 A3 = (   7.0109400089,   0.0476633020,   0.0166659437)


Analysis of symmetry for initial positions (statically):
=====================================================================
 Subroutine PRICEL returns:
 Original cell was already a primitive cell.
 

 Routine SETGRP: Setting up the symmetry group for a 
 triclinic supercell.


 Subroutine GETGRP returns: Found  1 space group operations
 (whereof  1 operations were pure point group operations)
 out of a pool of  2 trial point group operations.


The static configuration has the point symmetry C_1 .


Analysis of symmetry for dynamics (positions and initial velocities):
=====================================================================
 Subroutine PRICEL returns:
 Original cell was already a primitive cell.
 

 Routine SETGRP: Setting up the symmetry group for a 
 triclinic supercell.


 Subroutine GETGRP returns: Found  1 space group operations
 (whereof  1 operations were pure point group operations)
 out of a pool of  2 trial point group operations.


The dynamic configuration has the point symmetry C_1 .


 Subroutine INISYM returns: Found  1 space group operations
 (whereof  1 operations are pure point group operations),
 and found     1 'primitive' translations

 
 
 KPOINTS: k-points                                

Automatic generation of k-mesh.
Space group operators:
 irot       det(A)        alpha          n_x          n_y          n_z        tau_x        tau_y        tau_z
    1     1.000000     0.000001     1.000000     0.000000     0.000000     0.000000     0.000000     0.000000
 
 Subroutine IBZKPT returns following result:
 ===========================================
 
 Found     14 irreducible k-points:
 
 Following reciprocal coordinates:
            Coordinates               Weight
  0.000000  0.000000  0.000000      1.000000
  0.333333  0.000000  0.000000      2.000000
  0.000000  0.333333  0.000000      2.000000
  0.333333  0.333333  0.000000      2.000000
 -0.333333  0.333333 -0.000000      2.000000
  0.000000  0.000000  0.333333      2.000000
  0.333333 -0.000000  0.333333      2.000000
 -0.333333 -0.000000  0.333333      2.000000
 -0.000000  0.333333  0.333333      2.000000
  0.333333  0.333333  0.333333      2.000000
 -0.333333  0.333333  0.333333      2.000000
 -0.000000 -0.333333  0.333333      2.000000
  0.333333 -0.333333  0.333333      2.000000
 -0.333333 -0.333333  0.333333      2.000000
 
 Following cartesian coordinates:
            Coordinates               Weight
  0.000000  0.000000  0.000000      1.000000
  0.237180 -0.001619 -0.000575      2.000000
 -0.001105  0.162580  0.000045      2.000000
  0.236075  0.160960 -0.000531      2.000000
 -0.238286  0.164199  0.000620      2.000000
 -0.000386  0.000030  0.162145      2.000000
  0.236795 -0.001589  0.161570      2.000000
 -0.237566  0.001649  0.162720      2.000000
 -0.001491  0.162610  0.162190      2.000000
  0.235689  0.160990  0.161614      2.000000
 -0.238671  0.164229  0.162765      2.000000
  0.000720 -0.162550  0.162100      2.000000
  0.237900 -0.164169  0.161525      2.000000
 -0.236461 -0.160930  0.162676      2.000000
 


--------------------------------------------------------------------------------------------------------




 Dimension of arrays:
   k-points           NKPTS =     14   k-points in BZ     NKDIM =     14   number of bands    NBANDS=    192
   number of dos      NEDOS =    301   number of ions     NIONS =     36
   non local maximal  LDIM  =      6   non local SUM 2l+1 LMDIM =     18
   total plane-waves  NPLWV = 144000
   max r-space proj   IRMAX =   6231   max aug-charges    IRDMAX=  13529
   dimension x,y,z NGX =    40 NGY =   60 NGZ =   60
   dimension x,y,z NGXF=    80 NGYF=  120 NGZF=  120
   support grid    NGXF=    80 NGYF=  120 NGZF=  120
   ions per type =               9  11   5  11
 NGX,Y,Z   is equivalent  to a cutoff of   9.48,  9.75,  9.73 a.u.
 NGXF,Y,Z  is equivalent  to a cutoff of  18.97, 19.50, 19.45 a.u.


 I would recommend the setting:
   dimension x,y,z NGX =    40 NGY =   58 NGZ =   58
 SYSTEM =  automatically generated by mexm         
 POSCAR =  generated by pypospack                  

 Startparameter for this run:
   NWRITE =      2    write-flag & timer
   PREC   = accura    normal or accurate (medium, high low for compatibility)
   ISTART =      0    job   : 0-new  1-cont  2-samecut
   ICHARG =      2    charge: 1-file 2-atom 10-const
   ISPIN  =      1    spin polarized calculation?
   LNONCOLLINEAR =      F non collinear calculations
   LSORBIT =      F    spin-orbit coupling
   INIWAV =      1    electr: 0-lowe 1-rand  2-diag
   LASPH  =      F    aspherical Exc in radial PAW
   METAGGA=      F    non-selfconsistent MetaGGA calc.

 Electronic Relaxation 1
   ENCUT  =  300.0 eV  22.05 Ry    4.70 a.u.   9.90 14.44 14.48*2*pi/ulx,y,z
   ENINI  =  300.0     initial cutoff
   ENAUG  =  461.3 eV  augmentation charge cutoff
   NELM   =     70;   NELMIN=  2; NELMDL= -5     # of ELM steps 
   EDIFF  = 0.1E-04   stopping-criterion for ELM
   LREAL  =      T    real-space projection
   NLSPLINE    = F    spline interpolate recip. space projectors
   LCOMPAT=      F    compatible to vasp.4.4
   GGA_COMPAT  = T    GGA compatible to vasp.4.4-vasp.4.6
   LMAXPAW     = -100 max onsite density
   LMAXMIX     =    2 max onsite mixed and CHGCAR
   VOSKOWN=      0    Vosko Wilk Nusair interpolation
   ROPT   =   -0.00025  -0.00025  -0.00025  -0.00025
 Ionic relaxation
   EDIFFG = -.1E-01   stopping-criterion for IOM
   NSW    =    300    number of steps for IOM
   NBLOCK =      1;   KBLOCK =    300    inner block; outer block 
   IBRION =      2    ionic relax: 0-MD 1-quasi-New 2-CG
   NFREE  =      1    steps in history (QN), initial steepest desc. (CG)
   ISIF   =      3    stress and relaxation
   IWAVPR =     11    prediction:  0-non 1-charg 2-wave 3-comb
   ISYM   =      1    0-nonsym 1-usesym 2-fastsym
   LCORR  =      T    Harris-Foulkes like correction to forces

   POTIM  = 0.1500    time-step for ionic-motion
   TEIN   =    0.0    initial temperature
   TEBEG  =    0.0;   TEEND  =   0.0 temperature during run
   SMASS  =  -3.00    Nose mass-parameter (am)
   estimated Nose-frequenzy (Omega)   =  0.10E-29 period in steps =****** mass=  -0.112E-26a.u.
   SCALEE = 1.0000    scale energy and forces
   NPACO  =    256;   APACO  = 16.0  distance and # of slots for P.C.
   PSTRESS=    0.0 pullay stress

  Mass of Ions in am
   POMASS =  91.22 92.91180.95178.49
  Ionic Valenz
   ZVAL   =  12.00 13.00  5.00  4.00
  Atomic Wigner-Seitz radii
   RWIGS  =  -1.00 -1.00 -1.00 -1.00
  virtual crystal weights 
   VCA    =   1.00  1.00  1.00  1.00
   NELECT =     320.0000    total number of electrons
   NUPDOWN=      -1.0000    fix difference up-down

 DOS related values:
   EMIN   =  10.00;   EMAX   =-10.00  energy-range for DOS
   EFERMI =   0.00
   ISMEAR =     1;   SIGMA  =   0.15  broadening in eV -4-tet -1-fermi 0-gaus

 Electronic relaxation 2 (details)
   IALGO  =     68    algorithm
   LDIAG  =      T    sub-space diagonalisation (order eigenvalues)
   LSUBROT=      F    optimize rotation matrix (better conditioning)
   TURBO    =      0    0=normal 1=particle mesh
   IRESTART =      0    0=no restart 2=restart with 2 vectors
   NREBOOT  =      0    no. of reboots
   NMIN     =      0    reboot dimension
   EREF     =   0.00    reference energy to select bands
   IMIX   =      4    mixing-type and parameters
     AMIX     =   0.40;   BMIX     =  1.00
     AMIX_MAG =   1.60;   BMIX_MAG =  1.00
     AMIN     =   0.10
     WC   =   100.;   INIMIX=   1;  MIXPRE=   1;  MAXMIX= -45

 Intra band minimization:
   WEIMIN = 0.0010     energy-eigenvalue tresh-hold
   EBREAK =  0.13E-07  absolut break condition
   DEPER  =   0.30     relativ break condition  

   TIME   =   0.40     timestep for ELM

  volume/ion in A,a.u.               =      20.43       137.84
  Fermi-wavevector in a.u.,A,eV,Ry     =   1.240608  2.344409 20.940830  1.539108
  Thomas-Fermi vector in A             =   2.375041
 
 Write flags
   LWAVE  =      F    write WAVECAR
   LCHARG =      F    write CHGCAR
   LVTOT  =      F    write LOCPOT, total local potential
   LVHAR  =      F    write LOCPOT, Hartree potential only
   LELF   =      F    write electronic localiz. function (ELF)
   LORBIT =      0    0 simple, 1 ext, 2 COOP (PROOUT)


 Dipole corrections
   LMONO  =      F    monopole corrections only (constant potential shift)
   LDIPOL =      F    correct potential (dipole corrections)
   IDIPOL =      0    1-x, 2-y, 3-z, 4-all directions 
   EPSILON=  1.0000000 bulk dielectric constant

 Exchange correlation treatment:
   GGA     =    --    GGA type
   LEXCH   =     8    internal setting for exchange type
   VOSKOWN=      0    Vosko Wilk Nusair interpolation
   LHFCALC =     F    Hartree Fock is set to
   LHFONE  =     F    Hartree Fock one center treatment
   AEXX    =    0.0000 exact exchange contribution

 Linear response parameters
   LEPSILON=     F    determine dielectric tensor
   LRPA    =     F    only Hartree local field effects (RPA)
   LNABLA  =     F    use nabla operator in PAW spheres
   LVEL    =     F    velocity operator in full k-point grid
   LINTERFAST=   F  fast interpolation
   KINTER  =     0    interpolate to denser k-point grid
   CSHIFT  =0.1000    complex shift for real part using Kramers Kronig
   OMEGAMAX=  -1.0    maximum frequency
   DEG_THRESHOLD= 0.2000000E-02 threshold for treating states as degnerate
   RTIME   =    0.100 relaxation time in fs

 Orbital magnetization related:
   ORBITALMAG=     F  switch on orbital magnetization
   LCHIMAG   =     F  perturbation theory with respect to B field
   DQ        =  0.001000  dq finite difference perturbation B field



--------------------------------------------------------------------------------------------------------


 conjugate gradient relaxation of ions
 charge density and potential will be updated during run
 non-spin polarized calculation
 RMM-DIIS sequential band-by-band and
  variant of blocked Davidson during initial phase
 perform sub-space diagonalisation
    before iterative eigenvector-optimisation
 modified Broyden-mixing scheme, WC =      100.0
 initial mixing is a Kerker type mixing with AMIX =  0.4000 and BMIX =      1.0000
 Hartree-type preconditioning will be used
 using additional bands           32
 real space projection scheme for non local part
 use partial core corrections
 calculate Harris-corrections to forces 
   (improved forces if not selfconsistent)
 use gradient corrections 
 use of overlap-Matrix (Vanderbilt PP)
 Methfessel and Paxton  Order N= 1 SIGMA  =   0.15


--------------------------------------------------------------------------------------------------------


  energy-cutoff  :      300.00
  volume of cell :      735.31
      direct lattice vectors                 reciprocal lattice vectors
     7.010940009  0.047663302  0.016665944     0.142641669 -0.000973811 -0.000346069
     0.069821375 10.227896140 -0.001730944    -0.000664788  0.097776361  0.000026867
     0.024861737 -0.002648793 10.254892873    -0.000231929  0.000018086  0.097514994

  length of vectors
     7.011121833 10.228134603 10.254923353     0.142645413  0.097778624  0.097515271


 
 k-points in units of 2pi/SCALE and weight: k-points                                
   0.00000000  0.00000000  0.00000000       0.037
   0.23718029 -0.00161922 -0.00057543       0.074
  -0.00110539  0.16257960  0.00004467       0.074
   0.23607490  0.16096038 -0.00053076       0.074
  -0.23828568  0.16419882  0.00062011       0.074
  -0.00038564  0.00003007  0.16214501       0.074
   0.23679464 -0.00158915  0.16156957       0.074
  -0.23756593  0.00164930  0.16272044       0.074
  -0.00149104  0.16260967  0.16218968       0.074
   0.23568925  0.16099045  0.16161425       0.074
  -0.23867132  0.16422890  0.16276511       0.074
   0.00071975 -0.16254953  0.16210033       0.074
   0.23790003 -0.16416875  0.16152490       0.074
  -0.23646054 -0.16093030  0.16267577       0.074
 
 k-points in reciprocal lattice and weights: k-points                                
   0.00000000  0.00000000  0.00000000       0.037
   0.33333333  0.00000000  0.00000000       0.074
   0.00000000  0.33333333  0.00000000       0.074
   0.33333333  0.33333333  0.00000000       0.074
  -0.33333333  0.33333333 -0.00000000       0.074
   0.00000000  0.00000000  0.33333333       0.074
   0.33333333 -0.00000000  0.33333333       0.074
  -0.33333333 -0.00000000  0.33333333       0.074
  -0.00000000  0.33333333  0.33333333       0.074
   0.33333333  0.33333333  0.33333333       0.074
  -0.33333333  0.33333333  0.33333333       0.074
  -0.00000000 -0.33333333  0.33333333       0.074
   0.33333333 -0.33333333  0.33333333       0.074
  -0.33333333 -0.33333333  0.33333333       0.074
 
 position of ions in fractional coordinates (direct lattice) 
   0.77619500  0.84426800  0.49785900
   0.01432900  0.00566100  0.00789600
   0.76981100  0.16322800  0.49639300
   0.75629400  0.16781500  0.83100200
   0.73469200  0.17268900  0.17192400
   0.49339000  0.33148500  0.65389300
   0.77224700  0.84099600  0.82199000
   0.23420500  0.50621700  0.49487600
   0.73403000  0.49051500  0.84013900
   0.25895500  0.17000900  0.18290700
   0.97266300  0.65230400  0.66210800
   0.52833300  0.67816400  0.00860600
   0.73695900  0.83539600  0.17875800
   0.50720900  0.34169100  0.34583600
   0.99230500  0.34374500  0.32162600
   0.00906600  0.33401200  0.67422800
   0.47387900  0.31737100  0.00167000
   0.24271500  0.17898400  0.82907900
   0.50356100  0.99233500  0.32911500
   0.99850500  0.99742900  0.30934900
   0.72401600  0.49426500  0.17418800
   0.04357100  0.01143000  0.67722600
   0.52586900  0.66723300  0.34228400
   0.76751600  0.49600400  0.49129500
   0.97094000  0.65932300  0.32156500
   0.48619700  0.00238400  0.99779800
   0.27031600  0.50784300  0.16910700
   0.52584000  0.66849400  0.65186000
   0.25391700  0.50807400  0.83786300
   0.23578500  0.16544700  0.48303200
   0.01268900  0.33323600  0.00870500
   0.96579700  0.66107600  0.01917300
   0.25878200  0.82013900  0.17403500
   0.47417600  0.99896200  0.66834800
   0.23994900  0.81076500  0.83434800
   0.23529500  0.83101600  0.48991900
 
 position of ions in cartesian coordinates  (Angst):
   5.51318217  8.67076271  5.11696535
   0.10105133  0.05856217  0.08120164
   5.42083673  1.70485592  5.10300413
   5.33470909  1.75024071  8.53415036
   5.16721325  1.80080761  1.77500762
   3.49852935  3.41217872  6.71325169
   5.49333299  8.63625030  8.44083390
   1.68964545  5.18738706  5.07792738
   5.20137604  5.04969741  8.62691969
   1.83193562  1.75069256  1.87971314
   6.88128786  6.71630411  6.80492786
   3.75167527  6.96135026  0.09588491
   5.22954807  8.57899593  1.84398023
   3.58846729  3.51803927  3.55437280
   6.98898776  3.56223277  3.31418287
   0.10364484  3.41488627  6.91370885
   3.34453804  3.26861984  0.02447396
   1.73476956  1.84000230  8.50585159
   3.60790453 10.17262894  3.38171371
   7.07779147 10.24837286  3.18725539
   5.11487362  5.08933869  1.79749014
   0.32310874  0.11718776  6.94558645
   3.74193291  6.84854784  3.51769491
   5.42785476  5.10835841  5.05011042
   6.86123160  6.78891361  3.31265501
   3.43367145  0.04491410 10.24041040
   1.93483185  5.20660168  1.73780019
   3.74951424  6.86062383  6.69236096
   1.83650201  5.20641130  8.59554763
   1.67663524  1.70213357  4.95708461
   0.11244523  3.40888494  0.08890350
   6.81777874  6.80739896  0.21156869
   1.87589512  8.40016993  1.78760351
   3.41078468 10.23811006  6.86001059
   1.75962011  8.30164696  8.55874495
   1.71984205  8.50946258  5.02654983
 


--------------------------------------------------------------------------------------------------------


 k-point  1 :   0.0000 0.0000 0.0000  plane waves:    8695
 k-point  2 :   0.3333 0.0000 0.0000  plane waves:    8696
 k-point  3 :   0.0000 0.3333 0.0000  plane waves:    8666
 k-point  4 :   0.3333 0.3333 0.0000  plane waves:    8679
 k-point  5 :  -0.3333 0.3333-0.0000  plane waves:    8680
 k-point  6 :   0.0000 0.0000 0.3333  plane waves:    8673
 k-point  7 :   0.3333-0.0000 0.3333  plane waves:    8675
 k-point  8 :  -0.3333-0.0000 0.3333  plane waves:    8671
 k-point  9 :  -0.0000 0.3333 0.3333  plane waves:    8670
 k-point 10 :   0.3333 0.3333 0.3333  plane waves:    8682
 k-point 11 :  -0.3333 0.3333 0.3333  plane waves:    8683
 k-point 12 :  -0.0000-0.3333 0.3333  plane waves:    8658
 k-point 13 :   0.3333-0.3333 0.3333  plane waves:    8679
 k-point 14 :  -0.3333-0.3333 0.3333  plane waves:    8689

 maximum and minimum number of plane-waves per node :      1759     1703

 maximum number of plane-waves:      8696
 maximum index in each direction: 
   IXMAX=   10   IYMAX=   14   IZMAX=   14
   IXMIN=  -10   IYMIN=  -14   IZMIN=  -14

 WARNING: aliasing errors must be expected set NGX to  42 to avoid them
 NGY is ok and might be reduce to  58
 NGZ is ok and might be reduce to  58
 aliasing errors are usually negligible using standard VASP settings
 and one can safely disregard these warnings

 real space projection operators:
  total allocation   :      26958.23 KBytes
  max/ min on nodes  :       5436.98       5340.52


 parallel 3D FFT for wavefunctions:
    minimum data exchange during FFTs selected (reduces bandwidth)
 parallel 3D FFT for charge:
    minimum data exchange during FFTs selected (reduces bandwidth)


 total amount of memory used by VASP on root node    69141. kBytes
========================================================================

   base      :      30000. kBytes
   nonlr-proj:      10372. kBytes
   fftplans  :       2814. kBytes
   grid      :       5360. kBytes
   one-center:        124. kBytes
   wavefun   :      20471. kBytes
 
     INWAV:  cpu time    0.0000: real time    0.0000
 Broyden mixing: mesh for mixing (old mesh)
   NGX = 19   NGY = 29   NGZ = 29
  (NGX  = 80   NGY  =120   NGZ  =120)
  gives a total of  15979 points

 initial charge density was supplied:
 charge density of overlapping atoms calculated
 number of electron     320.0000000 magnetization 
 keeping initial charge density in first step


--------------------------------------------------------------------------------------------------------


 Maximum index for non-local projection operator         1205
 Maximum index for augmentation-charges          675 (set IRDMAX)


--------------------------------------------------------------------------------------------------------


 First call to EWALD:  gamma=   0.196
 Maximum number of real-space cells 3x 2x 2
 Maximum number of reciprocal cells 2x 3x 3

 FEWALD executed in parallel
    FEWALD:  cpu time    0.0229: real time    0.0229


----------------------------------------- Iteration    1(   1)  ---------------------------------------


    POTLOK:  cpu time    0.0468: real time    0.0723
    SETDIJ:  cpu time    0.1316: real time    0.1340
     EDDAV:  cpu time    1.2152: real time    1.2320
       DOS:  cpu time    0.0027: real time    0.0027
    --------------------------------------------
      LOOP:  cpu time    1.4032: real time    1.7705

 eigenvalue-minimisations  :  5928
 total energy-change (2. order) : 0.2231691E+04  (-0.1236650E+05)
 number of electron     320.0000000 magnetization 
 augmentation part      320.0000000 magnetization 

 Free energy of the ion-electron system (eV)
  ---------------------------------------------------
  alpha Z        PSCENC =      1618.98729682
  Ewald energy   TEWEN  =    -22490.81093732
  -Hartree energ DENC   =     -8240.08270514
  -exchange      EXHF   =         0.00000000
  -V(xc)+E(xc)   XCENC  =       157.03023685
  PAW double counting   =     24913.81507814   -23519.28478534
  entropy T*S    EENTRO =         0.00688500
  eigenvalues    EBANDS =      -359.94285238
  atomic energy  EATOM  =     30151.97267598
  Solvation  Ediel_sol  =         0.00000000
  ---------------------------------------------------
  free energy    TOTEN  =      2231.69089259 eV

  energy without entropy =     2231.68400759  energy(sigma->0) =     2231.68859759


--------------------------------------------------------------------------------------------------------




----------------------------------------- Iteration    1(   2)  ---------------------------------------


     EDDAV:  cpu time    1.1730: real time    1.1884
       DOS:  cpu time    0.0011: real time    0.0011
    --------------------------------------------
      LOOP:  cpu time    1.1756: real time    1.3454

 eigenvalue-minimisations  :  6144
 total energy-change (2. order) :-0.2281860E+04  (-0.2207715E+04)
 number of electron     320.0000000 magnetization 
 augmentation part      320.0000000 magnetization 

 Free energy of the ion-electron system (eV)
  ---------------------------------------------------
  alpha Z        PSCENC =      1618.98729682
  Ewald energy   TEWEN  =    -22490.81093732
  -Hartree energ DENC   =     -8240.08270514
  -exchange      EXHF   =         0.00000000
  -V(xc)+E(xc)   XCENC  =       157.03023685
  PAW double counting   =     24913.81507814   -23519.28478534
  entropy T*S    EENTRO =         0.00650639
  eigenvalues    EBANDS =     -2641.80293004
  atomic energy  EATOM  =     30151.97267598
  Solvation  Ediel_sol  =         0.00000000
  ---------------------------------------------------
  free energy    TOTEN  =       -50.16956368 eV

  energy without entropy =      -50.17607006  energy(sigma->0) =      -50.17173247


--------------------------------------------------------------------------------------------------------




----------------------------------------- Iteration    1(   3)  ---------------------------------------


     EDDAV:  cpu time    1.5434: real time    1.6264
       DOS:  cpu time    0.0012: real time    0.0012
    --------------------------------------------
      LOOP:  cpu time    1.5451: real time    1.6611

 eigenvalue-minimisations  :  9096
 total energy-change (2. order) :-0.2821460E+03  (-0.2684288E+03)
 number of electron     320.0000000 magnetization 
 augmentation part      320.0000000 magnetization 

 Free energy of the ion-electron system (eV)
  ---------------------------------------------------
  alpha Z        PSCENC =      1618.98729682
  Ewald energy   TEWEN  =    -22490.81093732
  -Hartree energ DENC   =     -8240.08270514
  -exchange      EXHF   =         0.00000000
  -V(xc)+E(xc)   XCENC  =       157.03023685
  PAW double counting   =     24913.81507814   -23519.28478534
  entropy T*S    EENTRO =         0.00755969
  eigenvalues    EBANDS =     -2923.94998623
  atomic energy  EATOM  =     30151.97267598
  Solvation  Ediel_sol  =         0.00000000
  ---------------------------------------------------
  free energy    TOTEN  =      -332.31556656 eV

  energy without entropy =     -332.32312625  energy(sigma->0) =     -332.31808646


--------------------------------------------------------------------------------------------------------




----------------------------------------- Iteration    1(   4)  ---------------------------------------


     EDDAV:  cpu time    1.5276: real time    1.6091
       DOS:  cpu time    0.0011: real time    0.0012
    --------------------------------------------
      LOOP:  cpu time    1.5297: real time    1.6431

 eigenvalue-minimisations  :  9008
 total energy-change (2. order) :-0.3325458E+02  (-0.3180723E+02)
 number of electron     320.0000000 magnetization 
 augmentation part      320.0000000 magnetization 

 Free energy of the ion-electron system (eV)
  ---------------------------------------------------
  alpha Z        PSCENC =      1618.98729682
  Ewald energy   TEWEN  =    -22490.81093732
  -Hartree energ DENC   =     -8240.08270514
  -exchange      EXHF   =         0.00000000
  -V(xc)+E(xc)   XCENC  =       157.03023685
  PAW double counting   =     24913.81507814   -23519.28478534
  entropy T*S    EENTRO =         0.02008591
  eigenvalues    EBANDS =     -2957.21709043
  atomic energy  EATOM  =     30151.97267598
  Solvation  Ediel_sol  =         0.00000000
  ---------------------------------------------------
  free energy    TOTEN  =      -365.57014455 eV

  energy without entropy =     -365.59023046  energy(sigma->0) =     -365.57683985


--------------------------------------------------------------------------------------------------------




----------------------------------------- Iteration    1(   5)  ---------------------------------------


     EDDAV:  cpu time    1.5515: real time    1.6362
       DOS:  cpu time    0.0011: real time    0.0011
    CHARGE:  cpu time    0.0395: real time    0.0400
    MIXING:  cpu time    0.0013: real time    0.0014
    --------------------------------------------
      LOOP:  cpu time    1.5946: real time    1.7129

 eigenvalue-minimisations  :  8792
 total energy-change (2. order) :-0.3496459E+01  (-0.3423722E+01)
 number of electron     320.0000002 magnetization 
 augmentation part       18.5904608 magnetization 

 Broyden mixing:
  rms(total) = 0.60921E+01    rms(broyden)= 0.60916E+01
  rms(prec ) = 0.63582E+01
  weight for this iteration     100.00

 Free energy of the ion-electron system (eV)
  ---------------------------------------------------
  alpha Z        PSCENC =      1618.98729682
  Ewald energy   TEWEN  =    -22490.81093732
  -Hartree energ DENC   =     -8240.08270514
  -exchange      EXHF   =         0.00000000
  -V(xc)+E(xc)   XCENC  =       157.03023685
  PAW double counting   =     24913.81507814   -23519.28478534
  entropy T*S    EENTRO =         0.02257732
  eigenvalues    EBANDS =     -2960.71604113
  atomic energy  EATOM  =     30151.97267598
  Solvation  Ediel_sol  =         0.00000000
  ---------------------------------------------------
  free energy    TOTEN  =      -369.06660383 eV

  energy without entropy =     -369.08918115  energy(sigma->0) =     -369.07412960


--------------------------------------------------------------------------------------------------------




----------------------------------------- Iteration    1(   6)  ---------------------------------------


    POTLOK:  cpu time    0.0361: real time    0.0474
    SETDIJ:  cpu time    0.0042: real time    0.0043
    EDDIAG:  cpu time    0.1337: real time    0.1351
  RMM-DIIS:  cpu time    0.6718: real time    0.8049
    ORTHCH:  cpu time    0.0218: real time    0.0247
       DOS:  cpu time    0.0038: real time    0.0059
    CHARGE:  cpu time    0.0336: real time    0.0337
    MIXING:  cpu time    0.0015: real time    0.0023
    --------------------------------------------
      LOOP:  cpu time    0.9073: real time    1.1186

 eigenvalue-minimisations  :  7209
 total energy-change (2. order) : 0.1055802E+02  (-0.2311145E+01)
 number of electron     320.0000003 magnetization 
 augmentation part       19.3224701 magnetization 

 Broyden mixing:
  rms(total) = 0.28510E+01    rms(broyden)= 0.28510E+01
  rms(prec ) = 0.30296E+01
  weight for this iteration     100.00

 eigenvalues of (default mixing * dielectric matrix)
  average eigenvalue GAMMA=   1.7977
  1.7977

 Free energy of the ion-electron system (eV)
  ---------------------------------------------------
  alpha Z        PSCENC =      1618.98729682
  Ewald energy   TEWEN  =    -22490.81093732
  -Hartree energ DENC   =     -8046.58962232
  -exchange      EXHF   =         0.00000000
  -V(xc)+E(xc)   XCENC  =       150.84818131
  PAW double counting   =     30432.51844436   -29043.52422533
  entropy T*S    EENTRO =         0.02476380
  eigenvalues    EBANDS =     -3131.93516147
  atomic energy  EATOM  =     30151.97267598
  Solvation  Ediel_sol  =         0.00000000
  ---------------------------------------------------
  free energy    TOTEN  =      -358.50858418 eV

  energy without entropy =     -358.53334799  energy(sigma->0) =     -358.51683878


--------------------------------------------------------------------------------------------------------




----------------------------------------- Iteration    1(   7)  ---------------------------------------


    POTLOK:  cpu time    0.0287: real time    0.0293
    SETDIJ:  cpu time    0.0036: real time    0.0036
    EDDIAG:  cpu time    0.1284: real time    0.1294
  RMM-DIIS:  cpu time    0.7585: real time    0.7833
    ORTHCH:  cpu time    0.0141: real time    0.0142
       DOS:  cpu time    0.0029: real time    0.0029
    CHARGE:  cpu time    0.0327: real time    0.0329
    MIXING:  cpu time    0.0013: real time    0.0013
    --------------------------------------------
      LOOP:  cpu time    0.9709: real time    1.0331

 eigenvalue-minimisations  :  7264
 total energy-change (2. order) : 0.1695788E+01  (-0.2058586E+01)
 number of electron     320.0000002 magnetization 
 augmentation part       19.7797066 magnetization 

 Broyden mixing:
  rms(total) = 0.73425E+00    rms(broyden)= 0.73398E+00
  rms(prec ) = 0.15638E+01
  weight for this iteration     100.00

 eigenvalues of (default mixing * dielectric matrix)
  average eigenvalue GAMMA=   1.2673
  0.7331  1.8014

 Free energy of the ion-electron system (eV)
  ---------------------------------------------------
  alpha Z        PSCENC =      1618.98729682
  Ewald energy   TEWEN  =    -22490.81093732
  -Hartree energ DENC   =     -7951.69186638
  -exchange      EXHF   =         0.00000000
  -V(xc)+E(xc)   XCENC  =       149.84897714
  PAW double counting   =     35925.27667669   -34526.00997999
  entropy T*S    EENTRO =         0.01589453
  eigenvalues    EBANDS =     -3234.40153323
  atomic energy  EATOM  =     30151.97267598
  Solvation  Ediel_sol  =         0.00000000
  ---------------------------------------------------
  free energy    TOTEN  =      -356.81279577 eV

  energy without entropy =     -356.82869029  energy(sigma->0) =     -356.81809394


--------------------------------------------------------------------------------------------------------




----------------------------------------- Iteration    1(   8)  ---------------------------------------


    POTLOK:  cpu time    0.0290: real time    0.0300
    SETDIJ:  cpu time    0.0036: real time    0.0037
    EDDIAG:  cpu time    0.0881: real time    0.0911
  RMM-DIIS:  cpu time    0.8214: real time    0.8673
    ORTHCH:  cpu time    0.0137: real time    0.0143
       DOS:  cpu time    0.0024: real time    0.0024
    CHARGE:  cpu time    0.0585: real time    0.0595
    MIXING:  cpu time    0.0012: real time    0.0012
    --------------------------------------------
      LOOP:  cpu time    1.0184: real time    1.1061

 eigenvalue-minimisations  :  8131
 total energy-change (2. order) : 0.1940623E+01  (-0.3463352E+00)
 number of electron     320.0000003 magnetization 
 augmentation part       19.5275506 magnetization 

 Broyden mixing:
  rms(total) = 0.41775E+00    rms(broyden)= 0.41747E+00
  rms(prec ) = 0.70773E+00
  weight for this iteration     100.00

 eigenvalues of (default mixing * dielectric matrix)
  average eigenvalue GAMMA=   1.2491
  1.6319  1.6319  0.4833

 Free energy of the ion-electron system (eV)
  ---------------------------------------------------
  alpha Z        PSCENC =      1618.98729682
  Ewald energy   TEWEN  =    -22490.81093732
  -Hartree energ DENC   =     -7940.82168500
  -exchange      EXHF   =         0.00000000
  -V(xc)+E(xc)   XCENC  =       149.93591500
  PAW double counting   =     36410.00181954   -35007.16246346
  entropy T*S    EENTRO =         0.02006374
  eigenvalues    EBANDS =     -3246.99485786
  atomic energy  EATOM  =     30151.97267598
  Solvation  Ediel_sol  =         0.00000000
  ---------------------------------------------------
  free energy    TOTEN  =      -354.87217255 eV

  energy without entropy =     -354.89223630  energy(sigma->0) =     -354.87886047


--------------------------------------------------------------------------------------------------------




----------------------------------------- Iteration    1(   9)  ---------------------------------------


    POTLOK:  cpu time    0.0274: real time    0.0285
    SETDIJ:  cpu time    0.0168: real time    0.0171
    EDDIAG:  cpu time    0.0917: real time    0.0935
  RMM-DIIS:  cpu time    0.8649: real time    0.8891
    ORTHCH:  cpu time    0.0142: real time    0.0143
       DOS:  cpu time    0.0013: real time    0.0013
    CHARGE:  cpu time    0.0343: real time    0.0345
    MIXING:  cpu time    0.0013: real time    0.0013
    --------------------------------------------
      LOOP:  cpu time    1.0525: real time    1.1170

 eigenvalue-minimisations  :  7990
 total energy-change (2. order) : 0.9363052E-01  (-0.1467366E+00)
 number of electron     320.0000003 magnetization 
 augmentation part       19.3757752 magnetization 

 Broyden mixing:
  rms(total) = 0.29752E+00    rms(broyden)= 0.29740E+00
  rms(prec ) = 0.43415E+00
  weight for this iteration     100.00

 eigenvalues of (default mixing * dielectric matrix)
  average eigenvalue GAMMA=   1.1706
  1.8996  1.8996  0.4984  0.3848

 Free energy of the ion-electron system (eV)
  ---------------------------------------------------
  alpha Z        PSCENC =      1618.98729682
  Ewald energy   TEWEN  =    -22490.81093732
  -Hartree energ DENC   =     -7949.05982018
  -exchange      EXHF   =         0.00000000
  -V(xc)+E(xc)   XCENC  =       150.61069956
  PAW double counting   =     36506.92239541   -35099.01446847
  entropy T*S    EENTRO =         0.01947303
  eigenvalues    EBANDS =     -3244.40585685
  atomic energy  EATOM  =     30151.97267598
  Solvation  Ediel_sol  =         0.00000000
  ---------------------------------------------------
  free energy    TOTEN  =      -354.77854203 eV

  energy without entropy =     -354.79801505  energy(sigma->0) =     -354.78503304


--------------------------------------------------------------------------------------------------------




----------------------------------------- Iteration    1(  10)  ---------------------------------------


    POTLOK:  cpu time    0.0280: real time    0.0293
    SETDIJ:  cpu time    0.0093: real time    0.0094
    EDDIAG:  cpu time    0.0890: real time    0.0921
  RMM-DIIS:  cpu time    0.8407: real time    0.8843
    ORTHCH:  cpu time    0.0138: real time    0.0144
       DOS:  cpu time    0.0029: real time    0.0030
    CHARGE:  cpu time    0.0324: real time    0.0333
    MIXING:  cpu time    0.0014: real time    0.0014
    --------------------------------------------
      LOOP:  cpu time    1.0180: real time    1.1119

 eigenvalue-minimisations  :  7895
 total energy-change (2. order) : 0.7228482E-01  (-0.3561668E-01)
 number of electron     320.0000003 magnetization 
 augmentation part       19.2709133 magnetization 

 Broyden mixing:
  rms(total) = 0.12061E+00    rms(broyden)= 0.12049E+00
  rms(prec ) = 0.19895E+00
  weight for this iteration     100.00

 eigenvalues of (default mixing * dielectric matrix)
  average eigenvalue GAMMA=   1.1258
  1.9661  1.9661  0.8139  0.5201  0.3628

 Free energy of the ion-electron system (eV)
  ---------------------------------------------------
  alpha Z        PSCENC =      1618.98729682
  Ewald energy   TEWEN  =    -22490.81093732
  -Hartree energ DENC   =     -7968.22734919
  -exchange      EXHF   =         0.00000000
  -V(xc)+E(xc)   XCENC  =       151.89662143
  PAW double counting   =     36696.11508744   -35278.44217759
  entropy T*S    EENTRO =         0.02004950
  eigenvalues    EBANDS =     -3236.21752427
  atomic energy  EATOM  =     30151.97267598
  Solvation  Ediel_sol  =         0.00000000
  ---------------------------------------------------
  free energy    TOTEN  =      -354.70625721 eV

  energy without entropy =     -354.72630670  energy(sigma->0) =     -354.71294037


--------------------------------------------------------------------------------------------------------




----------------------------------------- Iteration    1(  11)  ---------------------------------------


    POTLOK:  cpu time    0.0289: real time    0.0299
    SETDIJ:  cpu time    0.0036: real time    0.0037
    EDDIAG:  cpu time    0.0871: real time    0.0901
  RMM-DIIS:  cpu time    1.0513: real time    1.0973
    ORTHCH:  cpu time    0.0137: real time    0.0142
       DOS:  cpu time    0.0039: real time    0.0040
    CHARGE:  cpu time    0.0858: real time    0.0873
    MIXING:  cpu time    0.0013: real time    0.0014
    --------------------------------------------
      LOOP:  cpu time    1.2762: real time    1.3638

 eigenvalue-minimisations  :  7958
 total energy-change (2. order) : 0.2078185E-01  (-0.1192833E-01)
 number of electron     320.0000003 magnetization 
 augmentation part       19.2461391 magnetization 

 Broyden mixing:
  rms(total) = 0.61337E-01    rms(broyden)= 0.61279E-01
  rms(prec ) = 0.10350E+00
  weight for this iteration     100.00

 eigenvalues of (default mixing * dielectric matrix)
  average eigenvalue GAMMA=   1.1029
  2.2440  1.7652  1.2315  0.5154  0.5010  0.3601

 Free energy of the ion-electron system (eV)
  ---------------------------------------------------
  alpha Z        PSCENC =      1618.98729682
  Ewald energy   TEWEN  =    -22490.81093732
  -Hartree energ DENC   =     -7970.18773010
  -exchange      EXHF   =         0.00000000
  -V(xc)+E(xc)   XCENC  =       152.18223098
  PAW double counting   =     36849.06738563   -35427.80971233
  entropy T*S    EENTRO =         0.02067021
  eigenvalues    EBANDS =     -3238.10735522
  atomic energy  EATOM  =     30151.97267598
  Solvation  Ediel_sol  =         0.00000000
  ---------------------------------------------------
  free energy    TOTEN  =      -354.68547536 eV

  energy without entropy =     -354.70614557  energy(sigma->0) =     -354.69236543


--------------------------------------------------------------------------------------------------------




----------------------------------------- Iteration    1(  12)  ---------------------------------------


    POTLOK:  cpu time    0.0278: real time    0.0287
    SETDIJ:  cpu time    0.0035: real time    0.0035
    EDDIAG:  cpu time    0.1098: real time    0.1129
  RMM-DIIS:  cpu time    0.8863: real time    0.9309
    ORTHCH:  cpu time    0.0138: real time    0.0143
       DOS:  cpu time    0.0020: real time    0.0021
    CHARGE:  cpu time    0.0317: real time    0.0323
    MIXING:  cpu time    0.0015: real time    0.0015
    --------------------------------------------
      LOOP:  cpu time    1.0769: real time    1.1723

 eigenvalue-minimisations  :  8052
 total energy-change (2. order) : 0.1826347E-02  (-0.3800937E-02)
 number of electron     320.0000003 magnetization 
 augmentation part       19.2429460 magnetization 

 Broyden mixing:
  rms(total) = 0.38412E-01    rms(broyden)= 0.38395E-01
  rms(prec ) = 0.63828E-01
  weight for this iteration     100.00

 eigenvalues of (default mixing * dielectric matrix)
  average eigenvalue GAMMA=   1.0943
  2.3119  1.6614  1.6614  0.6753  0.5553  0.4444  0.3505

 Free energy of the ion-electron system (eV)
  ---------------------------------------------------
  alpha Z        PSCENC =      1618.98729682
  Ewald energy   TEWEN  =    -22490.81093732
  -Hartree energ DENC   =     -7970.81804792
  -exchange      EXHF   =         0.00000000
  -V(xc)+E(xc)   XCENC  =       152.24640027
  PAW double counting   =     36950.33246104   -35527.57726301
  entropy T*S    EENTRO =         0.02087485
  eigenvalues    EBANDS =     -3239.03710972
  atomic energy  EATOM  =     30151.97267598
  Solvation  Ediel_sol  =         0.00000000
  ---------------------------------------------------
  free energy    TOTEN  =      -354.68364901 eV

  energy without entropy =     -354.70452386  energy(sigma->0) =     -354.69060730


--------------------------------------------------------------------------------------------------------




----------------------------------------- Iteration    1(  13)  ---------------------------------------


    POTLOK:  cpu time    0.0285: real time    0.0293
    SETDIJ:  cpu time    0.0034: real time    0.0035
    EDDIAG:  cpu time    0.0988: real time    0.1018
  RMM-DIIS:  cpu time    0.8848: real time    0.9294
    ORTHCH:  cpu time    0.0137: real time    0.0142
       DOS:  cpu time    0.0028: real time    0.0028
    CHARGE:  cpu time    0.0316: real time    0.0324
    MIXING:  cpu time    0.0015: real time    0.0015
    --------------------------------------------
      LOOP:  cpu time    1.0656: real time    1.1494

 eigenvalue-minimisations  :  8170
 total energy-change (2. order) : 0.7544993E-03  (-0.1475550E-02)
 number of electron     320.0000003 magnetization 
 augmentation part       19.2435864 magnetization 

 Broyden mixing:
  rms(total) = 0.23041E-01    rms(broyden)= 0.23035E-01
  rms(prec ) = 0.31481E-01
  weight for this iteration     100.00

 eigenvalues of (default mixing * dielectric matrix)
  average eigenvalue GAMMA=   1.1149
  2.4758  1.9960  1.6447  0.9927  0.5518  0.5165  0.3534  0.3879

 Free energy of the ion-electron system (eV)
  ---------------------------------------------------
  alpha Z        PSCENC =      1618.98729682
  Ewald energy   TEWEN  =    -22490.81093732
  -Hartree energ DENC   =     -7971.21662605
  -exchange      EXHF   =         0.00000000
  -V(xc)+E(xc)   XCENC  =       152.25591093
  PAW double counting   =     37004.71989101   -35581.15475962
  entropy T*S    EENTRO =         0.02038501
  eigenvalues    EBANDS =     -3239.45673127
  atomic energy  EATOM  =     30151.97267598
  Solvation  Ediel_sol  =         0.00000000
  ---------------------------------------------------
  free energy    TOTEN  =      -354.68289451 eV

  energy without entropy =     -354.70327952  energy(sigma->0) =     -354.68968952


--------------------------------------------------------------------------------------------------------




----------------------------------------- Iteration    1(  14)  ---------------------------------------


    POTLOK:  cpu time    0.0299: real time    0.0309
    SETDIJ:  cpu time    0.0037: real time    0.0038
    EDDIAG:  cpu time    0.0913: real time    0.0938
  RMM-DIIS:  cpu time    0.8615: real time    0.8801
    ORTHCH:  cpu time    0.0143: real time    0.0143
       DOS:  cpu time    0.0026: real time    0.0026
    CHARGE:  cpu time    0.0325: real time    0.0326
    MIXING:  cpu time    0.0016: real time    0.0016
    --------------------------------------------
      LOOP:  cpu time    1.0379: real time    1.0953

 eigenvalue-minimisations  :  8346
 total energy-change (2. order) :-0.3681262E-03  (-0.7111444E-03)
 number of electron     320.0000003 magnetization 
 augmentation part       19.2424706 magnetization 

 Broyden mixing:
  rms(total) = 0.11167E-01    rms(broyden)= 0.11164E-01
  rms(prec ) = 0.16643E-01
  weight for this iteration     100.00

 eigenvalues of (default mixing * dielectric matrix)
  average eigenvalue GAMMA=   1.0926
  2.6156  2.1022  1.5318  1.1957  0.5956  0.5956  0.4676  0.3519  0.3779

 Free energy of the ion-electron system (eV)
  ---------------------------------------------------
  alpha Z        PSCENC =      1618.98729682
  Ewald energy   TEWEN  =    -22490.81093732
  -Hartree energ DENC   =     -7971.29113599
  -exchange      EXHF   =         0.00000000
  -V(xc)+E(xc)   XCENC  =       152.25293301
  PAW double counting   =     37036.93011778   -35612.64250152
  entropy T*S    EENTRO =         0.02061992
  eigenvalues    EBANDS =     -3240.10233132
  atomic energy  EATOM  =     30151.97267598
  Solvation  Ediel_sol  =         0.00000000
  ---------------------------------------------------
  free energy    TOTEN  =      -354.68326264 eV

  energy without entropy =     -354.70388256  energy(sigma->0) =     -354.69013595


--------------------------------------------------------------------------------------------------------




----------------------------------------- Iteration    1(  15)  ---------------------------------------


    POTLOK:  cpu time    0.0288: real time    0.0298
    SETDIJ:  cpu time    0.0037: real time    0.0038
    EDDIAG:  cpu time    0.1206: real time    0.1215
  RMM-DIIS:  cpu time    1.0228: real time    1.0274
    ORTHCH:  cpu time    0.0144: real time    0.0145
       DOS:  cpu time    0.0105: real time    0.0105
    CHARGE:  cpu time    0.0416: real time    0.0417
    MIXING:  cpu time    0.0018: real time    0.0019
    --------------------------------------------
      LOOP:  cpu time    1.2448: real time    1.2868

 eigenvalue-minimisations  :  8082
 total energy-change (2. order) :-0.8726623E-04  (-0.2972222E-03)
 number of electron     320.0000003 magnetization 
 augmentation part       19.2406164 magnetization 

 Broyden mixing:
  rms(total) = 0.38116E-02    rms(broyden)= 0.38070E-02
  rms(prec ) = 0.66223E-02
  weight for this iteration     100.00

 eigenvalues of (default mixing * dielectric matrix)
  average eigenvalue GAMMA=   1.0799
  2.6006  2.0919  1.6073  1.2601  0.9372  0.5998  0.5061  0.4737  0.3522  0.3702

 Free energy of the ion-electron system (eV)
  ---------------------------------------------------
  alpha Z        PSCENC =      1618.98729682
  Ewald energy   TEWEN  =    -22490.81093732
  -Hartree energ DENC   =     -7972.00517961
  -exchange      EXHF   =         0.00000000
  -V(xc)+E(xc)   XCENC  =       152.27729935
  PAW double counting   =     37047.59009098   -35622.91171847
  entropy T*S    EENTRO =         0.02051792
  eigenvalues    EBANDS =     -3239.80339555
  atomic energy  EATOM  =     30151.97267598
  Solvation  Ediel_sol  =         0.00000000
  ---------------------------------------------------
  free energy    TOTEN  =      -354.68334991 eV

  energy without entropy =     -354.70386783  energy(sigma->0) =     -354.69018921


--------------------------------------------------------------------------------------------------------




----------------------------------------- Iteration    1(  16)  ---------------------------------------


    POTLOK:  cpu time    0.0286: real time    0.0295
    SETDIJ:  cpu time    0.1823: real time    0.1851
    EDDIAG:  cpu time    0.0886: real time    0.0916
  RMM-DIIS:  cpu time    0.7331: real time    0.7621
    ORTHCH:  cpu time    0.0146: real time    0.0146
       DOS:  cpu time    0.0040: real time    0.0041
    CHARGE:  cpu time    0.0396: real time    0.0397
    MIXING:  cpu time    0.0017: real time    0.0017
    --------------------------------------------
      LOOP:  cpu time    1.0934: real time    1.1697

 eigenvalue-minimisations  :  6526
 total energy-change (2. order) :-0.1036008E-03  (-0.1392034E-03)
 number of electron     320.0000003 magnetization 
 augmentation part       19.2399569 magnetization 

 Broyden mixing:
  rms(total) = 0.25582E-02    rms(broyden)= 0.25566E-02
  rms(prec ) = 0.57021E-02
  weight for this iteration     100.00

 eigenvalues of (default mixing * dielectric matrix)
  average eigenvalue GAMMA=   1.0444
  2.6278  2.0887  1.6239  1.3667  0.9962  0.5653  0.5087  0.5087  0.4816  0.3527
  0.3684

 Free energy of the ion-electron system (eV)
  ---------------------------------------------------
  alpha Z        PSCENC =      1618.98729682
  Ewald energy   TEWEN  =    -22490.81093732
  -Hartree energ DENC   =     -7972.09009652
  -exchange      EXHF   =         0.00000000
  -V(xc)+E(xc)   XCENC  =       152.27936088
  PAW double counting   =     37052.80814549   -35628.04997215
  entropy T*S    EENTRO =         0.02057928
[...]
    102       5.3461      2.00000
    103       5.4272      2.00000
    104       5.4461      2.00000
    105       5.5222      2.00000
    106       5.5630      2.00000
    107       5.5915      2.00000
    108       5.6345      2.00000
    109       5.6788      2.00000
    110       5.7533      2.00000
    111       5.7657      2.00000
    112       5.7926      2.00000
    113       5.8350      2.00000
    114       5.8799      2.00000
    115       5.9382      2.00000
    116       6.0195      2.00000
    117       6.0477      2.00000
    118       6.1229      2.00000
    119       6.1500      2.00000
    120       6.2043      2.00000
    121       6.3154      2.00000
    122       6.4151      2.00000
    123       6.4829      2.00000
    124       6.5389      2.00000
    125       6.5628      2.00000
    126       6.5866      2.00000
    127       6.6136      2.00000
    128       6.6478      2.00000
    129       6.6826      2.00000
    130       6.7145      2.00000
    131       6.7315      2.00000
    132       6.7798      2.00000
    133       6.8164      2.00000
    134       6.8731      2.00000
    135       6.9332      2.00000
    136       6.9573      2.00000
    137       6.9697      2.00000
    138       6.9943      2.00000
    139       7.0288      2.00000
    140       7.1092      2.00000
    141       7.1443      2.00000
    142       7.1967      2.00000
    143       7.2242      2.00000
    144       7.2470      2.00000
    145       7.3155      2.00000
    146       7.3363      2.00000
    147       7.3775      2.00000
    148       7.3953      2.00001
    149       7.4538      2.00011
    150       7.4897      2.00042
    151       7.5260      2.00140
    152       7.5589      2.00373
    153       7.5845      2.00738
    154       7.6097      2.01351
    155       7.6455      2.02791
    156       7.6713      2.04240
    157       7.7396      2.07041
    158       7.7658      2.05239
    159       7.7811      2.02582
    160       7.8306      1.82056
    161       7.8884      1.32116
    162       7.9298      0.86123
    163       7.9566      0.57375
    164       8.0002      0.20578
    165       8.0583     -0.03517
    166       8.0898     -0.06898
    167       8.1191     -0.06718
    168       8.1563     -0.04680
    169       8.1980     -0.02376
    170       8.2216     -0.01459
    171       8.2521     -0.00706
    172       8.3146     -0.00116
    173       8.3312     -0.00068
    174       8.3681     -0.00018
    175       8.3880     -0.00008
    176       8.4271     -0.00002
    177       8.5089     -0.00000
    178       8.5655     -0.00000
    179       8.6007     -0.00000
    180       8.6642     -0.00000
    181       8.7172     -0.00000
    182       8.7885     -0.00000
    183       8.8663     -0.00000
    184       8.9092     -0.00000
    185       9.0404     -0.00000
    186       9.2038     -0.00000
    187       9.2870     -0.00000
    188       9.6466     -0.00000
    189       9.7160     -0.00000
    190       9.7855     -0.00000
    191       9.8246     -0.00000
    192       9.8932     -0.00000


--------------------------------------------------------------------------------------------------------


 soft charge-density along one line, spin component           1
         0         1         2         3         4         5         6         7         8         9
 total charge-density along one line
 
 pseudopotential strength for first ion, spin component:           1
 13.397 -26.130  -0.000  -0.001  -0.000  -0.001  -0.001  -0.002
-26.130  13.867   0.001   0.002   0.003  -0.001  -0.001  -0.000
 -0.000   0.001  -6.413  -0.000  -0.000   5.105   0.004   0.003
 -0.001   0.002  -0.000  -6.409   0.003   0.004   5.097  -0.003
 -0.000   0.003  -0.000   0.003  -6.416   0.003  -0.003   5.110
 -0.001  -0.001   5.105   0.004   0.003   8.358  -0.002  -0.001
 -0.001  -0.001   0.004   5.097  -0.003  -0.002   8.362   0.002
 -0.002  -0.000   0.003  -0.003   5.110  -0.001   0.002   8.354
 -0.001  -0.002   0.001  -0.000   0.001  -0.001   0.000  -0.001
 -0.001  -0.003   0.000   0.001  -0.000  -0.001  -0.001   0.000
  0.004   0.003   0.000  -0.000  -0.001  -0.000  -0.000   0.001
  0.003   0.001  -0.000   0.001   0.000   0.000  -0.001  -0.001
 -0.002  -0.001   0.000  -0.000   0.001  -0.000  -0.000  -0.001
 -0.001  -0.003   0.002  -0.000   0.001  -0.002   0.000  -0.001
 -0.002  -0.003   0.001   0.001  -0.000  -0.001  -0.001   0.000
  0.005   0.004   0.001  -0.000  -0.001  -0.000  -0.001   0.001
  0.004   0.002  -0.000   0.001   0.000   0.000  -0.002  -0.001
 -0.002  -0.002   0.000  -0.000   0.001   0.000   0.000  -0.001
 total augmentation occupancy for first ion, spin component:           1
  1.999  -0.024   0.000   0.000  -0.000   0.000   0.001  -0.000  -0.006  -0.017   0.008  -0.003  -0.008   0.005   0.014  -0.008
 -0.024   1.448   0.004   0.005  -0.004  -0.007  -0.004   0.006  -0.023  -0.078   0.046  -0.052  -0.010   0.004   0.035  -0.026
  0.000   0.004   2.002   0.001   0.001  -0.023  -0.001  -0.001  -0.001   0.013  -0.004   0.001  -0.013  -0.000  -0.006   0.004
  0.000   0.005   0.001   2.003   0.001  -0.001  -0.027  -0.002  -0.001   0.003   0.012   0.000  -0.002   0.001   0.004  -0.008
 -0.000  -0.004   0.001   0.001   2.002  -0.001  -0.002  -0.024  -0.008  -0.001  -0.003   0.011   0.005   0.007   0.001   0.003
  0.000  -0.007  -0.023  -0.001  -0.001   0.039   0.000   0.002   0.002  -0.025   0.001  -0.003   0.023  -0.001   0.014  -0.003
  0.001  -0.004  -0.001  -0.027  -0.002   0.000   0.044   0.002   0.000  -0.041  -0.014   0.003   0.004  -0.000   0.022   0.010
 -0.000   0.006  -0.001  -0.002  -0.024   0.002   0.002   0.039  -0.012   0.001   0.000  -0.023   0.005   0.006  -0.001   0.000
 -0.006  -0.023  -0.001  -0.001  -0.008   0.002   0.000  -0.012   4.252   0.169   0.020  -0.029   0.032  -2.222  -0.086  -0.009
 -0.017  -0.078   0.013   0.003  -0.001  -0.025  -0.041   0.001   0.169   4.622  -0.136  -0.057   0.233  -0.086  -2.417   0.072
  0.008   0.046  -0.004   0.012  -0.003   0.001  -0.014   0.000   0.020  -0.136   4.244  -0.094   0.043  -0.008   0.072  -2.302
 -0.003  -0.052   0.001   0.000   0.011  -0.003   0.003  -0.023  -0.029  -0.057  -0.094   4.277  -0.132   0.010   0.016   0.042
 -0.008  -0.010  -0.013  -0.002   0.005   0.023   0.004   0.005   0.032   0.233   0.043  -0.132   4.073  -0.009  -0.122  -0.027
  0.005   0.004  -0.000   0.001   0.007  -0.001  -0.000   0.006  -2.222  -0.086  -0.008   0.010  -0.009   1.175   0.044   0.003
  0.014   0.035  -0.006   0.004   0.001   0.014   0.022  -0.001  -0.086  -2.417   0.072   0.016  -0.122   0.044   1.280  -0.038
 -0.008  -0.026   0.004  -0.008   0.003  -0.003   0.010   0.000  -0.009   0.072  -2.302   0.042  -0.027   0.003  -0.038   1.257
  0.001   0.025  -0.000  -0.001  -0.004   0.001  -0.002   0.012   0.010   0.016   0.042  -2.242   0.066  -0.003  -0.002  -0.019
  0.007   0.010   0.008   0.001  -0.005  -0.016  -0.002  -0.002  -0.009  -0.123  -0.027   0.066  -2.212   0.001   0.065   0.018


------------------------ aborting loop because EDIFF is reached ----------------------------------------


    CHARGE:  cpu time    0.0298: real time    0.0306
    FORLOC:  cpu time    0.0133: real time    0.0136
    FORNL :  cpu time    0.3142: real time    0.3275
    STRESS:  cpu time    0.9705: real time    1.0096
    FORCOR:  cpu time    0.0417: real time    0.0429
    FORHAR:  cpu time    0.0181: real time    0.0186
    MIXING:  cpu time    0.0012: real time    0.0012
    OFIELD:  cpu time    0.0000: real time    0.0000

  FORCE on cell =-STRESS in cart. coord.  units (eV):
  Direction    XX          YY          ZZ          XY          YZ          ZX
  --------------------------------------------------------------------------------------
  Alpha Z  1617.58212  1617.58212  1617.58212
  Ewald   -7170.10546 -8548.98162 -6764.28570   185.55341    95.91159  -220.66358
  Hartree  2992.24480  1642.56246  3340.26243   190.59291    76.54047  -192.61492
  E(xc)   -1398.03492 -1398.37885 -1398.11271     0.02896     0.17557     0.52632
  Local   -1576.28202  1148.53068 -2332.29641  -375.02818  -172.98627   415.90120
  n-local  -292.19360  -292.37265  -294.24056     4.40283    -2.42643     0.53499
  augment   253.37254   253.79717   253.66024    -0.80201     0.29932    -0.08755
  Kinetic  5573.38735  5577.20075  5577.41062    -4.73533     2.48575    -3.59762
  Fock        0.00000     0.00000     0.00000     0.00000     0.00000     0.00000
  -------------------------------------------------------------------------------------
  Total      -0.02919    -0.05994    -0.01997     0.01258     0.00001    -0.00116
  in kB      -0.06355    -0.13049    -0.04348     0.02738     0.00002    -0.00252
  external pressure =       -0.08 kB  Pullay stress =        0.00 kB


 VOLUME and BASIS-vectors are now :
 -----------------------------------------------------------------------------
  energy-cutoff  :      300.00
  volume of cell :      735.95
      direct lattice vectors                 reciprocal lattice vectors
     7.007865383  0.047983692  0.017569052     0.142704428 -0.000980397 -0.000363004
     0.070260081 10.226697266  0.000547832    -0.000669578  0.097787880  0.000005218
     0.026120560 -0.000369092 10.269520301    -0.000244102 -0.000003539  0.097376152

  length of vectors
     7.008051679 10.226938630 10.269553527     0.142708257  0.097790172  0.097376459


 FORCES acting on ions
    electron-ion (+dipol)            ewald-force                    non-local-force                 convergence-correction
 -----------------------------------------------------------------------------------------------
   0.582E+02 0.162E+03 -.171E+03   -.578E+02 -.162E+03 0.171E+03   -.354E+00 0.379E+00 0.369E+00   -.375E-02 -.428E-02 0.182E-02
   -.120E+03 0.282E+03 0.171E+03   0.120E+03 -.282E+03 -.170E+03   -.592E+00 -.292E+00 -.362E+00   0.132E-02 -.521E-02 0.798E-03
   0.118E+02 0.136E+03 -.204E+03   -.112E+02 -.135E+03 0.203E+03   -.612E+00 -.342E+00 0.560E+00   -.127E-04 -.767E-02 0.595E-02
   0.388E+02 0.169E+03 0.247E+02   -.384E+02 -.169E+03 -.247E+02   -.378E+00 -.268E+00 0.732E-01   -.838E-03 -.651E-02 -.147E-01
   -.267E+02 -.536E+02 0.178E+03   0.262E+02 0.539E+02 -.178E+03   0.448E+00 -.203E+00 -.595E+00   0.374E-02 -.140E-01 0.961E-02
   0.480E+02 -.109E+03 -.121E+02   -.484E+02 0.109E+03 0.118E+02   0.317E+00 -.776E-03 0.339E+00   0.116E-02 0.558E-02 -.690E-02
   0.624E+02 0.394E+02 0.520E+02   -.619E+02 -.395E+02 -.525E+02   -.507E+00 0.900E-01 0.558E+00   -.192E-02 0.110E-02 -.167E-01
   -.930E+02 -.341E+03 0.335E+02   0.924E+02 0.341E+03 -.341E+02   0.635E+00 0.125E+00 0.545E+00   0.175E-02 0.967E-02 0.115E-01
   -.245E+02 -.205E+03 -.872E+02   0.245E+02 0.205E+03 0.873E+02   -.106E-01 0.288E-01 -.442E-01   0.112E-02 0.579E-02 -.222E-01
   0.251E+02 0.928E+01 0.974E+02   -.247E+02 -.922E+01 -.966E+02   -.390E+00 -.393E-01 -.775E+00   -.252E-02 -.152E-01 0.137E-01
   -.161E+03 -.174E+03 -.679E+02   0.160E+03 0.173E+03 0.678E+02   0.124E+01 0.705E+00 0.914E-01   0.165E-02 -.423E-02 -.599E-02
   0.250E+03 0.133E+01 0.541E+02   -.249E+03 -.886E+00 -.535E+02   -.132E+01 -.452E+00 -.560E+00   -.464E-02 0.696E-02 -.319E-02
   -.243E+02 0.317E+03 0.109E+03   0.238E+02 -.317E+03 -.108E+03   0.528E+00 0.310E+00 -.113E+01   -.353E-02 0.747E-02 0.224E-01
   0.582E+02 -.295E+03 -.142E+02   -.576E+02 0.296E+03 0.144E+02   -.622E+00 -.614E+00 -.208E+00   -.102E-02 0.405E-02 0.199E-01
   -.521E+02 -.320E+03 0.810E+02   0.516E+02 0.321E+03 -.815E+02   0.554E+00 -.610E+00 0.524E+00   -.185E-02 0.269E-02 0.706E-02
   -.521E+02 -.106E+03 -.230E+02   0.526E+02 0.106E+03 0.235E+02   -.453E+00 0.952E-01 -.527E+00   -.133E-02 0.408E-02 -.143E-02
   0.459E+02 -.285E+03 0.311E+02   -.468E+02 0.284E+03 -.313E+02   0.953E+00 0.812E+00 0.171E+00   -.136E-01 -.439E-02 -.112E-01
   -.389E+02 0.213E+03 0.567E+02   0.383E+02 -.212E+03 -.573E+02   0.525E+00 -.332E+00 0.531E+00   0.773E-02 0.306E-02 -.186E-02
   0.232E+03 0.283E+03 -.203E+03   -.232E+03 -.284E+03 0.202E+03   0.106E+00 0.518E+00 0.745E+00   -.247E-02 -.116E-01 0.186E-01
   -.222E+03 0.296E+03 -.166E+03   0.222E+03 -.296E+03 0.165E+03   0.188E-01 0.209E-01 0.804E+00   0.256E-02 -.381E-02 0.734E-02
   -.420E+02 -.107E+03 0.290E+02   0.415E+02 0.107E+03 -.284E+02   0.447E+00 0.219E-01 -.587E+00   0.118E-02 0.306E-02 0.482E-02
   -.663E+02 0.125E+03 0.267E+02   0.672E+02 -.125E+03 -.262E+02   -.861E+00 -.299E+00 -.516E+00   -.102E-02 -.307E-02 -.458E-02
   0.657E+02 0.788E+01 -.224E+02   -.646E+02 -.798E+01 0.225E+02   -.105E+01 0.940E-01 -.123E+00   0.580E-03 0.452E-02 0.734E-02
   0.437E+02 -.125E+03 0.129E+02   -.433E+02 0.125E+03 -.135E+02   -.418E+00 -.718E-01 0.519E+00   -.825E-03 0.398E-02 0.419E-02
   -.648E+02 0.557E+01 0.429E+02   0.638E+02 -.598E+01 -.435E+02   0.105E+01 0.405E+00 0.603E+00   0.475E-04 0.351E-02 0.727E-02
   0.327E+02 0.996E+02 0.692E+02   -.331E+02 -.994E+02 -.690E+02   0.333E+00 -.119E+00 -.221E+00   -.453E-03 -.183E-02 -.823E-03
   0.450E+02 -.114E+03 0.348E+02   -.444E+02 0.114E+03 -.344E+02   -.557E+00 -.277E-01 -.411E+00   -.112E-02 0.263E-02 0.316E-02
   0.729E+02 -.520E+02 -.276E+01   -.722E+02 0.519E+02 0.231E+01   -.669E+00 0.155E+00 0.456E+00   0.213E-03 0.147E-02 -.360E-02
   0.133E+02 -.109E+03 -.418E+02   -.133E+02 0.109E+03 0.418E+02   0.386E-01 0.364E+00 0.465E-01   -.492E-03 0.200E-02 -.572E-02
   -.150E+02 0.720E+02 -.714E+02   0.146E+02 -.721E+02 0.711E+02   0.453E+00 0.517E-01 0.300E+00   0.240E-03 -.266E-02 0.119E-02
   -.335E+01 -.119E+03 -.162E+01   0.403E+01 0.119E+03 0.168E+01   -.681E+00 0.230E-01 -.592E-01   0.101E-02 -.411E-03 -.151E-02
   -.935E+02 0.252E+02 -.515E+01   0.927E+02 -.255E+02 0.580E+01   0.772E+00 0.203E+00 -.647E+00   0.132E-02 0.181E-02 -.122E-02
   0.164E+02 0.106E+03 0.230E+02   -.159E+02 -.106E+03 -.224E+02   -.501E+00 0.151E+00 -.600E+00   -.391E-03 0.111E-02 0.380E-02
   0.438E+02 0.982E+02 -.331E+01   -.449E+02 -.982E+02 0.368E+01   0.116E+01 -.740E-03 -.368E+00   0.117E-02 -.251E-02 -.277E-02
   -.296E+02 0.278E+02 0.201E+02   0.292E+02 -.277E+02 -.202E+02   0.368E+00 -.118E+00 0.159E+00   -.518E-04 -.458E-03 -.432E-02
   -.350E+02 0.399E+02 -.514E+02   0.349E+02 -.397E+02 0.509E+02   0.979E-01 -.268E+00 0.484E+00   0.131E-02 -.403E-03 0.568E-03
 -----------------------------------------------------------------------------------------------
   -.576E-01 -.479E+00 -.178E+00   0.178E-12 0.171E-12 0.227E-12   0.763E-01 0.494E+00 0.137E+00   -.138E-01 -.136E-01 0.423E-01
 
 
 POSITION                                       TOTAL-FORCE (eV/Angst)
 -----------------------------------------------------------------------------------
      5.49945      8.66797      5.12788        -0.001907      0.007495      0.002808
      0.10341      0.06218      0.08080         0.000487     -0.002218     -0.001907
      5.42011      1.72449      5.11028        -0.005272     -0.002875      0.001045
      5.33677      1.75101      8.54683         0.000840      0.001175      0.002212
      5.16706      1.80170      1.77757         0.000705      0.000301      0.000623
      3.49260      3.41357      6.72912         0.001869     -0.002961     -0.000245
      5.49149      8.63060      8.47791         0.001988      0.001770      0.000700
      1.69207      5.19541      5.08305         0.000542      0.004538     -0.000316
      5.19734      5.05331      8.64276         0.000266      0.000671     -0.002242
      1.82790      1.74807      1.88788         0.001046      0.000802      0.002338
      6.88087      6.71468      6.81422         0.000193      0.002092     -0.003102
      3.74679      6.95799      0.09528         0.001834      0.000489     -0.001024
      5.22872      8.57633      1.82586         0.000477      0.000143      0.000395
      3.58568      3.51630      3.55836         0.001406     -0.002097     -0.000164
      6.98784      3.56268      3.32353        -0.000001     -0.001964      0.003257
      0.10407      3.42101      6.92228         0.000349     -0.001763     -0.005253
      3.34134      3.26780      0.02308         0.001575      0.000595      0.001284
      1.73189      1.84581      8.52027        -0.003753     -0.002648     -0.003265
      3.60669     10.17330      3.37226        -0.001095     -0.000863      0.000251
      7.07476     10.24825      3.19196         0.002903     -0.000058      0.000161
      5.11498      5.08594      1.80026        -0.002186      0.000327      0.003488
      0.32552      0.12061      6.96164        -0.000761     -0.000086     -0.001614
      3.74651      6.84467      3.51774         0.000709      0.002671      0.000032
      5.42017      5.10092      5.05900         0.002619     -0.001819     -0.001070
      6.85578      6.78401      3.31814         0.003022     -0.000724      0.001358
      3.43231      0.04907     10.25887         0.000722     -0.002759     -0.000123
      1.93468      5.20563      1.74286         0.002013     -0.000919      0.006089
      3.74945      6.85842      6.70894         0.000348      0.004158     -0.000812
      1.83769      5.21079      8.61085        -0.001909      0.001090     -0.003831
      1.67823      1.69766      4.96470        -0.000724      0.001266     -0.000637
      0.11392      3.40842      0.08994         0.001938      0.001948      0.001913
      6.81984      6.80018      0.21389        -0.004504     -0.001879      0.000463
      1.87331      8.40028      1.79984        -0.001445     -0.003579     -0.002707
      3.41126     10.24743      6.88610        -0.004754     -0.001880      0.000969
      1.76100      8.30426      8.56686        -0.004028      0.000730     -0.001365
      1.73661      8.51165      5.03642         0.004488     -0.001170      0.000291
 -----------------------------------------------------------------------------------
    total drift:                                0.004899      0.001619      0.001031


--------------------------------------------------------------------------------------------------------



  FREE ENERGIE OF THE ION-ELECTRON SYSTEM (eV)
  ---------------------------------------------------
  free  energy   TOTEN  =      -354.69107772 eV

  energy  without entropy=     -354.71258327  energy(sigma->0) =     -354.69824624
 
 d Force = 0.5561727E-04[ 0.401E-04, 0.711E-04]  d Energy = 0.7439858E-04-0.188E-04
 d Force = 0.4584856E+00[ 0.458E+00, 0.459E+00]  d Ewald  = 0.2806771E+00 0.178E+00


--------------------------------------------------------------------------------------------------------


    POTLOK:  cpu time    0.0391: real time    0.0404


--------------------------------------------------------------------------------------------------------




--------------------------------------------------------------------------------------------------------


  
 reached required accuracy - stopping structural energy minimisation
     LOOP+:  cpu time    5.5460: real time    6.2533
    4ORBIT:  cpu time    0.0000: real time    0.0000

 total amount of memory used by VASP on root node    69141. kBytes
========================================================================

   base      :      30000. kBytes
   nonlr-proj:      10372. kBytes
   fftplans  :       2814. kBytes
   grid      :       5360. kBytes
   one-center:        124. kBytes
   wavefun   :      20471. kBytes
 
  
  
 General timing and accounting informations for this job:
 ========================================================
  
                  Total CPU time used (sec):      149.683
                            User time (sec):      148.371
                          System time (sec):        1.312
                         Elapsed time (sec):      172.869
  
                   Maximum memory used (kb):      261992.
                   Average memory used (kb):           0.
  
                          Minor page faults:        94103
                          Major page faults:           28
                 Voluntary context switches:         6210
