 vasp.5.4.1 05Feb16 (build Jan 29 2020 16:04:39) complex                        
  
 executed on           IFC91_ompi date 2020.06.15  11:29:14
 running on  160 total cores
 distrk:  each k-point on   20 cores,    8 groups
 distr:  one band on NCORES_PER_BAND=   5 cores,    4 groups


--------------------------------------------------------------------------------------------------------


 INCAR:
 POTCAR:    PAW_PBE Zr_sv 04Jan2005               
 POTCAR:    PAW_PBE Ta 17Jan2003                  
 POTCAR:    PAW_PBE Nb_sv 25May2007               
 POTCAR:    PAW_PBE Hf 20Jan2003                  

 ----------------------------------------------------------------------------- 
|                                                                             |
|           W    W    AA    RRRRR   N    N  II  N    N   GGGG   !!!           |
|           W    W   A  A   R    R  NN   N  II  NN   N  G    G  !!!           |
|           W    W  A    A  R    R  N N  N  II  N N  N  G       !!!           |
|           W WW W  AAAAAA  RRRRR   N  N N  II  N  N N  G  GGG   !            |
|           WW  WW  A    A  R   R   N   NN  II  N   NN  G    G                |
|           W    W  A    A  R    R  N    N  II  N    N   GGGG   !!!           |
|                                                                             |
|      For optimal performance we recommend to set                            |
|        NCORE= 4 - approx SQRT( number of cores)                             |
|      NCORE specifies how many cores store one orbital (NPAR=cpu/NCORE).     |
|      This setting can  greatly improve the performance of VASP for DFT.     |
|      The default, NPAR=number of cores might be grossly inefficient         |
|      on modern multi-core architectures or massively parallel machines.     |
|      Do your own testing !!!!                                               |
|      Unfortunately you need to use the default for GW and RPA calculations. |
|      (for HF NCORE is supported but not extensively tested yet)             |
|                                                                             |
 ----------------------------------------------------------------------------- 


 ----------------------------------------------------------------------------- 
|                                                                             |
|           W    W    AA    RRRRR   N    N  II  N    N   GGGG   !!!           |
|           W    W   A  A   R    R  NN   N  II  NN   N  G    G  !!!           |
|           W    W  A    A  R    R  N N  N  II  N N  N  G       !!!           |
|           W WW W  AAAAAA  RRRRR   N  N N  II  N  N N  G  GGG   !            |
|           WW  WW  A    A  R   R   N   NN  II  N   NN  G    G                |
|           W    W  A    A  R    R  N    N  II  N    N   GGGG   !!!           |
|                                                                             |
|      You have enabled k-point parallelism (KPAR>1).                         |
|      This developmental code was originally  written by Paul Kent at ORNL,  |
|      and carefully double checked in Vienna.                                |
|      GW as well as linear response parallelism added by Martijn Marsman     |
|      and Georg Kresse.                                                      |
|      Carefully verify results versus KPAR=1.                                |
|      Report problems to Paul Kent and Vienna.                               |
|                                                                             |
 ----------------------------------------------------------------------------- 

 POTCAR:    PAW_PBE Zr_sv 04Jan2005               
   VRHFIN =Zr: 4s4p5s4d                                                         
   LEXCH  = PE                                                                  
   EATOM  =  1284.2219 eV,   94.3876 Ry                                         
                                                                                
   TITEL  = PAW_PBE Zr_sv 04Jan2005                                             
   LULTRA =        F    use ultrasoft PP ?                                      
   IUNSCR =        1    unscreen: 0-lin 1-nonlin 2-no                           
   RPACOR =    2.200    partial core radius                                     
   POMASS =   91.224; ZVAL   =   12.000    mass and valenz                      
   RCORE  =    2.500    outmost cutoff radius                                   
   RWIGS  =    3.070; RWIGS  =    1.625    wigner-seitz radius (au A)           
   ENMAX  =  229.898; ENMIN  =  172.424 eV                                      
   ICORE  =        3    local potential                                         
   LCOR   =        T    correct aug charges                                     
   LPAW   =        T    paw PP                                                  
   EAUG   =  461.257                                                            
   DEXC   =    0.000                                                            
   RMAX   =    2.561    core radius for proj-oper                               
   RAUG   =    1.300    factor for augmentation sphere                          
   RDEP   =    2.597    radius for radial grids                                 
   RDEPT  =    2.007    core radius for aug-charge                              
                                                                                
   Atomic configuration                                                         
   11 entries                                                                   
     n  l   j            E        occ.                                          
     1  0  0.50    -17820.0161   2.0000                                         
     2  0  0.50     -2467.0882   2.0000                                         
     2  1  1.50     -2199.6095   6.0000                                         
     3  0  0.50      -402.4863   2.0000                                         
     3  1  1.50      -315.3675   6.0000                                         
     3  2  2.50      -172.4472  10.0000                                         
     4  0  0.50       -52.4146   2.0000                                         
     5  0  0.50        -3.8421   1.0000                                         
     4  1  1.50       -30.5054   6.0000                                         
     4  2  2.50        -2.3341   3.0000                                         
     4  3  2.50        -1.3606   0.0000                                         
   Description                                                                  
     l       E           TYP  RCUT    TYP  RCUT                                 
     0    -52.4145962     23  2.200                                             
     0     -3.8421270     23  2.500                                             
     1    -30.5053914     23  2.200                                             
     1     20.4087390     23  2.200                                             
     2     -2.3340816     23  2.500                                             
     2     -0.6120942     23  2.500                                             
     3     -4.0817478     23  2.500                                             
  local pseudopotential read in
  partial core-charges read in
  partial kinetic energy density read in
  atomic valenz-charges read in
  non local Contribution for L=           0  read in
    real space projection operators read in
  non local Contribution for L=           0  read in
    real space projection operators read in
  non local Contribution for L=           1  read in
    real space projection operators read in
  non local Contribution for L=           1  read in
    real space projection operators read in
  non local Contribution for L=           2  read in
    real space projection operators read in
  non local Contribution for L=           2  read in
    real space projection operators read in
    PAW grid and wavefunctions read in
 
   number of l-projection  operators is LMAX  =           6
   number of lm-projection operators is LMMAX =          18
 
 POTCAR:    PAW_PBE Ta 17Jan2003                  
   VRHFIN =Ta:  6s5d                                                            
   LEXCH  = PE                                                                  
   EATOM  =   130.6506 eV,    9.6025 Ry                                         
                                                                                
   TITEL  = PAW_PBE Ta 17Jan2003                                                
   LULTRA =        F    use ultrasoft PP ?                                      
   IUNSCR =        1    unscreen: 0-lin 1-nonlin 2-no                           
   RPACOR =    2.330    partial core radius                                     
   POMASS =  180.948; ZVAL   =    5.000    mass and valenz                      
   RCORE  =    2.900    outmost cutoff radius                                   
   RWIGS  =    2.840; RWIGS  =    1.503    wigner-seitz radius (au A)           
   ENMAX  =  223.667; ENMIN  =  167.750 eV                                      
   RCLOC  =    2.205    cutoff for local pot                                    
   LCOR   =        T    correct aug charges                                     
   LPAW   =        T    paw PP                                                  
   EAUG   =  332.075                                                            
   DEXC   =    0.000                                                            
   RMAX   =    2.970    core radius for proj-oper                               
   RAUG   =    1.300    factor for augmentation sphere                          
   RDEP   =    3.060    radius for radial grids                                 
   RDEPT  =    2.354    core radius for aug-charge                              
                                                                                
   Atomic configuration                                                         
   16 entries                                                                   
     n  l   j            E        occ.                                          
     1  0  0.50    -67341.2807   2.0000                                         
     2  0  0.50    -11566.9376   2.0000                                         
     2  1  1.50    -10134.1182   6.0000                                         
     3  0  0.50     -2648.5620   2.0000                                         
     3  1  1.50     -2222.6012   6.0000                                         
     3  2  2.50     -1726.3120  10.0000                                         
     4  0  0.50      -538.6961   2.0000                                         
     4  1  1.50      -399.0129   6.0000                                         
     4  2  2.50      -220.3959  10.0000                                         
     4  3  3.50       -23.0374  14.0000                                         
     5  0  0.50       -71.2901   2.0000                                         
     5  1  1.50       -37.8225   6.0000                                         
     5  2  2.50        -2.6455   4.0000                                         
     6  0  0.50        -4.9623   1.0000                                         
     6  1  1.50        -1.3606   0.0000                                         
     5  3  2.50        -1.3606   0.0000                                         
   Description                                                                  
     l       E           TYP  RCUT    TYP  RCUT                                 
     2     -2.6455043     23  2.500                                             
     2     -0.6258895     23  2.500                                             
     0     -4.9622780     23  2.500                                             
     0      4.7531321     23  2.500                                             
     1     -1.3605826     23  2.900                                             
     1     27.2116520     23  2.900                                             
  local pseudopotential read in
  partial core-charges read in
  partial kinetic energy density read in
  atomic valenz-charges read in
  non local Contribution for L=           2  read in
    real space projection operators read in
  non local Contribution for L=           2  read in
    real space projection operators read in
  non local Contribution for L=           0  read in
    real space projection operators read in
  non local Contribution for L=           0  read in
    real space projection operators read in
  non local Contribution for L=           1  read in
    real space projection operators read in
  non local Contribution for L=           1  read in
    real space projection operators read in
    PAW grid and wavefunctions read in
 
   number of l-projection  operators is LMAX  =           6
   number of lm-projection operators is LMMAX =          18
 
 POTCAR:    PAW_PBE Nb_sv 25May2007               
   VRHFIN =Nb: 4p5s4d                                                           
   LEXCH  = PE                                                                  
   EATOM  =  1555.1913 eV,  114.3033 Ry                                         
                                                                                
   TITEL  = PAW_PBE Nb_sv 25May2007                                             
   LULTRA =        F    use ultrasoft PP ?                                      
   IUNSCR =        1    unscreen: 0-lin 1-nonlin 2-no                           
   RPACOR =    1.800    partial core radius                                     
   POMASS =   92.910; ZVAL   =   13.000    mass and valenz                      
   RCORE  =    2.400    outmost cutoff radius                                   
   RWIGS  =    2.400; RWIGS  =    1.270    wigner-seitz radius (au A)           
   ENMAX  =  293.235; ENMIN  =  219.927 eV                                      
   ICORE  =        3    local potential                                         
   LCOR   =        T    correct aug charges                                     
   LPAW   =        T    paw PP                                                  
   EAUG   =  455.659                                                            
   DEXC   =    0.000                                                            
   RMAX   =    2.456    core radius for proj-oper                               
   RAUG   =    1.300    factor for augmentation sphere                          
   RDEP   =    2.451    radius for radial grids                                 
   RDEPT  =    1.956    core radius for aug-charge                              
                                                                                
   Atomic configuration                                                         
   11 entries                                                                   
     n  l   j            E        occ.                                          
     1  0  0.50    -18805.2457   2.0000                                         
     2  0  0.50     -2630.2869   2.0000                                         
     2  1  1.50     -2348.4046   6.0000                                         
     3  0  0.50      -438.8757   2.0000                                         
     3  1  1.50      -346.7588   6.0000                                         
     3  2  2.50      -196.2560  10.0000                                         
     4  0  0.50       -58.3859   2.0000                                         
     5  0  0.50        -3.9816   1.0000                                         
     4  1  1.50       -34.5141   6.0000                                         
     4  2  2.50        -3.0408   4.0000                                         
     4  3  2.50        -1.3606   0.0000                                         
   Description                                                                  
     l       E           TYP  RCUT    TYP  RCUT                                 
     0    -58.3859094     23  2.200                                             
     0     -3.9816262     23  2.200                                             
     1    -34.5140738     23  2.200                                             
     1     13.6058260     23  2.200                                             
     2     -3.0408010     23  2.200                                             
     2     -0.1283038     23  2.200                                             
     3     -1.3605826     23  2.400                                             
  local pseudopotential read in
  partial core-charges read in
  partial kinetic energy density read in
  atomic valenz-charges read in
  non local Contribution for L=           0  read in
    real space projection operators read in
  non local Contribution for L=           0  read in
    real space projection operators read in
  non local Contribution for L=           1  read in
    real space projection operators read in
  non local Contribution for L=           1  read in
    real space projection operators read in
  non local Contribution for L=           2  read in
    real space projection operators read in
  non local Contribution for L=           2  read in
    real space projection operators read in
    PAW grid and wavefunctions read in
 
   number of l-projection  operators is LMAX  =           6
   number of lm-projection operators is LMMAX =          18
 
 POTCAR:    PAW_PBE Hf 20Jan2003                  
   VRHFIN =Hf: 6s5d                                                             
   LEXCH  = PE                                                                  
   EATOM  =    75.9011 eV,    5.5786 Ry                                         
                                                                                
   TITEL  = PAW_PBE Hf 20Jan2003                                                
   LULTRA =        F    use ultrasoft PP ?                                      
   IUNSCR =        1    unscreen: 0-lin 1-nonlin 2-no                           
   RPACOR =    2.500    partial core radius                                     
   POMASS =  178.490; ZVAL   =    4.000    mass and valenz                      
   RCORE  =    3.000    outmost cutoff radius                                   
   RWIGS  =    3.050; RWIGS  =    1.614    wigner-seitz radius (au A)           
   ENMAX  =  220.334; ENMIN  =  165.250 eV                                      
   RCLOC  =    2.212    cutoff for local pot                                    
   LCOR   =        T    correct aug charges                                     
   LPAW   =        T    paw PP                                                  
   EAUG   =  335.116                                                            
   DEXC   =    0.000                                                            
   RMAX   =    3.077    core radius for proj-oper                               
   RAUG   =    1.300    factor for augmentation sphere                          
   RDEP   =    3.047    radius for radial grids                                 
   RDEPT  =    2.344    core radius for aug-charge                              
                                                                                
   Atomic configuration                                                         
   16 entries                                                                   
     n  l   j            E        occ.                                          
     1  0  0.50    -65259.4397   2.0000                                         
     2  0  0.50    -11157.9882   2.0000                                         
     2  1  1.50     -9795.2113   6.0000                                         
     3  0  0.50     -2541.4058   2.0000                                         
     3  1  1.50     -2134.4770   6.0000                                         
     3  2  2.50     -1653.5418  10.0000                                         
     4  0  0.50      -510.9575   2.0000                                         
     4  1  1.50      -377.5023   6.0000                                         
     4  2  2.50      -205.2085  10.0000                                         
     4  3  3.50       -15.4905  14.0000                                         
     5  0  0.50       -65.6020   2.0000                                         
     5  1  1.50       -34.2798   6.0000                                         
     5  2  2.50        -1.9877   3.0000                                         
     6  0  0.50        -4.7357   1.0000                                         
     6  1  1.50        -1.3606   0.0000                                         
     5  3  2.50        -1.3606   0.0000                                         
   Description                                                                  
     l       E           TYP  RCUT    TYP  RCUT                                 
     2     -1.9876627     23  2.500                                             
     2      0.0744703     23  2.500                                             
     0     -4.7356889     23  2.600                                             
     0      3.2364747     23  2.600                                             
     1     -1.3605826     23  3.000                                             
     1     27.2116520     23  3.000                                             
  local pseudopotential read in
  partial core-charges read in
  partial kinetic energy density read in
  atomic valenz-charges read in
  non local Contribution for L=           2  read in
    real space projection operators read in
  non local Contribution for L=           2  read in
    real space projection operators read in
  non local Contribution for L=           0  read in
    real space projection operators read in
  non local Contribution for L=           0  read in
    real space projection operators read in
  non local Contribution for L=           1  read in
    real space projection operators read in
  non local Contribution for L=           1  read in
    real space projection operators read in
    PAW grid and wavefunctions read in
 
   number of l-projection  operators is LMAX  =           6
   number of lm-projection operators is LMMAX =          18
 
 Optimization of the real space projectors (new method)

 maximal supplied QI-value         = 15.12
 optimisation between [QCUT,QGAM] = [  8.77, 17.69] = [ 21.53, 87.61] Ry 
 Optimized for a Real-space Cutoff    1.74 Angstroem

   l    n(q)    QCUT    max X(q) W(low)/X(q) W(high)/X(q)  e(spline) 
   0      9     8.768    12.107    0.28E-04    0.53E-06    0.29E-07
   0      9     8.768     9.948    0.36E-04    0.50E-05    0.64E-07
   1      9     8.768     3.563    0.14E-04    0.16E-04    0.88E-07
   1      9     8.768     4.524    0.21E-03    0.33E-03    0.19E-06
   2      8     8.768    87.261    0.19E-03    0.25E-03    0.24E-06
   2      8     8.768    70.950    0.19E-03    0.24E-03    0.24E-06
 Optimization of the real space projectors (new method)

 maximal supplied QI-value         = 12.85
 optimisation between [QCUT,QGAM] = [  8.87, 17.73] = [ 22.01, 88.06] Ry 
 Optimized for a Real-space Cutoff    1.90 Angstroem

   l    n(q)    QCUT    max X(q) W(low)/X(q) W(high)/X(q)  e(spline) 
   2      9     8.867    62.315    0.23E-03    0.62E-04    0.11E-05
   2      9     8.867    52.185    0.23E-03    0.62E-04    0.11E-05
   0     10     8.867   103.837    0.15E-04    0.23E-04    0.98E-07
   0     10     8.867    59.728    0.12E-04    0.21E-04    0.89E-07
   1     10     8.867    13.958    0.50E-04    0.22E-04    0.14E-06
   1     10     8.867     8.441    0.36E-04    0.19E-04    0.98E-07
 Optimization of the real space projectors (new method)

 maximal supplied QI-value         = 15.68
 optimisation between [QCUT,QGAM] = [  8.78, 17.72] = [ 21.60, 87.97] Ry 
 Optimized for a Real-space Cutoff    1.96 Angstroem

   l    n(q)    QCUT    max X(q) W(low)/X(q) W(high)/X(q)  e(spline) 
   0     10     8.783    10.201    0.29E-04    0.25E-05    0.69E-07
   0     10     8.783     8.174    0.45E-04    0.57E-05    0.14E-06
   1     10     8.783     3.488    0.76E-05    0.24E-04    0.95E-07
   1     10     8.783     4.917    0.78E-04    0.14E-03    0.46E-06
   2      9     8.783   153.744    0.22E-03    0.34E-04    0.15E-05
   2      9     8.783   126.342    0.22E-03    0.35E-04    0.15E-05
 Optimization of the real space projectors (new method)

 maximal supplied QI-value         = 12.47
 optimisation between [QCUT,QGAM] = [  8.86, 17.71] = [ 21.96, 87.83] Ry 
 Optimized for a Real-space Cutoff    1.90 Angstroem

   l    n(q)    QCUT    max X(q) W(low)/X(q) W(high)/X(q)  e(spline) 
   2      9     8.855    48.111    0.22E-03    0.80E-04    0.10E-05
   2      9     8.855    40.545    0.21E-03    0.76E-04    0.95E-06
   0     10     8.855   121.658    0.27E-04    0.12E-04    0.11E-06
   0     10     8.855    71.177    0.22E-04    0.11E-04    0.99E-07
   1     10     8.855    14.183    0.65E-04    0.10E-03    0.98E-07
   1     10     8.855     8.257    0.43E-04    0.73E-04    0.72E-07
  PAW_PBE Zr_sv 04Jan2005               :
 energy of atom  1       EATOM=-1284.2219
 kinetic energy error for atom=    0.0483 (will be added to EATOM!!)
  PAW_PBE Ta 17Jan2003                  :
 energy of atom  2       EATOM= -130.6506
 kinetic energy error for atom=    0.0121 (will be added to EATOM!!)
  PAW_PBE Nb_sv 25May2007               :
 energy of atom  3       EATOM=-1555.1913
 kinetic energy error for atom=    0.0655 (will be added to EATOM!!)
  PAW_PBE Hf 20Jan2003                  :
 energy of atom  4       EATOM=  -75.9011
 kinetic energy error for atom=    0.0071 (will be added to EATOM!!)
 
 
 POSCAR: generated by pypospack                  
  positions in direct lattice
  No initial velocities read in
 exchange correlation table for  LEXCH =        8
   RHO(1)=    0.500       N(1)  =     2000
   RHO(2)=  100.500       N(2)  =     4000
 


--------------------------------------------------------------------------------------------------------


 ion  position               nearest neighbor table
   1  0.018  0.005  0.005-  27 2.92  16 2.92  33 3.00   3 3.03   4 3.04  36 3.04   6 3.11  15 3.14
                            21 3.15  19 3.24  31 3.38  11 3.43  32 3.53  15 3.74
   2  0.767  0.165  0.494-  19 2.97  20 3.03  24 3.04   5 3.04  23 3.05  11 3.08  22 3.09  34 3.12
                            30 3.20   4 3.29  35 3.38   3 3.43  13 3.47  30 3.69
   3  0.748  0.163  0.832-  24 2.89  15 2.97  26 2.99   5 3.00   1 3.03  31 3.05  11 3.08  34 3.08
                             6 3.33   2 3.43   4 3.44  27 3.44  27 3.45   9 3.45
   4  0.737  0.167  0.171-  22 2.90  23 2.94  15 2.96  20 2.96  26 2.96  19 3.03   1 3.04  31 3.04
                             2 3.29  16 3.30  10 3.34  21 3.38   3 3.44
   5  0.505  0.338  0.664-   9 2.89  27 2.98   7 2.98  13 2.98   3 3.00  29 3.02   2 3.04  30 3.11
                            28 3.25  24 3.38  22 3.39  26 3.41  34 3.43
   6  0.748  0.837  0.827-  17 2.93  18 2.98  28 2.98  11 3.04  32 3.07  34 3.09   1 3.11  15 3.13
                            35 3.31   3 3.33  36 3.36   9 3.42  36 3.54
   7  0.237  0.497  0.499-  17 2.92  22 2.93  23 2.95  14 2.97  12 2.98   5 2.98  28 2.98  24 2.99
                            13 3.27  30 3.31   8 3.35  25 3.39  29 3.44  13 3.61
   8  0.265  0.504  0.169-  22 2.83  23 2.85  26 2.90  12 2.92  18 2.92  14 2.94  31 2.99  32 3.01
                            10 3.21  33 3.27   7 3.35  29 3.37
   9  0.746  0.501  0.830-  24 2.82  18 2.83  28 2.86  17 2.89   5 2.89  32 2.94  26 3.01  31 3.02
                            29 3.37  13 3.38   6 3.42   3 3.45  29 3.52  10 3.53
  10  0.731  0.494  0.177-  22 2.71  23 2.77  18 2.78  12 2.87  32 2.87  14 2.95  26 2.97  31 3.03
                             8 3.21  13 3.25   4 3.34   9 3.53
  11  0.036  0.998  0.667-  25 2.84  27 2.86  30 2.90  36 2.96  34 2.99   6 3.04  35 3.04   2 3.08
                             3 3.08   1 3.43
  12  0.505  0.666  0.342-  21 2.86  10 2.87  25 2.88  13 2.88   8 2.92  33 2.94  35 2.94   7 2.98
                            28 3.18  22 3.30  20 3.32  14 3.39  14 3.50
  13  0.762  0.505  0.497-  28 2.78  17 2.80  14 2.87  12 2.88  23 2.96   5 2.98  22 2.99  24 3.03
                            10 3.25   7 3.27  35 3.34   9 3.38   2 3.47   7 3.61
  14  0.996  0.666  0.327-  13 2.87  21 2.91  25 2.91  35 2.93   8 2.94  10 2.95  33 2.96   7 2.97
                            32 3.15  23 3.27  19 3.28  12 3.39  12 3.50
  15  0.474  0.012  0.001-  16 2.81  27 2.84  33 2.92   4 2.96  36 2.96   3 2.97   6 3.13   1 3.14
                            21 3.15  26 3.25  34 3.47   1 3.74
  16  0.258  0.169  0.176-  15 2.81  23 2.88  22 2.88  26 2.90   1 2.92  20 2.95  19 2.96  31 3.02
                            30 3.14   4 3.30
  17  0.988  0.662  0.663-  13 2.80  35 2.88   9 2.89   7 2.92   6 2.93  29 2.99  25 3.00  36 3.03
                            28 3.23
  18  0.531  0.660  0.008-  10 2.78   9 2.83  21 2.88   8 2.92  33 2.95  29 2.97   6 2.98  36 3.03
                            32 3.03
  19  0.003  0.987  0.324-  21 2.81  25 2.88  35 2.90  33 2.92  30 2.95  16 2.96   2 2.97   4 3.03
                             1 3.24  14 3.28
  20  0.496  0.991  0.336-  21 2.77  25 2.87  33 2.89  16 2.95  35 2.96   4 2.96  30 2.99   2 3.03
                            34 3.28  12 3.32
  21  0.736  0.835  0.181-  20 2.77  19 2.81  12 2.86  18 2.88  14 2.91  32 2.92   1 3.15  15 3.15
                            33 3.24  35 3.25   4 3.38
  22  0.498  0.342  0.330-  10 2.71   8 2.83  16 2.88   4 2.90   7 2.93  30 2.97  13 2.99   2 3.09
                            12 3.30   5 3.39
  23  0.998  0.345  0.313-  10 2.77   8 2.85  16 2.88   4 2.94   7 2.95  13 2.96  30 2.96   2 3.05
                            31 3.14  14 3.27
  24  0.996  0.337  0.683-   9 2.82  27 2.86   3 2.89  29 2.98   7 2.99  13 3.03   2 3.04  30 3.07
                            31 3.25   5 3.38
  25  0.243  0.830  0.492-  11 2.84  20 2.87  19 2.88  12 2.88  34 2.89  14 2.91  17 3.00  28 3.08
                            35 3.32  33 3.32   7 3.39
  26  0.489  0.331  0.999-  27 2.86   8 2.90  16 2.90  29 2.96   4 2.96  10 2.97   3 2.99   9 3.01
                            15 3.25  31 3.33   5 3.41
  27  0.249  0.173  0.833-  15 2.84  11 2.86  26 2.86  24 2.86  34 2.90   1 2.92  31 2.92   5 2.98
                             3 3.44   3 3.45  29 3.46
  28  0.518  0.657  0.655-  13 2.78   9 2.86  35 2.92  29 2.96   6 2.98   7 2.98  36 3.04  25 3.08
                            12 3.18  17 3.23   5 3.25  34 3.54
  29  0.257  0.513  0.837-  26 2.96  28 2.96  18 2.97  24 2.98  17 2.99  31 3.01   5 3.02  32 3.06
                            36 3.12   9 3.37   8 3.37   7 3.44  27 3.46   9 3.52
  30  0.231  0.172  0.485-  11 2.90  19 2.95  23 2.96  22 2.97  34 2.98  20 2.99  24 3.07   5 3.11
                            16 3.14   2 3.20   7 3.31   2 3.69
  31  0.004  0.337  0.003-  27 2.92   8 2.99  29 3.01  16 3.02   9 3.02  10 3.03   4 3.04   3 3.05
                            23 3.14  24 3.25  32 3.30  26 3.33   1 3.38
  32  0.972  0.660  0.017-  10 2.87  21 2.92   9 2.94   8 3.01  33 3.03  18 3.03  29 3.06   6 3.07
                            36 3.14  14 3.15  31 3.30   1 3.53
  33  0.266  0.825  0.165-  20 2.89  15 2.92  19 2.92  12 2.94  18 2.95  14 2.96   1 3.00  32 3.03
                            21 3.24   8 3.27  25 3.32  36 3.33
  34  0.469  0.002  0.659-  25 2.89  27 2.90  36 2.97  30 2.98  11 2.99   3 3.08  35 3.08   6 3.09
                             2 3.12  20 3.28   5 3.43  15 3.47  28 3.54
  35  0.761  0.834  0.501-  17 2.88  19 2.90  28 2.92  14 2.93  12 2.94  20 2.96  11 3.04  34 3.08
                            21 3.25   6 3.31  25 3.32  13 3.34   2 3.38
  36  0.261  0.819  0.837-  15 2.96  11 2.96  34 2.97  18 3.03  17 3.03  28 3.04   1 3.04  29 3.12
                            32 3.14  33 3.33   6 3.36   6 3.54
 
  LATTYP: Found a triclinic cell.
 ALAT       =    19.8463074493
 B/A-ratio  =     0.3467908387
 C/A-ratio  =     0.5135922351
 COS(alpha) =     0.0007227077
 COS(beta)  =     0.5115365159
 COS(gamma) =     0.6909269710
  
  Lattice vectors:
  
 A1 = (  13.7389181331, -10.1721467871, -10.0819381890)
 A2 = (   6.8824860381,  -0.0025689797,   0.0206865216)
 A3 = (   0.0034868287, -10.1928782034,   0.0249764682)


Analysis of symmetry for initial positions (statically):
=====================================================================
 Subroutine PRICEL returns:
 Original cell was already a primitive cell.
 

 Routine SETGRP: Setting up the symmetry group for a 
 triclinic supercell.


 Subroutine GETGRP returns: Found  1 space group operations
 (whereof  1 operations were pure point group operations)
 out of a pool of  2 trial point group operations.


The static configuration has the point symmetry C_1 .


Analysis of symmetry for dynamics (positions and initial velocities):
=====================================================================
 Subroutine PRICEL returns:
 Original cell was already a primitive cell.
 

 Routine SETGRP: Setting up the symmetry group for a 
 triclinic supercell.


 Subroutine GETGRP returns: Found  1 space group operations
 (whereof  1 operations were pure point group operations)
 out of a pool of  2 trial point group operations.


The dynamic configuration has the point symmetry C_1 .


 Subroutine INISYM returns: Found  1 space group operations
 (whereof  1 operations are pure point group operations),
 and found     1 'primitive' translations

 
 
 KPOINTS: k-points                                

Automatic generation of k-mesh.
Space group operators:
 irot       det(A)        alpha          n_x          n_y          n_z        tau_x        tau_y        tau_z
    1     1.000000     0.000000     1.000000     0.000000     0.000000     0.000000     0.000000     0.000000
 
 Subroutine IBZKPT returns following result:
 ===========================================
 
 Found     14 irreducible k-points:
 
 Following reciprocal coordinates:
            Coordinates               Weight
  0.000000  0.000000  0.000000      1.000000
  0.333333 -0.000000  0.000000      2.000000
  0.000000  0.333333  0.000000      2.000000
  0.333333  0.333333  0.000000      2.000000
 -0.333333  0.333333 -0.000000      2.000000
 -0.000000  0.000000  0.333333      2.000000
  0.333333  0.000000  0.333333      2.000000
 -0.333333  0.000000  0.333333      2.000000
  0.000000  0.333333  0.333333      2.000000
  0.333333  0.333333  0.333333      2.000000
 -0.333333  0.333333  0.333333      2.000000
 -0.000000 -0.333333  0.333333      2.000000
  0.333333 -0.333333  0.333333      2.000000
 -0.333333 -0.333333  0.333333      2.000000
 
 Following cartesian coordinates:
            Coordinates               Weight
  0.000000  0.000000  0.000000      1.000000
  0.241597  0.000081 -0.000703      2.000000
  0.000060  0.163132  0.000416      2.000000
  0.241656  0.163213 -0.000287      2.000000
 -0.241537  0.163051  0.001119      2.000000
 -0.000492  0.000401  0.163850      2.000000
  0.241104  0.000482  0.163147      2.000000
 -0.242089  0.000320  0.164553      2.000000
 -0.000433  0.163533  0.164265      2.000000
  0.241164  0.163614  0.163562      2.000000
 -0.242029  0.163452  0.164969      2.000000
 -0.000552 -0.162730  0.163434      2.000000
  0.241045 -0.162649  0.162731      2.000000
 -0.242149 -0.162811  0.164137      2.000000
 


--------------------------------------------------------------------------------------------------------




 Dimension of arrays:
   k-points           NKPTS =     14   k-points in BZ     NKDIM =     14   number of bands    NBANDS=    192
   number of dos      NEDOS =    301   number of ions     NIONS =     36
   non local maximal  LDIM  =      6   non local SUM 2l+1 LMDIM =     18
   total plane-waves  NPLWV = 144000
   max r-space proj   IRMAX =   6434   max aug-charges    IRDMAX=  13967
   dimension x,y,z NGX =    40 NGY =   60 NGZ =   60
   dimension x,y,z NGXF=    80 NGYF=  120 NGZF=  120
   support grid    NGXF=    80 NGYF=  120 NGZF=  120
   ions per type =               7   8  12   9
 NGX,Y,Z   is equivalent  to a cutoff of   9.66,  9.79,  9.83 a.u.
 NGXF,Y,Z  is equivalent  to a cutoff of  19.32, 19.57, 19.66 a.u.


 I would recommend the setting:
   dimension x,y,z NGX =    39 NGY =   58 NGZ =   57
 SYSTEM =  automatically generated by mexm         
 POSCAR =  generated by pypospack                  

 Startparameter for this run:
   NWRITE =      2    write-flag & timer
   PREC   = accura    normal or accurate (medium, high low for compatibility)
   ISTART =      0    job   : 0-new  1-cont  2-samecut
   ICHARG =      2    charge: 1-file 2-atom 10-const
   ISPIN  =      1    spin polarized calculation?
   LNONCOLLINEAR =      F non collinear calculations
   LSORBIT =      F    spin-orbit coupling
   INIWAV =      1    electr: 0-lowe 1-rand  2-diag
   LASPH  =      F    aspherical Exc in radial PAW
   METAGGA=      F    non-selfconsistent MetaGGA calc.

 Electronic Relaxation 1
   ENCUT  =  300.0 eV  22.05 Ry    4.70 a.u.   9.72 14.40 14.33*2*pi/ulx,y,z
   ENINI  =  300.0     initial cutoff
   ENAUG  =  461.3 eV  augmentation charge cutoff
   NELM   =     70;   NELMIN=  2; NELMDL= -5     # of ELM steps 
   EDIFF  = 0.1E-04   stopping-criterion for ELM
   LREAL  =      T    real-space projection
   NLSPLINE    = F    spline interpolate recip. space projectors
   LCOMPAT=      F    compatible to vasp.4.4
   GGA_COMPAT  = T    GGA compatible to vasp.4.4-vasp.4.6
   LMAXPAW     = -100 max onsite density
   LMAXMIX     =    2 max onsite mixed and CHGCAR
   VOSKOWN=      0    Vosko Wilk Nusair interpolation
   ROPT   =   -0.00025  -0.00025  -0.00025  -0.00025
 Ionic relaxation
   EDIFFG = -.1E-01   stopping-criterion for IOM
   NSW    =    300    number of steps for IOM
   NBLOCK =      1;   KBLOCK =    300    inner block; outer block 
   IBRION =      2    ionic relax: 0-MD 1-quasi-New 2-CG
   NFREE  =      1    steps in history (QN), initial steepest desc. (CG)
   ISIF   =      3    stress and relaxation
   IWAVPR =     11    prediction:  0-non 1-charg 2-wave 3-comb
   ISYM   =      1    0-nonsym 1-usesym 2-fastsym
   LCORR  =      T    Harris-Foulkes like correction to forces

   POTIM  = 0.1500    time-step for ionic-motion
   TEIN   =    0.0    initial temperature
   TEBEG  =    0.0;   TEEND  =   0.0 temperature during run
   SMASS  =  -3.00    Nose mass-parameter (am)
   estimated Nose-frequenzy (Omega)   =  0.10E-29 period in steps =****** mass=  -0.108E-26a.u.
   SCALEE = 1.0000    scale energy and forces
   NPACO  =    256;   APACO  = 16.0  distance and # of slots for P.C.
   PSTRESS=    0.0 pullay stress

  Mass of Ions in am
   POMASS =  91.22180.95 92.91178.49
  Ionic Valenz
   ZVAL   =  12.00  5.00 13.00  4.00
  Atomic Wigner-Seitz radii
   RWIGS  =  -1.00 -1.00 -1.00 -1.00
  virtual crystal weights 
   VCA    =   1.00  1.00  1.00  1.00
   NELECT =     316.0000    total number of electrons
   NUPDOWN=      -1.0000    fix difference up-down

 DOS related values:
   EMIN   =  10.00;   EMAX   =-10.00  energy-range for DOS
   EFERMI =   0.00
   ISMEAR =     1;   SIGMA  =   0.15  broadening in eV -4-tet -1-fermi 0-gaus

 Electronic relaxation 2 (details)
   IALGO  =     68    algorithm
   LDIAG  =      T    sub-space diagonalisation (order eigenvalues)
   LSUBROT=      F    optimize rotation matrix (better conditioning)
   TURBO    =      0    0=normal 1=particle mesh
   IRESTART =      0    0=no restart 2=restart with 2 vectors
   NREBOOT  =      0    no. of reboots
   NMIN     =      0    reboot dimension
   EREF     =   0.00    reference energy to select bands
   IMIX   =      4    mixing-type and parameters
     AMIX     =   0.40;   BMIX     =  1.00
     AMIX_MAG =   1.60;   BMIX_MAG =  1.00
     AMIN     =   0.10
     WC   =   100.;   INIMIX=   1;  MIXPRE=   1;  MAXMIX= -45

 Intra band minimization:
   WEIMIN = 0.0010     energy-eigenvalue tresh-hold
   EBREAK =  0.13E-07  absolut break condition
   DEPER  =   0.30     relativ break condition  

   TIME   =   0.40     timestep for ELM

  volume/ion in A,a.u.               =      19.78       133.45
  Fermi-wavevector in a.u.,A,eV,Ry     =   1.248804  2.359898 21.218453  1.559512
  Thomas-Fermi vector in A             =   2.382874
 
 Write flags
   LWAVE  =      F    write WAVECAR
   LCHARG =      F    write CHGCAR
   LVTOT  =      F    write LOCPOT, total local potential
   LVHAR  =      F    write LOCPOT, Hartree potential only
   LELF   =      F    write electronic localiz. function (ELF)
   LORBIT =      0    0 simple, 1 ext, 2 COOP (PROOUT)


 Dipole corrections
   LMONO  =      F    monopole corrections only (constant potential shift)
   LDIPOL =      F    correct potential (dipole corrections)
   IDIPOL =      0    1-x, 2-y, 3-z, 4-all directions 
   EPSILON=  1.0000000 bulk dielectric constant

 Exchange correlation treatment:
   GGA     =    --    GGA type
   LEXCH   =     8    internal setting for exchange type
   VOSKOWN=      0    Vosko Wilk Nusair interpolation
   LHFCALC =     F    Hartree Fock is set to
   LHFONE  =     F    Hartree Fock one center treatment
   AEXX    =    0.0000 exact exchange contribution

 Linear response parameters
   LEPSILON=     F    determine dielectric tensor
   LRPA    =     F    only Hartree local field effects (RPA)
   LNABLA  =     F    use nabla operator in PAW spheres
   LVEL    =     F    velocity operator in full k-point grid
   LINTERFAST=   F  fast interpolation
   KINTER  =     0    interpolate to denser k-point grid
   CSHIFT  =0.1000    complex shift for real part using Kramers Kronig
   OMEGAMAX=  -1.0    maximum frequency
   DEG_THRESHOLD= 0.2000000E-02 threshold for treating states as degnerate
   RTIME   =    0.100 relaxation time in fs

 Orbital magnetization related:
   ORBITALMAG=     F  switch on orbital magnetization
   LCHIMAG   =     F  perturbation theory with respect to B field
   DQ        =  0.001000  dq finite difference perturbation B field



--------------------------------------------------------------------------------------------------------


 conjugate gradient relaxation of ions
 charge density and potential will be updated during run
 non-spin polarized calculation
 RMM-DIIS sequential band-by-band and
  variant of blocked Davidson during initial phase
 perform sub-space diagonalisation
    before iterative eigenvector-optimisation
 modified Broyden-mixing scheme, WC =      100.0
 initial mixing is a Kerker type mixing with AMIX =  0.4000 and BMIX =      1.0000
 Hartree-type preconditioning will be used
 using additional bands           34
 real space projection scheme for non local part
 use partial core corrections
 calculate Harris-corrections to forces 
   (improved forces if not selfconsistent)
 use gradient corrections 
 use of overlap-Matrix (Vanderbilt PP)
 Methfessel and Paxton  Order N= 1 SIGMA  =   0.15


--------------------------------------------------------------------------------------------------------


  energy-cutoff  :      300.00
  volume of cell :      711.92
      direct lattice vectors                 reciprocal lattice vectors
     6.882486038 -0.002568980  0.020686522     0.145297624  0.000048668 -0.000422825
    -0.003486829 10.192878203 -0.024976468     0.000035869  0.098108341  0.000249987
     0.029540772 -0.025869376 10.148287700    -0.000296090  0.000241360  0.098540268

  length of vectors
     6.882517606 10.192909401 10.148363668     0.145298248  0.098108666  0.098541009


 
 k-points in units of 2pi/SCALE and weight: k-points                                
   0.00000000  0.00000000  0.00000000       0.037
   0.24159653  0.00008092 -0.00070306       0.074
   0.00005964  0.16313161  0.00041567       0.074
   0.24165617  0.16321253 -0.00028739       0.074
  -0.24153689  0.16305068  0.00111873       0.074
  -0.00049233  0.00040133  0.16384980       0.074
   0.24110420  0.00048225  0.16314674       0.074
  -0.24208886  0.00032040  0.16455286       0.074
  -0.00043269  0.16353293  0.16426547       0.074
   0.24116384  0.16361386  0.16356241       0.074
  -0.24202922  0.16345201  0.16496853       0.074
  -0.00055197 -0.16273028  0.16343413       0.074
   0.24104456 -0.16264936  0.16273107       0.074
  -0.24214850 -0.16281120  0.16413719       0.074
 
 k-points in reciprocal lattice and weights: k-points                                
   0.00000000  0.00000000  0.00000000       0.037
   0.33333333 -0.00000000  0.00000000       0.074
   0.00000000  0.33333333  0.00000000       0.074
   0.33333333  0.33333333  0.00000000       0.074
  -0.33333333  0.33333333 -0.00000000       0.074
  -0.00000000  0.00000000  0.33333333       0.074
   0.33333333  0.00000000  0.33333333       0.074
  -0.33333333  0.00000000  0.33333333       0.074
   0.00000000  0.33333333  0.33333333       0.074
   0.33333333  0.33333333  0.33333333       0.074
  -0.33333333  0.33333333  0.33333333       0.074
  -0.00000000 -0.33333333  0.33333333       0.074
   0.33333333 -0.33333333  0.33333333       0.074
  -0.33333333 -0.33333333  0.33333333       0.074
 
 position of ions in fractional coordinates (direct lattice) 
   0.01807600  0.00532000  0.00513600
   0.76705800  0.16472800  0.49410500
   0.74800800  0.16286500  0.83220400
   0.73666800  0.16711600  0.17074100
   0.50513500  0.33791500  0.66358200
   0.74818300  0.83666300  0.82661800
   0.23739100  0.49710300  0.49889500
   0.26508700  0.50384400  0.16917900
   0.74550300  0.50117800  0.82994400
   0.73095500  0.49434300  0.17722500
   0.03551100  0.99804800  0.66734000
   0.50468000  0.66572000  0.34219800
   0.76178700  0.50548000  0.49663500
   0.99632100  0.66552200  0.32710600
   0.47446500  0.01232400  0.00058700
   0.25754500  0.16938300  0.17580000
   0.98800200  0.66231800  0.66336700
   0.53130700  0.65957000  0.00791800
   0.00312000  0.98732300  0.32399400
   0.49623400  0.99114200  0.33614000
   0.73640100  0.83538300  0.18096800
   0.49828000  0.34209100  0.33002800
   0.99841700  0.34513700  0.31277300
   0.99578200  0.33693500  0.68340300
   0.24281300  0.82951600  0.49206700
   0.48871900  0.33089200  0.99942600
   0.24868200  0.17334300  0.83291400
   0.51828700  0.65661400  0.65520700
   0.25675900  0.51256300  0.83707000
   0.23134500  0.17232300  0.48481800
   0.00433500  0.33721900  0.00342800
   0.97175400  0.66025900  0.01714000
   0.26602100  0.82510400  0.16545300
   0.46907000  0.00228000  0.65861800
   0.76123500  0.83354900  0.50062000
   0.26105100  0.81889200  0.83734900
 
 position of ions in cartesian coordinates  (Angst):
   0.12454099  0.05404681  0.05236266
   5.29328784  1.66429970  5.02607313
   5.17217068  1.63661289  8.45685151
   5.07456834  1.69708359  1.74379392
   3.49500906  3.42586230  6.73623061
   5.17086068  8.50469790  8.38333770
   1.64684467  5.05339438  5.05542491
   1.82769844  5.13056297  1.70977665
   5.15368365  5.08506100  8.42541469
   5.03429926  5.03231548  1.80130426
   0.26063768 10.15562681  6.74816520
   3.48124060  6.77545392  3.46653649
   5.25589685  5.13749142  5.04312848
   6.86450777  6.77256313  3.32355382
   3.26547311  0.12438295  0.01546427
   1.77715252  1.72129082  1.78516610
   6.81719695  6.73122766  6.73593513
   3.65464711  6.72134693  0.07487131
   0.02760176 10.05527355  3.26338903
   3.42179747 10.09261914  3.39675556
   5.07070270  8.50838384  1.83088399
   3.43796161  3.47707421  3.35098255
   6.87962718  3.50728325  3.18614386
   6.87246913  3.41410006  6.94755408
   1.68280074  8.44180231  4.97794206
   3.39197175  3.34563182 10.14430797
   1.73555090  1.74467826  8.45346577
   3.58416886  6.67450526  6.64355080
   1.79008071  5.20217814  8.48733662
   1.60594977  1.74333109  4.92055425
   0.02876102  3.43713238  0.02645547
   6.68628746  6.72699975  0.17755292
   1.83289643  8.40522101  1.66395951
   3.24781586  0.00499669  6.69349143
   5.25107152  8.48135711  5.07536398
   1.81856046  8.32453409  8.48260576
 


--------------------------------------------------------------------------------------------------------


 k-point  1 :   0.0000 0.0000 0.0000  plane waves:    8449
 k-point  2 :   0.3333-0.0000 0.0000  plane waves:    8395
 k-point  3 :   0.0000 0.3333 0.0000  plane waves:    8391
 k-point  4 :   0.3333 0.3333 0.0000  plane waves:    8406
 k-point  5 :  -0.3333 0.3333-0.0000  plane waves:    8400
 k-point  6 :  -0.0000 0.0000 0.3333  plane waves:    8402
 k-point  7 :   0.3333 0.0000 0.3333  plane waves:    8396
 k-point  8 :  -0.3333 0.0000 0.3333  plane waves:    8391
 k-point  9 :   0.0000 0.3333 0.3333  plane waves:    8387
 k-point 10 :   0.3333 0.3333 0.3333  plane waves:    8399
 k-point 11 :  -0.3333 0.3333 0.3333  plane waves:    8402
 k-point 12 :  -0.0000-0.3333 0.3333  plane waves:    8381
 k-point 13 :   0.3333-0.3333 0.3333  plane waves:    8395
 k-point 14 :  -0.3333-0.3333 0.3333  plane waves:    8395

 maximum and minimum number of plane-waves per node :      1703     1658

 maximum number of plane-waves:      8449
 maximum index in each direction: 
   IXMAX=   10   IYMAX=   14   IZMAX=   14
   IXMIN=  -10   IYMIN=  -14   IZMIN=  -14

 WARNING: aliasing errors must be expected set NGX to  42 to avoid them
 NGY is ok and might be reduce to  58
 NGZ is ok and might be reduce to  58
 aliasing errors are usually negligible using standard VASP settings
 and one can safely disregard these warnings

 real space projection operators:
  total allocation   :      28296.14 KBytes
  max/ min on nodes  :       5689.97       5626.55


 parallel 3D FFT for wavefunctions:
    minimum data exchange during FFTs selected (reduces bandwidth)
 parallel 3D FFT for charge:
    minimum data exchange during FFTs selected (reduces bandwidth)


 total amount of memory used by VASP on root node    68893. kBytes
========================================================================

   base      :      30000. kBytes
   nonlr-proj:      10855. kBytes
   fftplans  :       2814. kBytes
   grid      :       5360. kBytes
   one-center:        124. kBytes
   wavefun   :      19740. kBytes
 
     INWAV:  cpu time    0.0000: real time    0.0000
 Broyden mixing: mesh for mixing (old mesh)
   NGX = 19   NGY = 29   NGZ = 29
  (NGX  = 80   NGY  =120   NGZ  =120)
  gives a total of  15979 points

 initial charge density was supplied:
 charge density of overlapping atoms calculated
 number of electron     316.0000000 magnetization 
 keeping initial charge density in first step


--------------------------------------------------------------------------------------------------------


 Maximum index for non-local projection operator         1256
 Maximum index for augmentation-charges          688 (set IRDMAX)


--------------------------------------------------------------------------------------------------------


 First call to EWALD:  gamma=   0.199
 Maximum number of real-space cells 3x 2x 2
 Maximum number of reciprocal cells 2x 3x 3

 FEWALD executed in parallel
    FEWALD:  cpu time    0.0298: real time    0.0305


----------------------------------------- Iteration    1(   1)  ---------------------------------------


    POTLOK:  cpu time    0.0512: real time    0.0873
    SETDIJ:  cpu time    0.0737: real time    0.1079
     EDDAV:  cpu time    1.6790: real time    1.7414
       DOS:  cpu time    0.0018: real time    0.0018
    --------------------------------------------
      LOOP:  cpu time    1.8140: real time    2.2498

 eigenvalue-minimisations  :  5896
 total energy-change (2. order) : 0.2168454E+04  (-0.1217752E+05)
 number of electron     316.0000000 magnetization 
 augmentation part      316.0000000 magnetization 

 Free energy of the ion-electron system (eV)
  ---------------------------------------------------
  alpha Z        PSCENC =      1678.31185302
  Ewald energy   TEWEN  =    -22456.19349845
  -Hartree energ DENC   =     -7730.13509529
  -exchange      EXHF   =         0.00000000
  -V(xc)+E(xc)   XCENC  =        20.99983539
  PAW double counting   =     24460.18904712   -22978.50371239
  entropy T*S    EENTRO =        -0.00130837
  eigenvalues    EBANDS =      -205.09187501
  atomic energy  EATOM  =     29378.87882363
  Solvation  Ediel_sol  =         0.00000000
  ---------------------------------------------------
  free energy    TOTEN  =      2168.45406966 eV

  energy without entropy =     2168.45537803  energy(sigma->0) =     2168.45450579


--------------------------------------------------------------------------------------------------------




----------------------------------------- Iteration    1(   2)  ---------------------------------------


     EDDAV:  cpu time    1.2231: real time    1.2771
       DOS:  cpu time    0.0013: real time    0.0014
    --------------------------------------------
      LOOP:  cpu time    1.2248: real time    1.4392

 eigenvalue-minimisations  :  6248
 total energy-change (2. order) :-0.2243638E+04  (-0.2167824E+04)
 number of electron     316.0000000 magnetization 
 augmentation part      316.0000000 magnetization 

 Free energy of the ion-electron system (eV)
  ---------------------------------------------------
  alpha Z        PSCENC =      1678.31185302
  Ewald energy   TEWEN  =    -22456.19349845
  -Hartree energ DENC   =     -7730.13509529
  -exchange      EXHF   =         0.00000000
  -V(xc)+E(xc)   XCENC  =        20.99983539
  PAW double counting   =     24460.18904712   -22978.50371239
  entropy T*S    EENTRO =        -0.00162119
  eigenvalues    EBANDS =     -2448.72930349
  atomic energy  EATOM  =     29378.87882363
  Solvation  Ediel_sol  =         0.00000000
  ---------------------------------------------------
  free energy    TOTEN  =       -75.18367164 eV

  energy without entropy =      -75.18205044  energy(sigma->0) =      -75.18313124


--------------------------------------------------------------------------------------------------------




----------------------------------------- Iteration    1(   3)  ---------------------------------------


     EDDAV:  cpu time    1.6279: real time    1.7035
       DOS:  cpu time    0.0014: real time    0.0014
    --------------------------------------------
      LOOP:  cpu time    1.6296: real time    1.7368

 eigenvalue-minimisations  :  9192
 total energy-change (2. order) :-0.2698479E+03  (-0.2565945E+03)
 number of electron     316.0000000 magnetization 
 augmentation part      316.0000000 magnetization 

 Free energy of the ion-electron system (eV)
  ---------------------------------------------------
  alpha Z        PSCENC =      1678.31185302
  Ewald energy   TEWEN  =    -22456.19349845
  -Hartree energ DENC   =     -7730.13509529
  -exchange      EXHF   =         0.00000000
  -V(xc)+E(xc)   XCENC  =        20.99983539
  PAW double counting   =     24460.18904712   -22978.50371239
  entropy T*S    EENTRO =         0.01022933
  eigenvalues    EBANDS =     -2718.58905651
  atomic energy  EATOM  =     29378.87882363
  Solvation  Ediel_sol  =         0.00000000
  ---------------------------------------------------
  free energy    TOTEN  =      -345.03157413 eV

  energy without entropy =     -345.04180347  energy(sigma->0) =     -345.03498391


--------------------------------------------------------------------------------------------------------




----------------------------------------- Iteration    1(   4)  ---------------------------------------


     EDDAV:  cpu time    1.5823: real time    1.6339
       DOS:  cpu time    0.0013: real time    0.0013
    --------------------------------------------
      LOOP:  cpu time    1.5840: real time    1.6736

 eigenvalue-minimisations  :  8952
 total energy-change (2. order) :-0.2988333E+02  (-0.2858708E+02)
 number of electron     316.0000000 magnetization 
 augmentation part      316.0000000 magnetization 

 Free energy of the ion-electron system (eV)
  ---------------------------------------------------
  alpha Z        PSCENC =      1678.31185302
  Ewald energy   TEWEN  =    -22456.19349845
  -Hartree energ DENC   =     -7730.13509529
  -exchange      EXHF   =         0.00000000
  -V(xc)+E(xc)   XCENC  =        20.99983539
  PAW double counting   =     24460.18904712   -22978.50371239
  entropy T*S    EENTRO =         0.00731289
  eigenvalues    EBANDS =     -2748.46947420
  atomic energy  EATOM  =     29378.87882363
  Solvation  Ediel_sol  =         0.00000000
  ---------------------------------------------------
  free energy    TOTEN  =      -374.91490827 eV

  energy without entropy =     -374.92222116  energy(sigma->0) =     -374.91734590


--------------------------------------------------------------------------------------------------------




----------------------------------------- Iteration    1(   5)  ---------------------------------------


     EDDAV:  cpu time    1.5060: real time    1.6066
       DOS:  cpu time    0.0013: real time    0.0013
    CHARGE:  cpu time    0.0349: real time    0.0357
    MIXING:  cpu time    0.0013: real time    0.0014
    --------------------------------------------
      LOOP:  cpu time    1.5442: real time    1.6799

 eigenvalue-minimisations  :  8864
 total energy-change (2. order) :-0.2985157E+01  (-0.2944432E+01)
 number of electron     316.0000005 magnetization 
 augmentation part       20.1964246 magnetization 

 Broyden mixing:
  rms(total) = 0.63505E+01    rms(broyden)= 0.63501E+01
  rms(prec ) = 0.66193E+01
  weight for this iteration     100.00

 Free energy of the ion-electron system (eV)
  ---------------------------------------------------
  alpha Z        PSCENC =      1678.31185302
  Ewald energy   TEWEN  =    -22456.19349845
  -Hartree energ DENC   =     -7730.13509529
  -exchange      EXHF   =         0.00000000
  -V(xc)+E(xc)   XCENC  =        20.99983539
  PAW double counting   =     24460.18904712   -22978.50371239
  entropy T*S    EENTRO =         0.00827123
  eigenvalues    EBANDS =     -2751.45558967
  atomic energy  EATOM  =     29378.87882363
  Solvation  Ediel_sol  =         0.00000000
  ---------------------------------------------------
  free energy    TOTEN  =      -377.90006540 eV

  energy without entropy =     -377.90833663  energy(sigma->0) =     -377.90282247


--------------------------------------------------------------------------------------------------------




----------------------------------------- Iteration    1(   6)  ---------------------------------------


    POTLOK:  cpu time    0.0298: real time    0.0308
    SETDIJ:  cpu time    0.0036: real time    0.0037
    EDDIAG:  cpu time    0.0932: real time    0.0961
  RMM-DIIS:  cpu time    0.7892: real time    0.8225
    ORTHCH:  cpu time    0.0139: real time    0.0143
       DOS:  cpu time    0.0024: real time    0.0025
    CHARGE:  cpu time    0.0323: real time    0.0330
    MIXING:  cpu time    0.0015: real time    0.0024
    --------------------------------------------
      LOOP:  cpu time    0.9664: real time    1.0490

 eigenvalue-minimisations  :  7282
 total energy-change (2. order) : 0.1051474E+02  (-0.2500970E+01)
 number of electron     316.0000005 magnetization 
 augmentation part       21.0317325 magnetization 

 Broyden mixing:
  rms(total) = 0.29663E+01    rms(broyden)= 0.29663E+01
  rms(prec ) = 0.32289E+01
  weight for this iteration     100.00

 eigenvalues of (default mixing * dielectric matrix)
  average eigenvalue GAMMA=   1.7858
  1.7858

 Free energy of the ion-electron system (eV)
  ---------------------------------------------------
  alpha Z        PSCENC =      1678.31185302
  Ewald energy   TEWEN  =    -22456.19349845
  -Hartree energ DENC   =     -7518.31259852
  -exchange      EXHF   =         0.00000000
  -V(xc)+E(xc)   XCENC  =        14.97112944
  PAW double counting   =     29929.95654474   -28454.36582517
  entropy T*S    EENTRO =         0.00307528
  eigenvalues    EBANDS =     -2940.63482674
  atomic energy  EATOM  =     29378.87882363
  Solvation  Ediel_sol  =         0.00000000
  ---------------------------------------------------
  free energy    TOTEN  =      -367.38532276 eV

  energy without entropy =     -367.38839805  energy(sigma->0) =     -367.38634786


--------------------------------------------------------------------------------------------------------




----------------------------------------- Iteration    1(   7)  ---------------------------------------


    POTLOK:  cpu time    0.0435: real time    0.0448
    SETDIJ:  cpu time    0.0046: real time    0.0047
    EDDIAG:  cpu time    0.1277: real time    0.1312
  RMM-DIIS:  cpu time    0.7194: real time    0.8804
    ORTHCH:  cpu time    0.0137: real time    0.0143
       DOS:  cpu time    0.0018: real time    0.0019
    CHARGE:  cpu time    0.0324: real time    0.0332
    MIXING:  cpu time    0.0013: real time    0.0014
    --------------------------------------------
      LOOP:  cpu time    0.9453: real time    1.1757

 eigenvalue-minimisations  :  7605
 total energy-change (2. order) :-0.6516840E+00  (-0.2266397E+01)
 number of electron     316.0000005 magnetization 
 augmentation part       21.4203001 magnetization 

 Broyden mixing:
  rms(total) = 0.10975E+01    rms(broyden)= 0.10973E+01
  rms(prec ) = 0.29377E+01
  weight for this iteration     100.00

 eigenvalues of (default mixing * dielectric matrix)
  average eigenvalue GAMMA=   1.1953
  1.8271  0.5635

 Free energy of the ion-electron system (eV)
  ---------------------------------------------------
  alpha Z        PSCENC =      1678.31185302
  Ewald energy   TEWEN  =    -22456.19349845
  -Hartree energ DENC   =     -7478.36469407
  -exchange      EXHF   =         0.00000000
  -V(xc)+E(xc)   XCENC  =        15.69178194
  PAW double counting   =     35151.06415334   -33664.97273468
  entropy T*S    EENTRO =         0.00120006
  eigenvalues    EBANDS =     -2992.45389161
  atomic energy  EATOM  =     29378.87882363
  Solvation  Ediel_sol  =         0.00000000
  ---------------------------------------------------
  free energy    TOTEN  =      -368.03700681 eV

  energy without entropy =     -368.03820687  energy(sigma->0) =     -368.03740683


--------------------------------------------------------------------------------------------------------




----------------------------------------- Iteration    1(   8)  ---------------------------------------


    POTLOK:  cpu time    0.0290: real time    0.0299
    SETDIJ:  cpu time    0.0037: real time    0.0038
    EDDIAG:  cpu time    0.0890: real time    0.0909
  RMM-DIIS:  cpu time    0.8834: real time    0.9110
    ORTHCH:  cpu time    0.0135: real time    0.0140
       DOS:  cpu time    0.0031: real time    0.0031
    CHARGE:  cpu time    0.0329: real time    0.0335
    MIXING:  cpu time    0.0012: real time    0.0013
    --------------------------------------------
      LOOP:  cpu time    1.0563: real time    1.1407

 eigenvalue-minimisations  :  8061
 total energy-change (2. order) : 0.4579049E+01  (-0.5239505E+00)
 number of electron     316.0000005 magnetization 
 augmentation part       21.2820146 magnetization 

 Broyden mixing:
  rms(total) = 0.46062E+00    rms(broyden)= 0.46021E+00
  rms(prec ) = 0.75536E+00
  weight for this iteration     100.00

 eigenvalues of (default mixing * dielectric matrix)
  average eigenvalue GAMMA=   1.1313
  1.8153  1.1775  0.4010

 Free energy of the ion-electron system (eV)
  ---------------------------------------------------
  alpha Z        PSCENC =      1678.31185302
  Ewald energy   TEWEN  =    -22456.19349845
  -Hartree energ DENC   =     -7433.14466184
  -exchange      EXHF   =         0.00000000
  -V(xc)+E(xc)   XCENC  =        15.16487010
  PAW double counting   =     36010.85565175   -34522.23036501
  entropy T*S    EENTRO =         0.00346600
  eigenvalues    EBANDS =     -3035.10409726
  atomic energy  EATOM  =     29378.87882363
  Solvation  Ediel_sol  =         0.00000000
  ---------------------------------------------------
  free energy    TOTEN  =      -363.45795805 eV

  energy without entropy =     -363.46142406  energy(sigma->0) =     -363.45911339


--------------------------------------------------------------------------------------------------------




----------------------------------------- Iteration    1(   9)  ---------------------------------------


    POTLOK:  cpu time    0.0282: real time    0.0291
    SETDIJ:  cpu time    0.0036: real time    0.0037
    EDDIAG:  cpu time    0.1030: real time    0.1058
  RMM-DIIS:  cpu time    0.8887: real time    0.9129
    ORTHCH:  cpu time    0.0138: real time    0.0140
       DOS:  cpu time    0.0025: real time    0.0025
    CHARGE:  cpu time    0.0321: real time    0.0322
    MIXING:  cpu time    0.0014: real time    0.0014
    --------------------------------------------
      LOOP:  cpu time    1.0738: real time    1.1331

 eigenvalue-minimisations  :  8056
 total energy-change (2. order) : 0.2087158E+00  (-0.1920864E+00)
 number of electron     316.0000005 magnetization 
 augmentation part       21.1612122 magnetization 

 Broyden mixing:
  rms(total) = 0.31612E+00    rms(broyden)= 0.31600E+00
  rms(prec ) = 0.42293E+00
  weight for this iteration     100.00

 eigenvalues of (default mixing * dielectric matrix)
  average eigenvalue GAMMA=   1.1643
  1.9006  1.9006  0.4956  0.3604

 Free energy of the ion-electron system (eV)
  ---------------------------------------------------
  alpha Z        PSCENC =      1678.31185302
  Ewald energy   TEWEN  =    -22456.19349845
  -Hartree energ DENC   =     -7434.21541019
  -exchange      EXHF   =         0.00000000
  -V(xc)+E(xc)   XCENC  =        15.48727401
  PAW double counting   =     36220.61519500   -34727.32477035
  entropy T*S    EENTRO =         0.01101728
  eigenvalues    EBANDS =     -3038.81972626
  atomic energy  EATOM  =     29378.87882363
  Solvation  Ediel_sol  =         0.00000000
  ---------------------------------------------------
  free energy    TOTEN  =      -363.24924230 eV

  energy without entropy =     -363.26025958  energy(sigma->0) =     -363.25291473


--------------------------------------------------------------------------------------------------------




----------------------------------------- Iteration    1(  10)  ---------------------------------------


    POTLOK:  cpu time    0.0306: real time    0.0314
    SETDIJ:  cpu time    0.0038: real time    0.0039
    EDDIAG:  cpu time    0.1051: real time    0.1082
  RMM-DIIS:  cpu time    0.8940: real time    0.9338
    ORTHCH:  cpu time    0.0136: real time    0.0140
       DOS:  cpu time    0.0039: real time    0.0040
    CHARGE:  cpu time    0.0345: real time    0.0352
    MIXING:  cpu time    0.0014: real time    0.0014
    --------------------------------------------
      LOOP:  cpu time    1.0875: real time    1.1691

 eigenvalue-minimisations  :  7973
 total energy-change (2. order) : 0.6668851E-01  (-0.4264214E-01)
 number of electron     316.0000005 magnetization 
 augmentation part       21.0427117 magnetization 

 Broyden mixing:
  rms(total) = 0.12490E+00    rms(broyden)= 0.12480E+00
  rms(prec ) = 0.22288E+00
  weight for this iteration     100.00

 eigenvalues of (default mixing * dielectric matrix)
  average eigenvalue GAMMA=   1.1208
  2.1398  1.8408  0.7750  0.4929  0.3557

 Free energy of the ion-electron system (eV)
  ---------------------------------------------------
  alpha Z        PSCENC =      1678.31185302
  Ewald energy   TEWEN  =    -22456.19349845
  -Hartree energ DENC   =     -7453.26657004
  -exchange      EXHF   =         0.00000000
  -V(xc)+E(xc)   XCENC  =        16.82019380
  PAW double counting   =     36498.96970468   -34995.86381195
  entropy T*S    EENTRO =         0.01073839
  eigenvalues    EBANDS =     -3030.84998687
  atomic energy  EATOM  =     29378.87882363
  Solvation  Ediel_sol  =         0.00000000
  ---------------------------------------------------
  free energy    TOTEN  =      -363.18255378 eV

  energy without entropy =     -363.19329217  energy(sigma->0) =     -363.18613325


--------------------------------------------------------------------------------------------------------




----------------------------------------- Iteration    1(  11)  ---------------------------------------


    POTLOK:  cpu time    0.0283: real time    0.0292
    SETDIJ:  cpu time    0.0410: real time    0.0416
    EDDIAG:  cpu time    0.1336: real time    0.1373
  RMM-DIIS:  cpu time    0.8265: real time    0.8708
    ORTHCH:  cpu time    0.0137: real time    0.0141
       DOS:  cpu time    0.0026: real time    0.0027
    CHARGE:  cpu time    0.0377: real time    0.0385
    MIXING:  cpu time    0.0014: real time    0.0014
    --------------------------------------------
      LOOP:  cpu time    1.0854: real time    1.1778

 eigenvalue-minimisations  :  7964
 total energy-change (2. order) : 0.2545927E-01  (-0.1226031E-01)
 number of electron     316.0000004 magnetization 
 augmentation part       21.0094832 magnetization 

 Broyden mixing:
  rms(total) = 0.60441E-01    rms(broyden)= 0.60383E-01
  rms(prec ) = 0.11896E+00
  weight for this iteration     100.00

 eigenvalues of (default mixing * dielectric matrix)
  average eigenvalue GAMMA=   1.0832
  2.2124  1.7482  1.1892  0.3551  0.5203  0.4738

 Free energy of the ion-electron system (eV)
  ---------------------------------------------------
  alpha Z        PSCENC =      1678.31185302
  Ewald energy   TEWEN  =    -22456.19349845
  -Hartree energ DENC   =     -7459.22482046
  -exchange      EXHF   =         0.00000000
  -V(xc)+E(xc)   XCENC  =        17.24906332
  PAW double counting   =     36656.08033568   -35149.42680683
  entropy T*S    EENTRO =         0.00986147
  eigenvalues    EBANDS =     -3028.84190591
  atomic energy  EATOM  =     29378.87882363
  Solvation  Ediel_sol  =         0.00000000
  ---------------------------------------------------
  free energy    TOTEN  =      -363.15709452 eV

  energy without entropy =     -363.16695599  energy(sigma->0) =     -363.16038167


--------------------------------------------------------------------------------------------------------




----------------------------------------- Iteration    1(  12)  ---------------------------------------


    POTLOK:  cpu time    0.0287: real time    0.0295
    SETDIJ:  cpu time    0.0037: real time    0.0038
    EDDIAG:  cpu time    0.1295: real time    0.1322
  RMM-DIIS:  cpu time    0.8685: real time    0.8764
    ORTHCH:  cpu time    0.0137: real time    0.0137
       DOS:  cpu time    0.0029: real time    0.0029
    CHARGE:  cpu time    0.0327: real time    0.0328
    MIXING:  cpu time    0.0015: real time    0.0015
    --------------------------------------------
      LOOP:  cpu time    1.0818: real time    1.1255

 eigenvalue-minimisations  :  8127
 total energy-change (2. order) : 0.2850750E-02  (-0.3854854E-02)
 number of electron     316.0000005 magnetization 
 augmentation part       21.0060519 magnetization 

 Broyden mixing:
  rms(total) = 0.38767E-01    rms(broyden)= 0.38745E-01
  rms(prec ) = 0.72887E-01
  weight for this iteration     100.00

 eigenvalues of (default mixing * dielectric matrix)
  average eigenvalue GAMMA=   1.0452
  2.2442  1.7574  1.4245  0.6210  0.5019  0.3480  0.4195

 Free energy of the ion-electron system (eV)
  ---------------------------------------------------
  alpha Z        PSCENC =      1678.31185302
  Ewald energy   TEWEN  =    -22456.19349845
  -Hartree energ DENC   =     -7460.70074079
  -exchange      EXHF   =         0.00000000
  -V(xc)+E(xc)   XCENC  =        17.33802047
  PAW double counting   =     36746.68037117   -35238.72847314
  entropy T*S    EENTRO =         0.01022276
  eigenvalues    EBANDS =     -3028.75082246
  atomic energy  EATOM  =     29378.87882363
  Solvation  Ediel_sol  =         0.00000000
  ---------------------------------------------------
  free energy    TOTEN  =      -363.15424377 eV

  energy without entropy =     -363.16446653  energy(sigma->0) =     -363.15765135


--------------------------------------------------------------------------------------------------------




----------------------------------------- Iteration    1(  13)  ---------------------------------------


    POTLOK:  cpu time    0.0285: real time    0.0295
    SETDIJ:  cpu time    0.0036: real time    0.0037
    EDDIAG:  cpu time    0.1172: real time    0.1200
  RMM-DIIS:  cpu time    0.9415: real time    0.9489
    ORTHCH:  cpu time    0.0133: real time    0.0148
       DOS:  cpu time    0.0024: real time    0.0025
    CHARGE:  cpu time    0.0335: real time    0.0336
    MIXING:  cpu time    0.0016: real time    0.0016
    --------------------------------------------
      LOOP:  cpu time    1.1421: real time    1.1872

 eigenvalue-minimisations  :  8195
 total energy-change (2. order) : 0.1863622E-02  (-0.1198705E-02)
 number of electron     316.0000004 magnetization 
 augmentation part       21.0054796 magnetization 

 Broyden mixing:
  rms(total) = 0.23981E-01    rms(broyden)= 0.23971E-01
  rms(prec ) = 0.32896E-01
  weight for this iteration     100.00

 eigenvalues of (default mixing * dielectric matrix)
  average eigenvalue GAMMA=   1.0688
  2.3548  1.9711  1.5582  0.9414  0.5122  0.5122  0.3531  0.3475

 Free energy of the ion-electron system (eV)
  ---------------------------------------------------
  alpha Z        PSCENC =      1678.31185302
  Ewald energy   TEWEN  =    -22456.19349845
  -Hartree energ DENC   =     -7460.39163054
  -exchange      EXHF   =         0.00000000
  -V(xc)+E(xc)   XCENC  =        17.32765411
  PAW double counting   =     36797.78806443   -35289.14713226
  entropy T*S    EENTRO =         0.01052385
  eigenvalues    EBANDS =     -3029.73703795
  atomic energy  EATOM  =     29378.87882363
  Solvation  Ediel_sol  =         0.00000000
  ---------------------------------------------------
  free energy    TOTEN  =      -363.15238015 eV

  energy without entropy =     -363.16290400  energy(sigma->0) =     -363.15588810


--------------------------------------------------------------------------------------------------------




----------------------------------------- Iteration    1(  14)  ---------------------------------------


    POTLOK:  cpu time    0.0283: real time    0.0293
    SETDIJ:  cpu time    0.0036: real time    0.0037
    EDDIAG:  cpu time    0.0927: real time    0.0969
  RMM-DIIS:  cpu time    0.9057: real time    0.9784
    ORTHCH:  cpu time    0.0154: real time    0.0269
       DOS:  cpu time    0.0009: real time    0.0015
    CHARGE:  cpu time    0.0354: real time    0.0637
    MIXING:  cpu time    0.0015: real time    0.0026
    --------------------------------------------
      LOOP:  cpu time    1.0842: real time    1.2622

 eigenvalue-minimisations  :  8294
 total energy-change (2. order) :-0.1229727E-03  (-0.5197859E-03)
 number of electron     316.0000004 magnetization 
 augmentation part       21.0055106 magnetization 

 Broyden mixing:
  rms(total) = 0.13268E-01    rms(broyden)= 0.13265E-01
  rms(prec ) = 0.18695E-01
  weight for this iteration     100.00

 eigenvalues of (default mixing * dielectric matrix)
  average eigenvalue GAMMA=   1.0817
  2.6182  2.1119  1.4525  1.2729  0.5631  0.5631  0.4586  0.3595  0.3358

 Free energy of the ion-electron system (eV)
  ---------------------------------------------------
  alpha Z        PSCENC =      1678.31185302
  Ewald energy   TEWEN  =    -22456.19349845
  -Hartree energ DENC   =     -7460.60535367
  -exchange      EXHF   =         0.00000000
  -V(xc)+E(xc)   XCENC  =        17.33458202
  PAW double counting   =     36836.47347458   -35327.13693229
  entropy T*S    EENTRO =         0.01036614
  eigenvalues    EBANDS =     -3030.22581811
  atomic energy  EATOM  =     29378.87882363
  Solvation  Ediel_sol  =         0.00000000
  ---------------------------------------------------
  free energy    TOTEN  =      -363.15250312 eV

  energy without entropy =     -363.16286926  energy(sigma->0) =     -363.15595850


--------------------------------------------------------------------------------------------------------




----------------------------------------- Iteration    1(  15)  ---------------------------------------


    POTLOK:  cpu time    0.0433: real time    0.0493
    SETDIJ:  cpu time    0.0060: real time    0.0061
    EDDIAG:  cpu time    0.1122: real time    0.1139
  RMM-DIIS:  cpu time    0.8726: real time    0.8972
    ORTHCH:  cpu time    0.0139: real time    0.0139
       DOS:  cpu time    0.0014: real time    0.0014
    CHARGE:  cpu time    0.0334: real time    0.0339
    MIXING:  cpu time    0.0020: real time    0.0020
    --------------------------------------------
      LOOP:  cpu time    1.0854: real time    1.1519

 eigenvalue-minimisations  :  8140
 total energy-change (2. order) :-0.5376783E-04  (-0.2108752E-03)
 number of electron     316.0000004 magnetization 
 augmentation part       21.0048620 magnetization 

 Broyden mixing:
  rms(total) = 0.55269E-02    rms(broyden)= 0.55236E-02
  rms(prec ) = 0.10075E-01
  weight for this iteration     100.00

 eigenvalues of (default mixing * dielectric matrix)
  average eigenvalue GAMMA=   1.0562
  2.5952  2.1584  1.5395  1.3188  0.7162  0.6263  0.4596  0.4596  0.3535  0.3352

 Free energy of the ion-electron system (eV)
  ---------------------------------------------------
  alpha Z        PSCENC =      1678.31185302
  Ewald energy   TEWEN  =    -22456.19349845
  -Hartree energ DENC   =     -7461.41141668
  -exchange      EXHF   =         0.00000000
  -V(xc)+E(xc)   XCENC  =        17.36553968
  PAW double counting   =     36857.88170629   -35348.03423992
  entropy T*S    EENTRO =         0.01050719
  eigenvalues    EBANDS =     -3029.96183165
  atomic energy  EATOM  =     29378.87882363
  Solvation  Ediel_sol  =         0.00000000
  ---------------------------------------------------
  free energy    TOTEN  =      -363.15255689 eV

  energy without entropy =     -363.16306408  energy(sigma->0) =     -363.15605928


--------------------------------------------------------------------------------------------------------




----------------------------------------- Iteration    1(  16)  ---------------------------------------


    POTLOK:  cpu time    0.0292: real time    0.0312
    SETDIJ:  cpu time    0.0538: real time    0.0546
    EDDIAG:  cpu time    0.0938: real time    0.0975
  RMM-DIIS:  cpu time    0.7272: real time    0.7609
    ORTHCH:  cpu time    0.0158: real time    0.0163
       DOS:  cpu time    0.0013: real time    0.0014
    CHARGE:  cpu time    0.0395: real time    0.0409
    MIXING:  cpu time    0.0020: real time    0.0021
    --------------------------------------------
      LOOP:  cpu time    0.9633: real time    1.0376

 eigenvalue-minimisations  :  6847
 total energy-change (2. order) :-0.2582088E-04  (-0.8771607E-04)
 number of electron     316.0000004 magnetization 
 augmentation part       21.0045384 magnetization 

 Broyden mixing:
  rms(total) = 0.29213E-02    rms(broyden)= 0.29196E-02
  rms(prec ) = 0.67552E-02
  weight for this iteration     100.00

 eigenvalues of (default mixing * dielectric matrix)
  average eigenvalue GAMMA=   1.0301
  2.5942  2.1801  1.5910  1.3520  0.8807  0.6169  0.5035  0.5035  0.4200  0.3568
  0.3327

 Free energy of the ion-electron system (eV)
  ---------------------------------------------------
  alpha Z        PSCENC =      1678.31185302
  Ewald energy   TEWEN  =    -22456.19349845
  -Hartree energ DENC   =     -7461.46115184
  -exchange      EXHF   =         0.00000000
  -V(xc)+E(xc)   XCENC  =        17.36679722
  PAW double counting   =     36865.75351216   -35355.76748272
  entropy T*S    EENTRO =         0.01042449
[...]
    114       6.0954      2.00000
    115       6.1441      2.00000
    116       6.1987      2.00000
    117       6.2782      2.00000
    118       6.4287      2.00000
    119       6.4362      2.00000
    120       6.5142      2.00000
    121       6.5512      2.00000
    122       6.5710      2.00000
    123       6.5996      2.00000
    124       6.6466      2.00000
    125       6.6556      2.00000
    126       6.7048      2.00000
    127       6.7635      2.00000
    128       6.7859      2.00000
    129       6.8058      2.00000
    130       6.8395      2.00000
    131       6.8743      2.00000
    132       6.9022      2.00000
    133       6.9226      2.00000
    134       6.9622      2.00000
    135       7.0175      2.00000
    136       7.0465      2.00000
    137       7.1230      2.00000
    138       7.1449      2.00000
    139       7.2075      2.00000
    140       7.2541      2.00000
    141       7.2800      2.00000
    142       7.3058      2.00000
    143       7.3577      2.00000
    144       7.3720      2.00000
    145       7.4403      2.00002
    146       7.4543      2.00003
    147       7.4994      2.00019
    148       7.5438      2.00090
    149       7.5712      2.00214
    150       7.5936      2.00408
    151       7.6306      2.01058
    152       7.6657      2.02260
    153       7.6843      2.03170
    154       7.7201      2.05305
    155       7.7666      2.07089
    156       7.8049      2.04083
    157       7.8368      1.95057
    158       7.8642      1.80696
    159       7.8857      1.64724
    160       7.9542      0.94011
    161       7.9751      0.70861
    162       8.0127      0.34690
    163       8.0644      0.03593
    164       8.0945     -0.04357
    165       8.1299     -0.07081
    166       8.1637     -0.06105
    167       8.2035     -0.03731
    168       8.2590     -0.01279
    169       8.2893     -0.00610
    170       8.3284     -0.00202
    171       8.3552     -0.00087
    172       8.3821     -0.00034
    173       8.4273     -0.00006
    174       8.4799     -0.00001
    175       8.5441     -0.00000
    176       8.5942     -0.00000
    177       8.6878     -0.00000
    178       8.7305     -0.00000
    179       8.8320     -0.00000
    180       8.8740     -0.00000
    181       9.0227     -0.00000
    182       9.1597     -0.00000
    183       9.2751     -0.00000
    184       9.7843     -0.00000
    185       9.8169     -0.00000
    186       9.8835     -0.00000
    187       9.9478     -0.00000
    188      10.0222     -0.00000
    189      10.0871     -0.00000
    190      10.1805     -0.00000
    191      10.1923     -0.00000
    192      10.2596     -0.00000


--------------------------------------------------------------------------------------------------------


 soft charge-density along one line, spin component           1
         0         1         2         3         4         5         6         7         8         9
 total charge-density along one line
 
 pseudopotential strength for first ion, spin component:           1
 13.370 -26.087  -0.000  -0.000  -0.000   0.000  -0.001  -0.003
-26.087  13.828   0.000   0.002   0.005   0.000  -0.000   0.000
 -0.000   0.000  -6.410  -0.001   0.002   5.092   0.001  -0.002
 -0.000   0.002  -0.001  -6.409  -0.001   0.001   5.090   0.000
 -0.000   0.005   0.002  -0.001  -6.410  -0.002   0.000   5.093
  0.000   0.000   5.092   0.001  -0.002   8.368  -0.000   0.001
 -0.001  -0.000   0.001   5.090   0.000  -0.000   8.369  -0.000
 -0.003   0.000  -0.002   0.000   5.093   0.001  -0.000   8.368
  0.002   0.001   0.001   0.000  -0.000  -0.001  -0.000   0.000
 -0.001  -0.000   0.001   0.000   0.000  -0.001  -0.000  -0.000
  0.001   0.001  -0.000   0.000  -0.001  -0.000  -0.000   0.001
 -0.001   0.000   0.000   0.002   0.001  -0.000  -0.002  -0.001
 -0.000  -0.000  -0.000  -0.000   0.002   0.000  -0.000  -0.002
  0.003   0.001   0.002   0.000  -0.001  -0.002  -0.000   0.001
 -0.001  -0.000   0.001   0.000   0.000  -0.001  -0.000  -0.000
  0.001   0.001  -0.000   0.000  -0.001  -0.000  -0.001   0.001
 -0.001   0.000   0.000   0.003   0.001  -0.000  -0.002  -0.001
 -0.000  -0.000  -0.001  -0.000   0.003   0.001  -0.000  -0.003
 total augmentation occupancy for first ion, spin component:           1
  1.999  -0.023  -0.000  -0.000  -0.001  -0.000   0.000  -0.001  -0.006   0.005   0.001   0.007  -0.000   0.004  -0.004  -0.001
 -0.023   1.461  -0.003  -0.002  -0.014   0.007   0.003   0.020  -0.046   0.019   0.007   0.049   0.006   0.023  -0.008  -0.002
 -0.000  -0.003   2.003  -0.001   0.001  -0.024   0.001  -0.002   0.002   0.003  -0.000  -0.008   0.003  -0.007  -0.000   0.000
 -0.000  -0.002  -0.001   2.003  -0.000   0.001  -0.025   0.001  -0.009   0.005   0.007   0.004  -0.000   0.005  -0.005  -0.007
 -0.001  -0.014   0.001  -0.000   2.003  -0.002   0.001  -0.024   0.008  -0.008   0.011  -0.002  -0.015  -0.007   0.005  -0.002
 -0.000   0.007  -0.024   0.001  -0.002   0.041  -0.002   0.001   0.030  -0.010  -0.005   0.006  -0.010  -0.016   0.003   0.004
  0.000   0.003   0.001  -0.025   0.001  -0.002   0.042  -0.001   0.007   0.012   0.010   0.012   0.003  -0.004  -0.006  -0.003
 -0.001   0.020  -0.002   0.001  -0.024   0.001  -0.001   0.041   0.011   0.006  -0.036   0.003   0.040  -0.006  -0.003   0.019
 -0.006  -0.046   0.002  -0.009   0.008   0.030   0.007   0.011   4.065  -0.040   0.288   0.013   0.030  -2.122   0.019  -0.137
  0.005   0.019   0.003   0.005  -0.008  -0.010   0.012   0.006  -0.040   3.983   0.027   0.244  -0.063   0.019  -2.064  -0.017
  0.001   0.007  -0.000   0.007   0.011  -0.005   0.010  -0.036   0.288   0.027   4.441   0.081  -0.029  -0.136  -0.017  -2.384
  0.007   0.049  -0.008   0.004  -0.002   0.006   0.012   0.003   0.013   0.244   0.081   4.084   0.137  -0.000  -0.118  -0.041
 -0.000   0.006   0.003  -0.000  -0.015  -0.010   0.003   0.040   0.030  -0.063  -0.029   0.137   4.395  -0.013   0.034   0.021
  0.004   0.023  -0.007   0.005  -0.007  -0.016  -0.004  -0.006  -2.122   0.019  -0.136  -0.000  -0.013   1.122  -0.009   0.064
 -0.004  -0.008  -0.000  -0.005   0.005   0.003  -0.006  -0.003   0.019  -2.064  -0.017  -0.118   0.034  -0.009   1.084   0.010
 -0.001  -0.002   0.000  -0.007  -0.002   0.004  -0.003   0.019  -0.137  -0.017  -2.384  -0.041   0.021   0.064   0.010   1.290
 -0.005  -0.025   0.005  -0.005   0.001  -0.003  -0.009  -0.003  -0.000  -0.118  -0.040  -2.137  -0.070  -0.002   0.057   0.021
  0.000  -0.010  -0.001  -0.000   0.005   0.006  -0.001  -0.023  -0.013   0.035   0.022  -0.071  -2.359   0.005  -0.019  -0.015


------------------------ aborting loop because EDIFF is reached ----------------------------------------


    CHARGE:  cpu time    0.0369: real time    0.0378
    FORLOC:  cpu time    0.0133: real time    0.0135
    FORNL :  cpu time    0.3324: real time    0.3523
    STRESS:  cpu time    1.0375: real time    1.0721
    FORCOR:  cpu time    0.0426: real time    0.0442
    FORHAR:  cpu time    0.0183: real time    0.0187
    MIXING:  cpu time    0.0013: real time    0.0013
    OFIELD:  cpu time    0.0000: real time    0.0000

  FORCE on cell =-STRESS in cart. coord.  units (eV):
  Direction    XX          YY          ZZ          XY          YZ          ZX
  --------------------------------------------------------------------------------------
  Alpha Z  1667.62727  1667.62727  1667.62727
  Ewald   -6622.98872 -8483.74428 -7221.84764   237.04815   -52.68099  -269.91423
  Hartree  3284.79675  1519.19391  2753.71551   222.02990   -71.93473  -237.30871
  E(xc)   -1391.02187 -1391.51302 -1391.67785    -0.43530     0.60749     0.35338
  Local   -2378.31389  1244.54680 -1250.68829  -458.87983   123.00893   508.62209
  n-local  -298.88846  -297.89320  -299.93950     1.89191    -4.04023    -1.00142
  augment   274.33452   274.52424   274.42269    -0.38953     0.69759     0.13385
  Kinetic  5464.49941  5467.31933  5468.41032    -1.28559     4.34771    -0.91509
  Fock        0.00000     0.00000     0.00000     0.00000     0.00000     0.00000
  -------------------------------------------------------------------------------------
  Total       0.04502     0.06105     0.02250    -0.02030     0.00577    -0.03014
  in kB       0.10066     0.13653     0.05032    -0.04539     0.01291    -0.06739
  external pressure =        0.10 kB  Pullay stress =        0.00 kB


 VOLUME and BASIS-vectors are now :
 -----------------------------------------------------------------------------
  energy-cutoff  :      300.00
  volume of cell :      716.48
      direct lattice vectors                 reciprocal lattice vectors
     6.893443060  0.005594298  0.004733706     0.145065548 -0.000123072 -0.000085178
     0.008651091 10.212398934 -0.022087387    -0.000079618  0.097920731  0.000221112
     0.005956413 -0.022976634 10.177489969    -0.000067645  0.000212567  0.098256573

  length of vectors
     6.893446955 10.212426484 10.177517648     0.145065625  0.097921013  0.098256826


 FORCES acting on ions
    electron-ion (+dipol)            ewald-force                    non-local-force                 convergence-correction
 -----------------------------------------------------------------------------------------------
   -.629E+02 0.298E+03 0.186E+03   0.642E+02 -.297E+03 -.185E+03   -.125E+01 -.307E+00 -.177E+00   -.945E-03 -.149E-01 0.999E-04
   0.199E+02 0.124E+03 -.219E+03   -.192E+02 -.124E+03 0.219E+03   -.701E+00 0.230E+00 0.405E+00   -.399E-02 -.220E-01 -.560E-02
   0.796E+01 0.122E+03 0.585E+02   -.801E+01 -.121E+03 -.584E+02   0.570E-01 -.181E+00 -.133E+00   -.507E-02 -.338E-01 0.128E-01
   -.469E+02 -.386E+02 0.162E+03   0.462E+02 0.389E+02 -.161E+03   0.723E+00 -.287E+00 -.308E+00   -.263E-04 -.191E-01 -.792E-02
   0.187E+02 -.187E+03 -.286E+02   -.184E+02 0.188E+03 0.289E+02   -.287E+00 -.470E+00 -.315E+00   -.416E-02 -.161E-01 0.740E-03
   0.637E+02 0.116E+03 0.111E+03   -.636E+02 -.116E+03 -.112E+03   -.954E-01 0.357E-01 0.632E+00   -.441E-02 0.174E-01 0.144E-01
   -.772E+02 -.259E+03 -.513E+02   0.764E+02 0.258E+03 0.509E+02   0.774E+00 0.178E+00 0.453E+00   0.436E-02 0.226E-01 -.258E-01
   0.616E+02 -.147E+03 0.654E+02   -.610E+02 0.147E+03 -.649E+02   -.602E+00 -.246E-01 -.558E+00   0.602E-04 0.780E-02 0.349E-02
   -.198E+02 -.966E+02 -.296E+02   0.199E+02 0.966E+02 0.296E+02   -.567E-01 0.766E-01 -.309E-01   -.302E-02 0.559E-02 0.791E-02
   -.597E+02 -.121E+03 0.395E+02   0.590E+02 0.121E+03 -.389E+02   0.691E+00 0.123E+00 -.650E+00   -.449E-03 0.858E-02 0.177E-02
   -.102E+02 0.868E+02 -.168E+02   0.111E+02 -.869E+02 0.170E+02   -.916E+00 0.974E-01 -.141E+00   0.193E-02 -.672E-02 0.255E-02
   -.137E+02 0.137E+02 -.221E+02   0.142E+02 -.139E+02 0.222E+02   -.412E+00 0.246E+00 -.719E-01   -.244E-02 0.862E-02 -.544E-02
   0.449E+02 -.127E+03 -.778E+01   -.446E+02 0.127E+03 0.713E+01   -.372E+00 -.386E+00 0.671E+00   -.865E-03 0.724E-02 -.106E-01
   0.818E+01 0.194E+02 0.450E+02   -.854E+01 -.196E+02 -.455E+02   0.352E+00 0.196E+00 0.516E+00   0.206E-02 0.813E-02 -.470E-02
   0.129E+02 0.146E+03 0.880E+02   -.137E+02 -.145E+03 -.880E+02   0.741E+00 -.424E+00 0.712E-01   0.222E-03 -.660E-02 -.190E-03
   0.462E+02 -.175E+01 0.114E+03   -.455E+02 0.143E+01 -.114E+03   -.673E+00 0.335E+00 -.614E+00   -.109E-02 -.180E-01 -.781E-02
   0.104E+02 -.928E+02 -.140E+03   -.118E+02 0.921E+02 0.140E+03   0.134E+01 0.637E+00 -.562E-01   0.726E-02 0.385E-01 -.102E-01
   0.147E+03 0.789E+01 0.129E+03   -.145E+03 -.864E+01 -.129E+03   -.119E+01 0.728E+00 -.302E+00   0.326E-02 0.280E-01 0.231E-01
   -.405E+02 0.242E+03 -.138E+03   0.409E+02 -.243E+03 0.138E+03   -.344E+00 0.555E+00 0.290E+00   0.212E-02 -.269E-01 -.118E-01
   0.415E+02 0.245E+03 -.196E+03   -.419E+02 -.246E+03 0.196E+03   0.360E+00 0.631E+00 0.998E-01   -.542E-02 -.258E-01 -.752E-02
   -.306E+02 0.344E+03 0.857E+02   0.300E+02 -.344E+03 -.843E+02   0.581E+00 0.273E+00 -.137E+01   0.614E-03 -.503E-02 -.335E-02
   -.147E+02 -.303E+03 -.906E+02   0.146E+02 0.304E+03 0.900E+02   0.689E-01 -.853E+00 0.616E+00   -.502E-02 0.669E-02 -.156E-01
   0.179E+02 -.316E+03 0.402E+02   -.178E+02 0.317E+03 -.411E+02   -.739E-01 -.841E+00 0.924E+00   0.301E-02 0.533E-02 -.166E-01
   -.171E+02 -.176E+03 -.756E+02   0.169E+02 0.176E+03 0.765E+02   0.249E+00 -.403E+00 -.885E+00   0.581E-02 -.204E-01 0.113E-02
   -.872E+02 0.185E+03 -.224E+03   0.866E+02 -.184E+03 0.223E+03   0.629E+00 -.507E+00 0.933E+00   0.224E-02 0.113E-02 -.127E-01
   -.851E+01 -.342E+03 0.112E+03   0.812E+01 0.342E+03 -.112E+03   0.393E+00 -.132E+00 -.409E-01   -.204E-02 -.150E-01 0.118E-01
   -.326E+01 0.144E+03 0.112E+03   0.330E+01 -.144E+03 -.112E+03   -.434E-01 0.146E+00 0.663E-01   0.434E-02 -.357E-01 0.136E-01
   0.905E+01 -.325E+02 -.249E+02   -.832E+01 0.322E+02 0.247E+02   -.721E+00 0.309E+00 0.234E+00   -.210E-02 0.979E-02 -.264E-02
   0.160E+02 -.985E+02 -.315E+02   -.160E+02 0.982E+02 0.314E+02   -.380E-01 0.246E+00 0.911E-01   0.197E-02 0.430E-02 0.515E-02
   -.133E+02 0.339E+02 -.832E+02   0.129E+02 -.340E+02 0.828E+02   0.438E+00 0.149E+00 0.342E+00   0.129E-02 -.692E-02 -.207E-02
   0.862E+01 -.132E+03 0.257E+02   -.832E+01 0.132E+03 -.257E+02   -.301E+00 -.316E+00 -.320E-01   0.103E-02 -.392E-02 0.486E-02
   -.680E+02 0.340E+02 0.219E+02   0.673E+02 -.345E+02 -.215E+02   0.723E+00 0.521E+00 -.485E+00   -.105E-02 0.853E-02 0.717E-02
   0.206E+02 0.111E+03 0.597E+02   -.200E+02 -.111E+03 -.591E+02   -.598E+00 -.286E-01 -.539E+00   0.119E-03 -.311E-05 0.772E-03
   -.246E+01 0.827E+02 -.198E+02   0.129E+01 -.828E+02 0.198E+02   0.117E+01 0.913E-01 -.152E-01   -.595E-03 -.494E-02 0.225E-02
   0.381E+02 0.632E+02 -.682E+02   -.376E+02 -.634E+02 0.677E+02   -.563E+00 0.238E+00 0.528E+00   -.357E-03 0.938E-03 -.387E-02
   -.170E+02 0.516E+02 0.125E+02   0.169E+02 -.514E+02 -.123E+02   0.172E-01 -.194E+00 -.173E+00   0.976E-03 0.633E-02 0.318E-02
 -----------------------------------------------------------------------------------------------
   -.743E-01 -.604E+00 0.617E-01   -.604E-13 -.853E-13 -.146E-12   0.749E-01 0.687E+00 -.251E-01   -.360E-03 -.864E-01 -.376E-01
 
 
 POSITION                                       TOTAL-FORCE (eV/Angst)
 -----------------------------------------------------------------------------------
      0.13173      0.07891      0.07622         0.001036     -0.000723     -0.001275
      5.28912      1.68503      5.03695        -0.000496      0.001129     -0.000201
      5.16565      1.66010      8.47317         0.001641     -0.000490      0.001899
      5.07796      1.70222      1.74744         0.002189      0.002514     -0.000695
      3.49466      3.43952      6.75326         0.001516      0.002668      0.001694
      5.21032      8.58278      8.41958         0.005416     -0.001178      0.000017
      1.59667      5.05319      5.04708         0.001530      0.004033      0.005082
      1.83874      5.14913      1.71722         0.002758     -0.000947      0.000856
      5.16290      5.04190      8.49614        -0.004266      0.000614     -0.002149
      5.04237      5.04527      1.80223        -0.001615      0.001569      0.002817
      0.26070     -0.00566      6.77607         0.003669      0.003947     -0.003874
      3.48318      6.78985      3.47234         0.000170      0.000872     -0.003881
      5.30799      5.10820      4.98938        -0.004135     -0.001898      0.001706
      6.87379      6.78736      3.29205        -0.002508      0.000344     -0.000987
      3.27546      0.12522     -0.00000         0.001467     -0.003948     -0.001761
      1.80824      1.71743      1.79356         0.001943     -0.000251     -0.002208
      6.74953      6.73650      6.74814        -0.003829     -0.006116     -0.000389
      3.65435      6.73227      0.06503        -0.003208      0.002067      0.000985
      0.04896     10.10118      3.26426         0.000781     -0.000011      0.002316
      3.43379     10.11785      3.37894         0.000709     -0.003348     -0.002420
      5.07619      8.52377      1.82180         0.000497     -0.000358      0.000209
      3.44336      3.49646      3.37008         0.000576      0.001347      0.000523
      0.01080      3.49219      3.17404        -0.000570      0.001583     -0.000031
      6.87316      3.40896      6.95649        -0.001446     -0.000288      0.001245
      1.64909      8.49563      4.94064         0.002478     -0.001777      0.002349
      3.38959      3.36070     10.16305        -0.000783      0.002723      0.000822
      1.73275      1.75553      8.46339         0.002516      0.000230     -0.001063
      3.58086      6.75274      6.64452         0.001054      0.000559      0.001790
      1.73383      5.20038      8.52779        -0.002708      0.001689     -0.004285
      1.62545      1.74719      4.94105         0.003418     -0.001195      0.001692
      0.04615      3.42605      0.04718        -0.001198      0.003610      0.000472
      6.68261      6.73828      0.17340        -0.001846     -0.000338     -0.002067
      1.84107      8.41234      1.66474        -0.002728     -0.001584     -0.000019
      3.23653     -0.02690      6.72664        -0.000849     -0.001812      0.004891
      5.30743      8.55179      5.04394         0.000976     -0.001496      0.000232
      1.74255      8.35773      8.53934        -0.004155     -0.003742     -0.004292
 -----------------------------------------------------------------------------------
    total drift:                                0.000195     -0.003311     -0.001030


--------------------------------------------------------------------------------------------------------



  FREE ENERGIE OF THE ION-ELECTRON SYSTEM (eV)
  ---------------------------------------------------
  free  energy   TOTEN  =      -363.30820132 eV

  energy  without entropy=     -363.32108423  energy(sigma->0) =     -363.31249562
 
 d Force = 0.7228376E-04[ 0.467E-04, 0.979E-04]  d Energy = 0.1227525E-03-0.505E-04
 d Force = 0.3143391E+00[ 0.313E+00, 0.315E+00]  d Ewald  =-0.1788676E+01 0.210E+01


--------------------------------------------------------------------------------------------------------


    POTLOK:  cpu time    0.0434: real time    0.0447


--------------------------------------------------------------------------------------------------------


 Conjugate gradient step on ions:
 trial-energy change:   -0.000123  1 .order   -0.000096   -0.000137   -0.000056
  (g-gl).g = 0.299E-04      g.g   = 0.338E-04  gl.gl    = 0.475E-04
 g(Force)  = 0.152E-04   g(Stress)= 0.186E-04 ortho     = 0.547E-05
 gamma     =   0.62864
 trial     =   3.67907
 opt step  =   6.21066  (harmonic =   6.21066) maximal distance =0.00147105
 next E    =  -363.308194   (d E  =  -0.00012)


--------------------------------------------------------------------------------------------------------


  
 reached required accuracy - stopping structural energy minimisation
     LOOP+:  cpu time    6.9069: real time    7.8731
    4ORBIT:  cpu time    0.0000: real time    0.0000

 total amount of memory used by VASP on root node    68893. kBytes
========================================================================

   base      :      30000. kBytes
   nonlr-proj:      10855. kBytes
   fftplans  :       2814. kBytes
   grid      :       5360. kBytes
   one-center:        124. kBytes
   wavefun   :      19740. kBytes
 
  
  
 General timing and accounting informations for this job:
 ========================================================
  
                  Total CPU time used (sec):      309.285
                            User time (sec):      307.327
                          System time (sec):        1.958
                         Elapsed time (sec):      352.744
  
                   Maximum memory used (kb):      298468.
                   Average memory used (kb):           0.
  
                          Minor page faults:       144550
                          Major page faults:           43
                 Voluntary context switches:        10599
