AuPt                                    
           1
     9.826911    0.000108   -0.000247
     0.000108    9.828923    0.000050
    -0.000247    0.000050    9.828604
   Pt   Au
  16  16
Direct configuration=     1
   0.25000000  0.25000000  0.00000000
   0.00000000  0.25000000  0.25000000
   0.00000000  0.00000000  0.50000000
   0.25000000  0.00000000  0.75000000
   0.25000000  0.75000000  0.00000000
   0.00000000  0.75000000  0.25000000
   0.25000000  0.75000000  0.50000000
   0.25000000  0.50000000  0.75000000
   0.00000000  0.75000000  0.75000000
   0.50000000  0.00000000  0.00000000
   0.50000000  0.00000000  0.50000000
   0.75000000  0.25000000  0.50000000
   0.75000000  0.00000000  0.75000000
   0.50000000  0.50000000  0.00000000
   0.75000000  0.75000000  0.00000000
   0.75000000  0.75000000  0.50000000
   0.00000000  0.00000000  0.00000000
   0.25000000  0.00000000  0.25000000
   0.25000000  0.25000000  0.50000000
   0.00000000  0.25000000  0.75000000
   0.00000000  0.50000000  0.00000000
   0.25000000  0.50000000  0.25000000
   0.00000000  0.50000000  0.50000000
   0.75000000  0.25000000  0.00000000
   0.75000000  0.00000000  0.25000000
   0.50000000  0.25000000  0.25000000
   0.50000000  0.25000000  0.75000000
   0.75000000  0.50000000  0.25000000
   0.50000000  0.75000000  0.25000000
   0.50000000  0.50000000  0.50000000
   0.75000000  0.50000000  0.75000000
   0.50000000  0.75000000  0.75000000
AuPt                                    
           1
     8.792767    0.000320   -0.000733
     0.000320    8.798742    0.000149
    -0.000733    0.000149    8.797796
   Pt   Au
  16  16
Direct configuration=     2
   0.24988715  0.25000054  0.00009965
   0.00001041  0.25008592  0.24989843
   0.00011705  0.00025030  0.49988136
   0.25000563  0.00021837  0.75000177
   0.24999574  0.75001301  0.00021865
   0.00000378  0.74991943  0.24989059
   0.25023670  0.74977226  0.49977545
   0.24999654  0.49980039  0.74978401
  -0.00012018  0.74977294  0.75013437
   0.50010079  0.00008203  0.00018852
   0.49989157  0.00009025  0.49980979
   0.74989586  0.25030897  0.50000495
   0.74999231  0.00021806  0.75023417
   0.50020359  0.49991519  0.00008744
   0.74999822  0.74989341  0.00010075
   0.74979013  0.74968649  0.49989049
  -0.00012090  0.00022498  0.00008079
   0.25012954  0.00009614  0.25002306
   0.25012181  0.25022985  0.49990477
  -0.00010597  0.25019392  0.75010632
  -0.00025570  0.49976498  0.00000039
   0.25010305  0.49989100  0.25025110
   0.00001100  0.49978280  0.50002121
   0.75011602  0.25010732 -0.00001706
   0.74986193  0.00010821  0.24975149
   0.49998499  0.25009363  0.25012328
   0.50012072  0.25021680  0.74987318
   0.74988520  0.49989136  0.25000403
   0.49999645  0.74991452  0.25011904
   0.49999366  0.49990684  0.49990871
   0.75002217  0.49979001  0.74999481
   0.50013075  0.74976006  0.74985450
AuPt                                    
           1
     6.724478    0.000744   -0.001705
     0.000744    6.738379    0.000346
    -0.001705    0.000346    6.736179
   Pt   Au
  16  16
Direct configuration=     3
   0.24965305  0.25000167  0.00030635
   0.00003201  0.25026412  0.24968775
   0.00035985  0.00076944  0.49963527
   0.25001730  0.00067131  0.75000542
   0.24998690  0.75004000  0.00067217
   0.00001161  0.74975232  0.24966367
   0.25072773  0.74929990  0.49930971
   0.24998935  0.49938637  0.74933602
  -0.00036950  0.74930200  0.75041307
   0.50030989  0.00025218  0.00057954
   0.49966660  0.00027745  0.49941524
   0.74967982  0.25094981  0.50001522
   0.74997637  0.00067035  0.75071987
   0.50062595  0.49973927  0.00026882
   0.74999454  0.74967233  0.00030972
   0.74935474  0.74903625  0.49966333
  -0.00037173  0.00069163  0.00024834
   0.25039828  0.00029556  0.25007089
   0.25037450  0.25070658  0.49970724
  -0.00032579  0.25059615  0.75032685
  -0.00078616  0.49927753  0.00000118
   0.25031684  0.49966491  0.25077193
   0.00003382  0.49933229  0.50006521
   0.75035670  0.25032991 -0.00005245
   0.74957549  0.00033265  0.24923602
   0.49995385  0.25028782  0.25037900
   0.50037114  0.25066647  0.74961015
   0.74964704  0.49966603  0.25001240
   0.49998911  0.74973722  0.25036594
   0.49998051  0.49971362  0.49971936
   0.75006818  0.49935447  0.74998405
   0.50040200  0.74926241  0.74955273
AuPt                                    
           1
     8.612024    0.000357   -0.000818
     0.000357    8.618691    0.000166
    -0.000818    0.000166    8.617636
   Pt   Au
  16  16
Direct configuration=     4
   0.24912979  0.25000420  0.00076814
   0.00008025  0.25066226  0.24921701
   0.00090252  0.00192928  0.49908546
   0.25004335  0.00168323  0.75001359
   0.24996720  0.75010029  0.00168548
   0.00002909  0.74937896  0.24915664
   0.25182526  0.74824455  0.49826916
   0.24997324  0.49846139  0.74833506
  -0.00092671  0.74824984  0.75103577
   0.50077733  0.00063229  0.00145324
   0.49916369  0.00069570  0.49853367
   0.74919688  0.25238157  0.50003810
   0.74994077  0.00168082  0.75180508
   0.50157005  0.49934621  0.00067415
   0.74998636  0.74917838  0.00077663
   0.74838157  0.74758353  0.49915573
  -0.00093238  0.00173421  0.00062268
   0.25099897  0.00074106  0.25017780
   0.25093926  0.25177168  0.49926593
  -0.00081716  0.25149479  0.75081954
  -0.00197182  0.49818851  0.00000290
   0.25079480  0.49915975  0.25193567
   0.00008486  0.49832579  0.50016354
   0.75089467  0.25082720 -0.00013149
   0.74893516  0.00083412  0.24808425
   0.49988427  0.25072168  0.25095034
   0.50093084  0.25167109  0.74902245
   0.74911472  0.49916263  0.25003105
   0.49997272  0.74934110  0.25091761
   0.49995111  0.49928193  0.49929630
   0.75017104  0.49838140  0.74996002
   0.50100829  0.74815055  0.74887850
AuPt                                    
           1
     7.846777    0.000514   -0.001177
     0.000514    7.856377    0.000239
    -0.001177    0.000239    7.854858
   Pt   Au
  16  16
Direct configuration=     5
   0.24975410  0.25000116  0.00021783
   0.00002282  0.25018780  0.24977809
   0.00025516  0.00054717  0.49974073
   0.25001235  0.00047737  0.75000389
   0.24999051  0.75002849  0.00047770
   0.00000830  0.74982385  0.24976096
   0.25051568  0.74950222  0.49950914
   0.24999258  0.49956360  0.74952809
  -0.00026200  0.74950363  0.75029364
   0.50021939  0.00017941  0.00041178
   0.49976403  0.00019721  0.49958455
   0.74977330  0.25067536  0.50001098
   0.74998312  0.00047673  0.75051165
   0.50044333  0.49981470  0.00019082
   0.74999599  0.74976701  0.00022009
   0.74954284  0.74931457  0.49976088
  -0.00026333  0.00049178  0.00017666
   0.25028218  0.00021023  0.25005027
   0.25026551  0.25050248  0.49979187
  -0.00023083  0.25042389  0.75023243
  -0.00055705  0.49948614  0.00000105
   0.25022417  0.49976181  0.25054847
   0.00002384  0.49952521  0.50004629
   0.75025277  0.25023464 -0.00003737
   0.74969956  0.00023643  0.24945722
   0.49996722  0.25020469  0.25026938
   0.50026316  0.25047395  0.74972286
   0.74974990  0.49976247  0.25000890
   0.49999213  0.74981316  0.25026005
   0.49998624  0.49979633  0.49980055
   0.75004822  0.49954098  0.74998860
   0.50028484  0.74947553  0.74968195
AuPt                                    
           1
     8.250697    0.000431   -0.000987
     0.000431    8.258749    0.000200
    -0.000987    0.000200    8.257475
   Pt   Au
  16  16
Direct configuration=     6
   0.24955644  0.25000212  0.00039225
   0.00004104  0.25033818  0.24960029
   0.00046016  0.00098527  0.49953305
   0.25002219  0.00085959  0.75000698
   0.24998307  0.75005126  0.00086045
   0.00001490  0.74968283  0.24956944
   0.25093028  0.74910359  0.49911611
   0.24998650  0.49921422  0.74915000
  -0.00047249  0.74910621  0.75052884
   0.50039597  0.00032298  0.00074180
   0.49957405  0.00035519  0.49925156
   0.74959086  0.25121617  0.50001962
   0.74996967  0.00085840  0.75092156
   0.50079997  0.49966623  0.00034393
   0.74999290  0.74958044  0.00039646
   0.74917522  0.74876585  0.49956915
  -0.00047512  0.00088558  0.00031805
   0.25050909  0.00037850  0.25009066
   0.25047885  0.25090479  0.49962518
  -0.00041644  0.25076333  0.75041853
  -0.00100494  0.49907480  0.00000169
   0.25040472  0.49957100  0.25098804
   0.00004313  0.49914503  0.50008343
   0.75045599  0.25042248 -0.00006722
   0.74945766  0.00042585  0.24902216
   0.49994094  0.25036856  0.25048519
   0.50047458  0.25085341  0.74950088
   0.74954881  0.49957232  0.25001595
   0.49998594  0.74966354  0.25046843
   0.49997514  0.49963327  0.49964074
   0.75008707  0.49917343  0.74997953
   0.50051386  0.74905556  0.74942729
AuPt                                    
           1
     8.130080    0.000456   -0.001044
     0.000456    8.138594    0.000212
    -0.001044    0.000212    8.137247
   Pt   Au
  16  16
Direct configuration=     7
   0.24967094  0.25000156  0.00029125
   0.00003049  0.25025110  0.24970325
   0.00034142  0.00073159  0.49965331
   0.25001649  0.00063827  0.75000519
   0.24998737  0.75003808  0.00063881
   0.00001108  0.74976449  0.24968034
   0.25069011  0.74933442  0.49934369
   0.24999003  0.49941653  0.74936894
  -0.00035057  0.74933633  0.75039264
   0.50029367  0.00023985  0.00055069
   0.49968412  0.00026370  0.49944440
   0.74969656  0.25090301  0.50001463
   0.74997746  0.00063739  0.75068419
   0.50059336  0.49975221  0.00025526
   0.74999468  0.74968847  0.00029432
   0.74938819  0.74908358  0.49968018
  -0.00035243  0.00065755  0.00023618
   0.25037764  0.00028107  0.25006726
   0.25035527  0.25067184  0.49972170
  -0.00030892  0.25056678  0.75031077
  -0.00074548  0.49931298  0.00000133
   0.25030011  0.49968150  0.25073348
   0.00003195  0.49936517  0.50006192
   0.75033827  0.25031372 -0.00004994
   0.74959781  0.00031616  0.24927410
   0.49995616  0.25027367  0.25036022
   0.50035211  0.25063369  0.74962942
   0.74966530  0.49968242  0.25001187
   0.49998952  0.74975018  0.25034776
   0.49998157  0.49972769  0.49973328
   0.75006456  0.49938626  0.74998478
   0.50038119  0.74929874  0.74957475
AuPt                                    
           1
     8.143777    0.000453   -0.001038
     0.000453    8.152239    0.000211
    -0.001038    0.000211    8.150900
   Pt   Au
  16  16
Direct configuration=     8
   0.24963842  0.25000172  0.00031994
   0.00003349  0.25027584  0.24967400
   0.00037514  0.00080365  0.49961915
   0.25001811  0.00070114  0.75000570
   0.24998614  0.75004182  0.00070177
   0.00001217  0.74974129  0.24964884
   0.25075831  0.74926885  0.49927904
   0.24998903  0.49935906  0.74930675
  -0.00038520  0.74927096  0.75043133
   0.50032272  0.00026347  0.00060497
   0.49965287  0.00028969  0.49938962
   0.74966654  0.25099197  0.50001605
   0.74997524  0.00070017  0.75075161
   0.50065203  0.49972779  0.00028044
   0.74999417  0.74965779  0.00032333
   0.74932770  0.74899332  0.49964864
  -0.00038727  0.00072233  0.00025944
   0.25041498  0.00030875  0.25007391
   0.25039037  0.25073801  0.49969428
  -0.00033946  0.25062261  0.75034138
  -0.00081917  0.49924532  0.00000143
   0.25032982  0.49965011  0.25080579
   0.00003512  0.49930264  0.50006803
   0.75037170  0.25034461 -0.00005485
   0.74955801  0.00034732  0.24920254
   0.49995184  0.25030063  0.25039572
   0.50038690  0.25069611  0.74959291
   0.74963222  0.49965115  0.25001303
   0.49998850  0.74972557  0.25038204
   0.49997975  0.49970087  0.49970700
   0.75007095  0.49932580  0.74998328
   0.50041887  0.74922966  0.74953286
AuPt                                    
           1
     8.142751    0.000453   -0.001038
     0.000453    8.151217    0.000211
    -0.001038    0.000211    8.149877
   Pt   Au
  16  16
Direct configuration=     9
   0.24964217  0.25000170  0.00031664
   0.00003314  0.25027299  0.24967738
   0.00037125  0.00079535  0.49962309
   0.25001792  0.00069389  0.75000564
   0.24998628  0.75004139  0.00069451
   0.00001204  0.74974396  0.24965247
   0.25075045  0.74927640  0.49928649
   0.24998914  0.49936568  0.74931392
  -0.00038120  0.74927849  0.75042687
   0.50031937  0.00026074  0.00059872
   0.49965647  0.00028670  0.49939593
   0.74967000  0.25098172  0.50001588
   0.74997550  0.00069294  0.75074384
   0.50064527  0.49973060  0.00027754
   0.74999423  0.74966132  0.00031999
   0.74933467  0.74900372  0.49965228
  -0.00038326  0.00071486  0.00025676
   0.25041067  0.00030556  0.25007314
   0.25038632  0.25073039  0.49969744
  -0.00033594  0.25061618  0.75033785
  -0.00081068  0.49925312  0.00000142
   0.25032639  0.49965373  0.25079746
   0.00003476  0.49930984  0.50006733
   0.75036785  0.25034105 -0.00005428
   0.74956259  0.00034373  0.24921079
   0.49995234  0.25029752  0.25039163
   0.50038289  0.25068891  0.74959712
   0.74963603  0.49965475  0.25001290
   0.49998862  0.74972840  0.25037809
   0.49997996  0.49970396  0.49971002
   0.75007021  0.49933277  0.74998346
   0.50041453  0.74923762  0.74953769
AuPt                                    
           1
     8.142407    0.000453   -0.001038
     0.000453    8.150874    0.000211
    -0.001038    0.000211    8.149533
   Pt   Au
  16  16
Direct configuration=    10
   0.24964189  0.25000170  0.00031688
   0.00003317  0.25027320  0.24967712
   0.00037154  0.00079597  0.49962279
   0.25001794  0.00069443  0.75000565
   0.24998627  0.75004142  0.00069506
   0.00001205  0.74974376  0.24965220
   0.25075104  0.74927584  0.49928593
   0.24998913  0.49936519  0.74931338
  -0.00038150  0.74927793  0.75042721
   0.50031962  0.00026095  0.00059918
   0.49965620  0.00028692  0.49939546
   0.74966974  0.25098249  0.50001590
   0.74997548  0.00069348  0.75074442
   0.50064578  0.49973039  0.00027776
   0.74999423  0.74966106  0.00032024
   0.74933415  0.74900294  0.49965201
  -0.00038356  0.00071542  0.00025696
   0.25041099  0.00030580  0.25007320
   0.25038662  0.25073096  0.49969721
  -0.00033620  0.25061666  0.75033812
  -0.00081131  0.49925253  0.00000142
   0.25032665  0.49965346  0.25079808
   0.00003478  0.49930930  0.50006738
   0.75036813  0.25034132 -0.00005432
   0.74956225  0.00034400  0.24921017
   0.49995230  0.25029775  0.25039193
   0.50038319  0.25068945  0.74959680
   0.74963574  0.49965448  0.25001291
   0.49998861  0.74972819  0.25037838
   0.49997994  0.49970373  0.49970980
   0.75007027  0.49933224  0.74998344
   0.50041485  0.74923703  0.74953733
AuPt                                    
           1
     8.136129    0.001984   -0.000929
     0.001986    8.156240    0.002364
    -0.000929    0.002363    8.148943
   Pt   Au
  16  16
Direct configuration=    11
   0.24964180  0.25000170  0.00031697
   0.00003317  0.25027327  0.24967704
   0.00037164  0.00079618  0.49962270
   0.25001794  0.00069462  0.75000565
   0.24998627  0.75004143  0.00069524
   0.00001205  0.74974370  0.24965211
   0.25075124  0.74927565  0.49928575
   0.24998913  0.49936502  0.74931320
  -0.00038160  0.74927774  0.75042732
   0.50031971  0.00026102  0.00059934
   0.49965611  0.00028700  0.49939530
   0.74966965  0.25098274  0.50001590
   0.74997547  0.00069366  0.75074462
   0.50064595  0.49973032  0.00027783
   0.74999422  0.74966097  0.00032033
   0.74933398  0.74900268  0.49965192
  -0.00038366  0.00071561  0.00025703
   0.25041110  0.00030588  0.25007322
   0.25038672  0.25073115  0.49969713
  -0.00033629  0.25061682  0.75033821
  -0.00081153  0.49925234  0.00000142
   0.25032674  0.49965337  0.25079829
   0.00003479  0.49930912  0.50006740
   0.75036823  0.25034141 -0.00005434
   0.74956214  0.00034409  0.24920996
   0.49995229  0.25029783  0.25039203
   0.50038329  0.25068963  0.74959669
   0.74963565  0.49965439  0.25001291
   0.49998860  0.74972812  0.25037848
   0.49997994  0.49970365  0.49970972
   0.75007029  0.49933207  0.74998344
   0.50041496  0.74923683  0.74953721
AuPt                                    
           1
     8.117472    0.006535   -0.000605
     0.006539    8.172186    0.008762
    -0.000602    0.008760    8.147190
   Pt   Au
  16  16
Direct configuration=    12
   0.24940487  0.24999590  0.00050950
   0.00002667  0.25043667  0.24944633
   0.00061203  0.00127384  0.49943131
   0.25001586  0.00109422  0.75001031
   0.24988533  0.75004602  0.00117896
   0.00001870  0.74959828  0.24939531
   0.25116657  0.74888570  0.49889602
   0.24994710  0.49892067  0.74892468
  -0.00055553  0.74897549  0.75063166
   0.50056544  0.00044765  0.00092829
   0.49939326  0.00053692  0.49901663
   0.74952545  0.25162203  0.49999614
   0.75000271  0.00109739  0.75114634
   0.50110807  0.49948468  0.00047729
   0.74996893  0.74948720  0.00051007
   0.74895149  0.74839256  0.49939817
  -0.00084314  0.00160740  0.00065840
   0.25092900  0.00071753  0.25007583
   0.25084934  0.25168762  0.49931777
  -0.00070445  0.25145252  0.75072695
  -0.00173539  0.49822587  0.00013785
   0.25066430  0.49918253  0.25176665
   0.00009154  0.49830981  0.50009127
   0.75088495  0.25074817 -0.00008798
   0.74901861  0.00086734  0.24810940
   0.49985978  0.25073163  0.25093345
   0.50074590  0.25153890  0.74918100
   0.74920877  0.49919522  0.24993609
   0.49999222  0.74936420  0.25084852
   0.49995940  0.49926912  0.49927628
   0.75020980  0.49838460  0.75003858
   0.50083243  0.74842231  0.74909294
AuPt                                    
           1
     8.122346    0.008096    0.000546
     0.008101    8.191186    0.011632
     0.000553    0.011626    8.161434
   Pt   Au
  16  16
Direct configuration=    13
   0.24870023  0.24997866  0.00108170
   0.00000724  0.25092212  0.24876054
   0.00132670  0.00269243  0.49886212
   0.25000945  0.00228094  0.75002385
   0.24958511  0.75005932  0.00261655
   0.00003858  0.74916663  0.24863224
   0.25240200  0.74772769  0.49773806
   0.24982235  0.49760137  0.74777034
  -0.00107264  0.74807779  0.75123919
   0.50129613  0.00100150  0.00190574
   0.49861142  0.00127959  0.49789104
   0.74909621  0.25352069  0.49993693
   0.75008346  0.00229606  0.75233993
   0.50248256  0.49875478  0.00107026
   0.74989379  0.74897101  0.00107412
   0.74781431  0.74658103  0.49864452
  -0.00221016  0.00425580  0.00185059
   0.25246900  0.00193975  0.25008326
   0.25222467  0.25452818  0.49818956
  -0.00179985  0.25393426  0.75188166
  -0.00448243  0.49517787  0.00054415
   0.25166846  0.49778330  0.25464492
   0.00026086  0.49534202  0.50016300
   0.75242146  0.25195589 -0.00018830
   0.74740188  0.00242245  0.24483818
   0.49958439  0.25201955  0.25254219
   0.50182388  0.25406119  0.74794489
   0.74793948  0.49783188  0.24970815
   0.50000315  0.74828308  0.25224576
   0.49989860  0.49797901  0.49798845
   0.75062524  0.49557068  0.75020318
   0.50207446  0.74600348  0.74777322
AuPt                                    
           1
     8.121838    0.007933    0.000426
     0.007939    8.189207    0.011333
     0.000433    0.011327    8.159951
   Pt   Au
  16  16
Direct configuration=    14
   0.24909858  0.25014489  0.00104977
   0.00003108  0.25077506  0.24915343
   0.00133743  0.00306180  0.49866383
   0.25012152  0.00260993  0.75007138
   0.24944437  0.74974844  0.00283445
  -0.00006318  0.74900443  0.24868422
   0.25218071  0.74777885  0.49781869
   0.24977012  0.49778557  0.74818076
  -0.00113100  0.74789096  0.75133283
   0.50110500  0.00123812  0.00153496
   0.49877807  0.00143712  0.49807491
   0.74929383  0.25307300  0.49966867
   0.74996431  0.00241386  0.75217899
   0.50223413  0.49869063  0.00117475
   0.74983455  0.74878344  0.00103757
   0.74814974  0.74639144  0.49840004
  -0.00233167  0.00466816  0.00204966
   0.25278439  0.00220704  0.25006192
   0.25235894  0.25468004  0.49825727
  -0.00174477  0.25405296  0.75185905
  -0.00487175  0.49503217  0.00090298
   0.25169535  0.49765797  0.25479944
   0.00020091  0.49496650  0.50003364
   0.75214643  0.25200947 -0.00013865
   0.74702939  0.00297180  0.24439127
   0.49951195  0.25218083  0.25255360
   0.50190082  0.25440073  0.74784144
   0.74783667  0.49768876  0.24968542
   0.50004480  0.74803930  0.25227721
   0.50015197  0.49794795  0.49785404
   0.75072429  0.49539664  0.75018378
   0.50241303  0.74527215  0.74752868
AuPt                                    
           1
     8.110765    0.009483    0.001613
     0.009488    8.193350    0.014324
     0.001624    0.014312    8.159669
   Pt   Au
  16  16
Direct configuration=    15
   0.24905711  0.25012762  0.00105310
   0.00002860  0.25079036  0.24911257
   0.00133631  0.00302340  0.49868446
   0.25010986  0.00257574  0.75006645
   0.24945902  0.74978075  0.00281178
  -0.00005259  0.74902129  0.24867880
   0.25220375  0.74777353  0.49781030
   0.24977557  0.49776644  0.74813809
  -0.00112493  0.74791038  0.75132309
   0.50112490  0.00121351  0.00157352
   0.49876073  0.00142076  0.49805580
   0.74927325  0.25311952  0.49969655
   0.74997671  0.00240161  0.75219573
   0.50225999  0.49869730  0.00116388
   0.74984071  0.74880293  0.00104136
   0.74811481  0.74641114  0.49842546
  -0.00231901  0.00462531  0.00202898
   0.25275156  0.00217927  0.25006415
   0.25234496  0.25466427  0.49825023
  -0.00175050  0.25404062  0.75186141
  -0.00483122  0.49504732  0.00086566
   0.25169255  0.49767100  0.25478337
   0.00020715  0.49500552  0.50004708
   0.75217506  0.25200390 -0.00014381
   0.74706817  0.00291469  0.24443776
   0.49951949  0.25216407  0.25255242
   0.50189281  0.25436544  0.74785221
   0.74784737  0.49770363  0.24968778
   0.50004046  0.74806464  0.25227393
   0.50012559  0.49795118  0.49786802
   0.75071398  0.49541473  0.75018579
   0.50237777  0.74534815  0.74755408
AuPt                                    
           1
     8.092410    0.012052    0.003581
     0.012056    8.200217    0.019281
     0.003599    0.019260    8.159203
   Pt   Au
  16  16
Direct configuration=    16
   0.24953568  0.25034517  0.00098935
   0.00010811  0.25058490  0.24957900
   0.00133400  0.00332874  0.49848526
   0.25023535  0.00286376  0.75013415
   0.24929162  0.74945278  0.00299576
  -0.00018685  0.74890087  0.24879565
   0.25185551  0.74793120  0.49799504
   0.24968229  0.49809046  0.74869258
  -0.00116663  0.74777589  0.75140957
   0.50082613  0.00139541  0.00100616
   0.49901205  0.00150273  0.49835556
   0.74951713  0.25245569  0.49939525
   0.74984540  0.00243689  0.75193803
   0.50188175  0.49869110  0.00126527
   0.74974555  0.74865508  0.00095960
   0.74863142  0.74632210  0.49814518
  -0.00237404  0.00498312  0.00220049
   0.25307771  0.00239429  0.25002983
   0.25245852  0.25471875  0.49846278
  -0.00160591  0.25404754  0.75179571
  -0.00516147  0.49500478  0.00131762
   0.25164100  0.49760664  0.25483401
   0.00014575  0.49471544  0.49991133
   0.75173969  0.25199709 -0.00009972
   0.74666588  0.00346037  0.24403556
   0.49943056  0.25228073  0.25248537
   0.50194171  0.25468146  0.74775599
   0.74779251  0.49760237  0.24967520
   0.50008484  0.74788235  0.25223523
   0.50044622  0.49798991  0.49778903
   0.75083288  0.49532761  0.75012835
   0.50273564  0.74457479  0.74730181
AuPt                                    
           1
     8.085944    0.012523    0.003311
     0.012513    8.206678    0.020635
     0.003322    0.020615    8.162830
   Pt   Au
  16  16
Direct configuration=    17
   0.25032999  0.25070548  0.00088343
   0.00024004  0.25024421  0.25035227
   0.00133011  0.00383474  0.49815488
   0.25044354  0.00334084  0.75024616
   0.24901381  0.74890936  0.00330098
  -0.00040969  0.74870133  0.24898945
   0.25127739  0.74819242  0.49830125
   0.24952724  0.49862699  0.74961155
  -0.00123583  0.74755302  0.75155303
   0.50033031  0.00169722  0.00006563
   0.49942911  0.00163828  0.49885235
   0.74992223  0.25135599  0.49889613
   0.74962750  0.00249555  0.75151088
   0.50125390  0.49868088  0.00143343
   0.74958766  0.74841020  0.00082417
   0.74948902  0.74617460  0.49768049
  -0.00246553  0.00557584  0.00248460
   0.25361901  0.00275043  0.24997273
   0.25264693  0.25480885  0.49881504
  -0.00136590  0.25405900  0.75168675
  -0.00570975  0.49493414  0.00206693
   0.25155546  0.49749998  0.25491802
   0.00004398  0.49423495  0.49968649
   0.75101702  0.25198593 -0.00002651
   0.74599804  0.00436481  0.24336863
   0.49928293  0.25247408  0.25237419
   0.50202280  0.25520508  0.74759628
   0.74770148  0.49743463  0.24965443
   0.50015857  0.74758034  0.25217118
   0.50097842  0.49805403  0.49765799
   0.75103029  0.49518327  0.75003316
   0.50332996  0.74329355  0.74688400
AuPt                                    
           1
     8.073020    0.013465    0.002771
     0.013426    8.219592    0.023342
     0.002767    0.023323    8.170079
   Pt   Au
  16  16
Direct configuration=    18
   0.25032301  0.25089088  0.00089391
   0.00053928  0.25014556  0.25029946
   0.00147806  0.00364602  0.49811940
   0.25043584  0.00324401  0.75031851
   0.24882124  0.74900914  0.00340664
  -0.00051449  0.74892585  0.24904499
   0.25107504  0.74839304  0.49849108
   0.24926437  0.49889959  0.74982761
  -0.00127091  0.74771433  0.75165738
   0.50007992  0.00141425 -0.00053819
   0.49954847  0.00133937  0.49904558
   0.74992631  0.25099988  0.49883995
   0.74968844  0.00230581  0.75142345
   0.50111678  0.49883154  0.00154932
   0.74941299  0.74858564  0.00075719
   0.74996320  0.74634713  0.49740254
  -0.00240415  0.00577126  0.00254274
   0.25394041  0.00265610  0.24992923
   0.25286213  0.25498837  0.49924077
  -0.00122573  0.25406402  0.75179576
  -0.00589194  0.49472788  0.00248599
   0.25138711  0.49752536  0.25509480
   0.00011067  0.49410002  0.49974731
   0.75072767  0.25198162 -0.00012442
   0.74557901  0.00443128  0.24295892
   0.49915188  0.25249685  0.25241290
   0.50212556  0.25557107  0.74736550
   0.74765314  0.49733281  0.24967082
   0.50013344  0.74775738  0.25219593
   0.50116252  0.49808138  0.49764270
   0.75123484  0.49495113  0.74988633
   0.50356590  0.74287142  0.74661590
AuPt                                    
           1
     8.060905    0.012522    0.001482
     0.012450    8.214959    0.023517
     0.001456    0.023497    8.165880
   Pt   Au
  16  16
Direct configuration=    19
   0.25030904  0.25126112  0.00091477
   0.00113783  0.24994853  0.25019401
   0.00177402  0.00326915  0.49804858
   0.25042046  0.00305062  0.75046308
   0.24843605  0.74920840  0.00361766
  -0.00072414  0.74937421  0.24915586
   0.25067028  0.74879366  0.49887022
   0.24873856  0.49944394  0.75025913
  -0.00134109  0.74803644  0.75186580
   0.49957909  0.00084938 -0.00174439
   0.49978727  0.00074237  0.49943172
   0.74993451  0.25028873  0.49872782
   0.74981036  0.00192692  0.75124885
   0.50084250  0.49913238  0.00178077
   0.74906359  0.74893604  0.00062332
   0.75091164  0.74669172  0.49684723
  -0.00228139  0.00616151  0.00265884
   0.25458330  0.00246769  0.24984237
   0.25329257  0.25534672  0.50009124
  -0.00094534  0.25407399  0.75201353
  -0.00625629  0.49431585  0.00332322
   0.25105038  0.49757601  0.25544795
   0.00024409  0.49383054  0.49986886
   0.75014888  0.25197308 -0.00032004
   0.74474081  0.00456419  0.24214039
   0.49888977  0.25254231  0.25249021
   0.50233106  0.25630205  0.74690436
   0.74755645  0.49712949  0.24970360
   0.50008315  0.74811094  0.25224532
   0.50153074  0.49813599  0.49761215
   0.75164400  0.49448758  0.74959310
   0.50403787  0.74202846  0.74608046
AuPt                                    
           1
     8.066426    0.012952    0.002069
     0.012895    8.217070    0.023438
     0.002053    0.023418    8.167794
   Pt   Au
  16  16
Direct configuration=    20
   0.25022235  0.25127434  0.00089562
   0.00137603  0.24968964  0.25011038
   0.00205466  0.00314907  0.49796729
   0.25036665  0.00282408  0.75048132
   0.24821003  0.74947374  0.00367604
  -0.00077099  0.74978223  0.24893228
   0.25082531  0.74870321  0.49890242
   0.24844100  0.49968295  0.75022306
  -0.00153298  0.74819045  0.75220531
   0.49937791  0.00051586 -0.00232263
   0.49969375  0.00032621  0.49947355
   0.74999476  0.25019799  0.49868687
   0.75007327  0.00181210  0.75135091
   0.50096253  0.49943755  0.00191324
   0.74901543  0.74905486  0.00059200
   0.75107854  0.74681324  0.49665681
  -0.00224698  0.00623930  0.00267554
   0.25490995  0.00230413  0.24983971
   0.25353621  0.25549673  0.50054113
  -0.00095111  0.25397340  0.75217004
  -0.00646268  0.49433610  0.00354336
   0.25094344  0.49786127  0.25587373
   0.00028243  0.49374972  0.50000737
   0.74998078  0.25187469 -0.00052416
   0.74442869  0.00445422  0.24175208
   0.49864954  0.25234634  0.25259807
   0.50234313  0.25654936  0.74678323
   0.74753338  0.49705777  0.24984093
   0.49993183  0.74834780  0.25242991
   0.50153572  0.49836195  0.49749204
   0.75201196  0.49432174  0.74947796
   0.50418548  0.74179794  0.74575456
AuPt                                    
           1
     8.067169    0.011522    0.000921
     0.011434    8.218686    0.022903
     0.000886    0.022880    8.172032
   Pt   Au
  16  16
Direct configuration=    21
   0.25026191  0.25126832  0.00090436
   0.00126734  0.24980767  0.25014849
   0.00192659  0.00320381  0.49800433
   0.25039122  0.00292738  0.75047300
   0.24831316  0.74935277  0.00364944
  -0.00074961  0.74959619  0.24903423
   0.25075456  0.74874444  0.49888773
   0.24857679  0.49957398  0.75023953
  -0.00144543  0.74812024  0.75205053
   0.49946979  0.00066793 -0.00205898
   0.49973645  0.00051597  0.49945448
   0.74996727  0.25023936  0.49870554
   0.74995327  0.00186444  0.75130435
   0.50090772  0.49929840  0.00185284
   0.74903741  0.74900068  0.00060628
   0.75100237  0.74675782  0.49674362
  -0.00226269  0.00620383  0.00266792
   0.25476088  0.00237869  0.24984090
   0.25342498  0.25542833  0.50033599
  -0.00094849  0.25401927  0.75209868
  -0.00636850  0.49432688  0.00344300
   0.25099220  0.49773121  0.25567961
   0.00026493  0.49378657  0.49994421
   0.75005752  0.25191956 -0.00043108
   0.74457118  0.00450437  0.24192915
   0.49875918  0.25243571  0.25254891
   0.50233761  0.25643659  0.74683846
   0.74754391  0.49709048  0.24977832
   0.50000087  0.74823981  0.25234576
   0.50153344  0.49825892  0.49754681