 vasp.5.4.1 05Feb16 (build Jan 29 2020 16:04:39) complex                        
  
 executed on           IFC91_ompi date 2020.06.15  04:08:39
 running on  160 total cores
 distrk:  each k-point on   20 cores,    8 groups
 distr:  one band on NCORES_PER_BAND=   5 cores,    4 groups


--------------------------------------------------------------------------------------------------------


 INCAR:
 POTCAR:    PAW_PBE Hf 20Jan2003                  
 POTCAR:    PAW_PBE Nb_sv 25May2007               
 POTCAR:    PAW_PBE Ta 17Jan2003                  
 POTCAR:    PAW_PBE Zr_sv 04Jan2005               

 ----------------------------------------------------------------------------- 
|                                                                             |
|           W    W    AA    RRRRR   N    N  II  N    N   GGGG   !!!           |
|           W    W   A  A   R    R  NN   N  II  NN   N  G    G  !!!           |
|           W    W  A    A  R    R  N N  N  II  N N  N  G       !!!           |
|           W WW W  AAAAAA  RRRRR   N  N N  II  N  N N  G  GGG   !            |
|           WW  WW  A    A  R   R   N   NN  II  N   NN  G    G                |
|           W    W  A    A  R    R  N    N  II  N    N   GGGG   !!!           |
|                                                                             |
|      For optimal performance we recommend to set                            |
|        NCORE= 4 - approx SQRT( number of cores)                             |
|      NCORE specifies how many cores store one orbital (NPAR=cpu/NCORE).     |
|      This setting can  greatly improve the performance of VASP for DFT.     |
|      The default, NPAR=number of cores might be grossly inefficient         |
|      on modern multi-core architectures or massively parallel machines.     |
|      Do your own testing !!!!                                               |
|      Unfortunately you need to use the default for GW and RPA calculations. |
|      (for HF NCORE is supported but not extensively tested yet)             |
|                                                                             |
 ----------------------------------------------------------------------------- 


 ----------------------------------------------------------------------------- 
|                                                                             |
|           W    W    AA    RRRRR   N    N  II  N    N   GGGG   !!!           |
|           W    W   A  A   R    R  NN   N  II  NN   N  G    G  !!!           |
|           W    W  A    A  R    R  N N  N  II  N N  N  G       !!!           |
|           W WW W  AAAAAA  RRRRR   N  N N  II  N  N N  G  GGG   !            |
|           WW  WW  A    A  R   R   N   NN  II  N   NN  G    G                |
|           W    W  A    A  R    R  N    N  II  N    N   GGGG   !!!           |
|                                                                             |
|      You have enabled k-point parallelism (KPAR>1).                         |
|      This developmental code was originally  written by Paul Kent at ORNL,  |
|      and carefully double checked in Vienna.                                |
|      GW as well as linear response parallelism added by Martijn Marsman     |
|      and Georg Kresse.                                                      |
|      Carefully verify results versus KPAR=1.                                |
|      Report problems to Paul Kent and Vienna.                               |
|                                                                             |
 ----------------------------------------------------------------------------- 

 POTCAR:    PAW_PBE Hf 20Jan2003                  
   VRHFIN =Hf: 6s5d                                                             
   LEXCH  = PE                                                                  
   EATOM  =    75.9011 eV,    5.5786 Ry                                         
                                                                                
   TITEL  = PAW_PBE Hf 20Jan2003                                                
   LULTRA =        F    use ultrasoft PP ?                                      
   IUNSCR =        1    unscreen: 0-lin 1-nonlin 2-no                           
   RPACOR =    2.500    partial core radius                                     
   POMASS =  178.490; ZVAL   =    4.000    mass and valenz                      
   RCORE  =    3.000    outmost cutoff radius                                   
   RWIGS  =    3.050; RWIGS  =    1.614    wigner-seitz radius (au A)           
   ENMAX  =  220.334; ENMIN  =  165.250 eV                                      
   RCLOC  =    2.212    cutoff for local pot                                    
   LCOR   =        T    correct aug charges                                     
   LPAW   =        T    paw PP                                                  
   EAUG   =  335.116                                                            
   DEXC   =    0.000                                                            
   RMAX   =    3.077    core radius for proj-oper                               
   RAUG   =    1.300    factor for augmentation sphere                          
   RDEP   =    3.047    radius for radial grids                                 
   RDEPT  =    2.344    core radius for aug-charge                              
                                                                                
   Atomic configuration                                                         
   16 entries                                                                   
     n  l   j            E        occ.                                          
     1  0  0.50    -65259.4397   2.0000                                         
     2  0  0.50    -11157.9882   2.0000                                         
     2  1  1.50     -9795.2113   6.0000                                         
     3  0  0.50     -2541.4058   2.0000                                         
     3  1  1.50     -2134.4770   6.0000                                         
     3  2  2.50     -1653.5418  10.0000                                         
     4  0  0.50      -510.9575   2.0000                                         
     4  1  1.50      -377.5023   6.0000                                         
     4  2  2.50      -205.2085  10.0000                                         
     4  3  3.50       -15.4905  14.0000                                         
     5  0  0.50       -65.6020   2.0000                                         
     5  1  1.50       -34.2798   6.0000                                         
     5  2  2.50        -1.9877   3.0000                                         
     6  0  0.50        -4.7357   1.0000                                         
     6  1  1.50        -1.3606   0.0000                                         
     5  3  2.50        -1.3606   0.0000                                         
   Description                                                                  
     l       E           TYP  RCUT    TYP  RCUT                                 
     2     -1.9876627     23  2.500                                             
     2      0.0744703     23  2.500                                             
     0     -4.7356889     23  2.600                                             
     0      3.2364747     23  2.600                                             
     1     -1.3605826     23  3.000                                             
     1     27.2116520     23  3.000                                             
  local pseudopotential read in
  partial core-charges read in
  partial kinetic energy density read in
  atomic valenz-charges read in
  non local Contribution for L=           2  read in
    real space projection operators read in
  non local Contribution for L=           2  read in
    real space projection operators read in
  non local Contribution for L=           0  read in
    real space projection operators read in
  non local Contribution for L=           0  read in
    real space projection operators read in
  non local Contribution for L=           1  read in
    real space projection operators read in
  non local Contribution for L=           1  read in
    real space projection operators read in
    PAW grid and wavefunctions read in
 
   number of l-projection  operators is LMAX  =           6
   number of lm-projection operators is LMMAX =          18
 
 POTCAR:    PAW_PBE Nb_sv 25May2007               
   VRHFIN =Nb: 4p5s4d                                                           
   LEXCH  = PE                                                                  
   EATOM  =  1555.1913 eV,  114.3033 Ry                                         
                                                                                
   TITEL  = PAW_PBE Nb_sv 25May2007                                             
   LULTRA =        F    use ultrasoft PP ?                                      
   IUNSCR =        1    unscreen: 0-lin 1-nonlin 2-no                           
   RPACOR =    1.800    partial core radius                                     
   POMASS =   92.910; ZVAL   =   13.000    mass and valenz                      
   RCORE  =    2.400    outmost cutoff radius                                   
   RWIGS  =    2.400; RWIGS  =    1.270    wigner-seitz radius (au A)           
   ENMAX  =  293.235; ENMIN  =  219.927 eV                                      
   ICORE  =        3    local potential                                         
   LCOR   =        T    correct aug charges                                     
   LPAW   =        T    paw PP                                                  
   EAUG   =  455.659                                                            
   DEXC   =    0.000                                                            
   RMAX   =    2.456    core radius for proj-oper                               
   RAUG   =    1.300    factor for augmentation sphere                          
   RDEP   =    2.451    radius for radial grids                                 
   RDEPT  =    1.956    core radius for aug-charge                              
                                                                                
   Atomic configuration                                                         
   11 entries                                                                   
     n  l   j            E        occ.                                          
     1  0  0.50    -18805.2457   2.0000                                         
     2  0  0.50     -2630.2869   2.0000                                         
     2  1  1.50     -2348.4046   6.0000                                         
     3  0  0.50      -438.8757   2.0000                                         
     3  1  1.50      -346.7588   6.0000                                         
     3  2  2.50      -196.2560  10.0000                                         
     4  0  0.50       -58.3859   2.0000                                         
     5  0  0.50        -3.9816   1.0000                                         
     4  1  1.50       -34.5141   6.0000                                         
     4  2  2.50        -3.0408   4.0000                                         
     4  3  2.50        -1.3606   0.0000                                         
   Description                                                                  
     l       E           TYP  RCUT    TYP  RCUT                                 
     0    -58.3859094     23  2.200                                             
     0     -3.9816262     23  2.200                                             
     1    -34.5140738     23  2.200                                             
     1     13.6058260     23  2.200                                             
     2     -3.0408010     23  2.200                                             
     2     -0.1283038     23  2.200                                             
     3     -1.3605826     23  2.400                                             
  local pseudopotential read in
  partial core-charges read in
  partial kinetic energy density read in
  atomic valenz-charges read in
  non local Contribution for L=           0  read in
    real space projection operators read in
  non local Contribution for L=           0  read in
    real space projection operators read in
  non local Contribution for L=           1  read in
    real space projection operators read in
  non local Contribution for L=           1  read in
    real space projection operators read in
  non local Contribution for L=           2  read in
    real space projection operators read in
  non local Contribution for L=           2  read in
    real space projection operators read in
    PAW grid and wavefunctions read in
 
   number of l-projection  operators is LMAX  =           6
   number of lm-projection operators is LMMAX =          18
 
 POTCAR:    PAW_PBE Ta 17Jan2003                  
   VRHFIN =Ta:  6s5d                                                            
   LEXCH  = PE                                                                  
   EATOM  =   130.6506 eV,    9.6025 Ry                                         
                                                                                
   TITEL  = PAW_PBE Ta 17Jan2003                                                
   LULTRA =        F    use ultrasoft PP ?                                      
   IUNSCR =        1    unscreen: 0-lin 1-nonlin 2-no                           
   RPACOR =    2.330    partial core radius                                     
   POMASS =  180.948; ZVAL   =    5.000    mass and valenz                      
   RCORE  =    2.900    outmost cutoff radius                                   
   RWIGS  =    2.840; RWIGS  =    1.503    wigner-seitz radius (au A)           
   ENMAX  =  223.667; ENMIN  =  167.750 eV                                      
   RCLOC  =    2.205    cutoff for local pot                                    
   LCOR   =        T    correct aug charges                                     
   LPAW   =        T    paw PP                                                  
   EAUG   =  332.075                                                            
   DEXC   =    0.000                                                            
   RMAX   =    2.970    core radius for proj-oper                               
   RAUG   =    1.300    factor for augmentation sphere                          
   RDEP   =    3.060    radius for radial grids                                 
   RDEPT  =    2.354    core radius for aug-charge                              
                                                                                
   Atomic configuration                                                         
   16 entries                                                                   
     n  l   j            E        occ.                                          
     1  0  0.50    -67341.2807   2.0000                                         
     2  0  0.50    -11566.9376   2.0000                                         
     2  1  1.50    -10134.1182   6.0000                                         
     3  0  0.50     -2648.5620   2.0000                                         
     3  1  1.50     -2222.6012   6.0000                                         
     3  2  2.50     -1726.3120  10.0000                                         
     4  0  0.50      -538.6961   2.0000                                         
     4  1  1.50      -399.0129   6.0000                                         
     4  2  2.50      -220.3959  10.0000                                         
     4  3  3.50       -23.0374  14.0000                                         
     5  0  0.50       -71.2901   2.0000                                         
     5  1  1.50       -37.8225   6.0000                                         
     5  2  2.50        -2.6455   4.0000                                         
     6  0  0.50        -4.9623   1.0000                                         
     6  1  1.50        -1.3606   0.0000                                         
     5  3  2.50        -1.3606   0.0000                                         
   Description                                                                  
     l       E           TYP  RCUT    TYP  RCUT                                 
     2     -2.6455043     23  2.500                                             
     2     -0.6258895     23  2.500                                             
     0     -4.9622780     23  2.500                                             
     0      4.7531321     23  2.500                                             
     1     -1.3605826     23  2.900                                             
     1     27.2116520     23  2.900                                             
  local pseudopotential read in
  partial core-charges read in
  partial kinetic energy density read in
  atomic valenz-charges read in
  non local Contribution for L=           2  read in
    real space projection operators read in
  non local Contribution for L=           2  read in
    real space projection operators read in
  non local Contribution for L=           0  read in
    real space projection operators read in
  non local Contribution for L=           0  read in
    real space projection operators read in
  non local Contribution for L=           1  read in
    real space projection operators read in
  non local Contribution for L=           1  read in
    real space projection operators read in
    PAW grid and wavefunctions read in
 
   number of l-projection  operators is LMAX  =           6
   number of lm-projection operators is LMMAX =          18
 
 POTCAR:    PAW_PBE Zr_sv 04Jan2005               
   VRHFIN =Zr: 4s4p5s4d                                                         
   LEXCH  = PE                                                                  
   EATOM  =  1284.2219 eV,   94.3876 Ry                                         
                                                                                
   TITEL  = PAW_PBE Zr_sv 04Jan2005                                             
   LULTRA =        F    use ultrasoft PP ?                                      
   IUNSCR =        1    unscreen: 0-lin 1-nonlin 2-no                           
   RPACOR =    2.200    partial core radius                                     
   POMASS =   91.224; ZVAL   =   12.000    mass and valenz                      
   RCORE  =    2.500    outmost cutoff radius                                   
   RWIGS  =    3.070; RWIGS  =    1.625    wigner-seitz radius (au A)           
   ENMAX  =  229.898; ENMIN  =  172.424 eV                                      
   ICORE  =        3    local potential                                         
   LCOR   =        T    correct aug charges                                     
   LPAW   =        T    paw PP                                                  
   EAUG   =  461.257                                                            
   DEXC   =    0.000                                                            
   RMAX   =    2.561    core radius for proj-oper                               
   RAUG   =    1.300    factor for augmentation sphere                          
   RDEP   =    2.597    radius for radial grids                                 
   RDEPT  =    2.007    core radius for aug-charge                              
                                                                                
   Atomic configuration                                                         
   11 entries                                                                   
     n  l   j            E        occ.                                          
     1  0  0.50    -17820.0161   2.0000                                         
     2  0  0.50     -2467.0882   2.0000                                         
     2  1  1.50     -2199.6095   6.0000                                         
     3  0  0.50      -402.4863   2.0000                                         
     3  1  1.50      -315.3675   6.0000                                         
     3  2  2.50      -172.4472  10.0000                                         
     4  0  0.50       -52.4146   2.0000                                         
     5  0  0.50        -3.8421   1.0000                                         
     4  1  1.50       -30.5054   6.0000                                         
     4  2  2.50        -2.3341   3.0000                                         
     4  3  2.50        -1.3606   0.0000                                         
   Description                                                                  
     l       E           TYP  RCUT    TYP  RCUT                                 
     0    -52.4145962     23  2.200                                             
     0     -3.8421270     23  2.500                                             
     1    -30.5053914     23  2.200                                             
     1     20.4087390     23  2.200                                             
     2     -2.3340816     23  2.500                                             
     2     -0.6120942     23  2.500                                             
     3     -4.0817478     23  2.500                                             
  local pseudopotential read in
  partial core-charges read in
  partial kinetic energy density read in
  atomic valenz-charges read in
  non local Contribution for L=           0  read in
    real space projection operators read in
  non local Contribution for L=           0  read in
    real space projection operators read in
  non local Contribution for L=           1  read in
    real space projection operators read in
  non local Contribution for L=           1  read in
    real space projection operators read in
  non local Contribution for L=           2  read in
    real space projection operators read in
  non local Contribution for L=           2  read in
    real space projection operators read in
    PAW grid and wavefunctions read in
 
   number of l-projection  operators is LMAX  =           6
   number of lm-projection operators is LMMAX =          18
 
 Optimization of the real space projectors (new method)

 maximal supplied QI-value         = 12.47
 optimisation between [QCUT,QGAM] = [  8.86, 17.71] = [ 21.96, 87.83] Ry 
 Optimized for a Real-space Cutoff    1.90 Angstroem

   l    n(q)    QCUT    max X(q) W(low)/X(q) W(high)/X(q)  e(spline) 
   2      9     8.855    48.111    0.22E-03    0.80E-04    0.10E-05
   2      9     8.855    40.545    0.21E-03    0.76E-04    0.95E-06
   0     10     8.855   121.658    0.27E-04    0.12E-04    0.11E-06
   0     10     8.855    71.177    0.22E-04    0.11E-04    0.99E-07
   1     10     8.855    14.183    0.65E-04    0.10E-03    0.98E-07
   1     10     8.855     8.257    0.43E-04    0.73E-04    0.72E-07
 Optimization of the real space projectors (new method)

 maximal supplied QI-value         = 15.68
 optimisation between [QCUT,QGAM] = [  8.78, 17.72] = [ 21.60, 87.97] Ry 
 Optimized for a Real-space Cutoff    1.96 Angstroem

   l    n(q)    QCUT    max X(q) W(low)/X(q) W(high)/X(q)  e(spline) 
   0     10     8.783    10.201    0.29E-04    0.25E-05    0.69E-07
   0     10     8.783     8.174    0.45E-04    0.57E-05    0.14E-06
   1     10     8.783     3.488    0.76E-05    0.24E-04    0.95E-07
   1     10     8.783     4.917    0.78E-04    0.14E-03    0.46E-06
   2      9     8.783   153.744    0.22E-03    0.34E-04    0.15E-05
   2      9     8.783   126.342    0.22E-03    0.35E-04    0.15E-05
 Optimization of the real space projectors (new method)

 maximal supplied QI-value         = 12.85
 optimisation between [QCUT,QGAM] = [  8.87, 17.73] = [ 22.01, 88.06] Ry 
 Optimized for a Real-space Cutoff    1.90 Angstroem

   l    n(q)    QCUT    max X(q) W(low)/X(q) W(high)/X(q)  e(spline) 
   2      9     8.867    62.315    0.23E-03    0.62E-04    0.11E-05
   2      9     8.867    52.185    0.23E-03    0.62E-04    0.11E-05
   0     10     8.867   103.837    0.15E-04    0.23E-04    0.98E-07
   0     10     8.867    59.728    0.12E-04    0.21E-04    0.89E-07
   1     10     8.867    13.958    0.50E-04    0.22E-04    0.14E-06
   1     10     8.867     8.441    0.36E-04    0.19E-04    0.98E-07
 Optimization of the real space projectors (new method)

 maximal supplied QI-value         = 15.12
 optimisation between [QCUT,QGAM] = [  8.77, 17.69] = [ 21.53, 87.61] Ry 
 Optimized for a Real-space Cutoff    1.74 Angstroem

   l    n(q)    QCUT    max X(q) W(low)/X(q) W(high)/X(q)  e(spline) 
   0      9     8.768    12.107    0.28E-04    0.53E-06    0.29E-07
   0      9     8.768     9.948    0.36E-04    0.50E-05    0.64E-07
   1      9     8.768     3.563    0.14E-04    0.16E-04    0.88E-07
   1      9     8.768     4.524    0.21E-03    0.33E-03    0.19E-06
   2      8     8.768    87.261    0.19E-03    0.25E-03    0.24E-06
   2      8     8.768    70.950    0.19E-03    0.24E-03    0.24E-06
  PAW_PBE Hf 20Jan2003                  :
 energy of atom  1       EATOM=  -75.9011
 kinetic energy error for atom=    0.0071 (will be added to EATOM!!)
  PAW_PBE Nb_sv 25May2007               :
 energy of atom  2       EATOM=-1555.1913
 kinetic energy error for atom=    0.0655 (will be added to EATOM!!)
  PAW_PBE Ta 17Jan2003                  :
 energy of atom  3       EATOM= -130.6506
 kinetic energy error for atom=    0.0121 (will be added to EATOM!!)
  PAW_PBE Zr_sv 04Jan2005               :
 energy of atom  4       EATOM=-1284.2219
 kinetic energy error for atom=    0.0483 (will be added to EATOM!!)
 
 
 POSCAR: generated by pypospack                  
  positions in direct lattice
  No initial velocities read in
 exchange correlation table for  LEXCH =        8
   RHO(1)=    0.500       N(1)  =     2000
   RHO(2)=  100.500       N(2)  =     4000
 


--------------------------------------------------------------------------------------------------------


 ion  position               nearest neighbor table
   1  0.743  0.162  0.491-  11 2.90  18 2.90  10 2.92  19 2.92  16 2.94  13 2.95   5 3.08  35 3.09
                            29 3.19  20 3.32  12 3.33   7 3.44  26 3.46
   2  0.755  0.834  0.823-  15 2.90  16 2.95  13 2.95  17 2.96  28 2.96  24 3.00  34 3.06  36 3.09
                            31 3.17   7 3.19  20 3.26  30 3.33  30 3.48  27 3.56
   3  0.500  0.342  0.995-  21 3.00   9 3.03  31 3.06   4 3.07  23 3.08  29 3.09   7 3.13  32 3.14
                            35 3.28  36 3.30  33 3.40  33 3.41  34 3.56
   4  0.244  0.173  0.175-  18 2.90  11 2.93  19 2.94  10 2.98  34 3.02  28 3.04   3 3.07  33 3.08
                            12 3.24  21 3.24  29 3.35  25 3.42  29 3.46  32 3.51
   5  0.004  0.339  0.664-  22 2.93  26 2.94  31 3.01  23 3.01  12 3.04   1 3.08   7 3.09  32 3.09
                            18 3.22  33 3.26  15 3.30  35 3.37  13 3.43  35 3.44
   6  0.243  0.833  0.502-  16 2.84  13 2.85  14 2.91  15 2.93  17 2.95  11 2.96   8 2.99  10 2.99
                            30 3.29  22 3.31  20 3.32  25 3.33  12 3.35  20 3.48
   7  0.753  0.147  0.829-  13 2.86  16 2.94  28 2.97  34 3.00  33 3.04  35 3.08   5 3.09   3 3.13
                             2 3.19  32 3.35   1 3.44  32 3.45  29 3.57
   8  0.501  0.668  0.330-  26 2.93  22 2.94  27 2.97  25 2.98   6 2.99  21 2.99   9 2.99  20 3.01
                            10 3.30  36 3.30  19 3.35  17 3.37  14 3.39  14 3.41
   9  0.769  0.490  0.180-  18 2.85  14 2.87  19 2.93  33 2.95   8 2.99   3 3.03  24 3.06  36 3.12
                            21 3.18  26 3.19  29 3.28  27 3.49  31 3.61  21 3.63
  10  0.503  0.992  0.326-  25 2.89  29 2.90  27 2.90   1 2.92  20 2.95  12 2.95   4 2.98   6 2.99
                            34 3.17   8 3.30
  11  0.995  0.998  0.330-  27 2.77  25 2.77  29 2.85   1 2.90  20 2.92   4 2.93  12 2.93   6 2.96
                            28 3.26
  12  0.254  0.161  0.492-  18 2.84  16 2.89  13 2.89  19 2.90  11 2.93  10 2.95   5 3.04  35 3.09
                             4 3.24   1 3.33   6 3.35  32 3.46
  13  0.005  0.002  0.657-  32 2.81   6 2.85   7 2.86  20 2.86  12 2.89  30 2.93   1 2.95   2 2.95
                             5 3.43
  14  1.000  0.668  0.334-  27 2.81  25 2.84   9 2.87  22 2.87  26 2.88  21 2.90   6 2.91  20 2.95
                             8 3.39   8 3.41
  15  0.999  0.662  0.664-  23 2.72  31 2.74  22 2.86  30 2.90   2 2.90  26 2.92   6 2.93  20 2.93
                             5 3.30
  16  0.494  0.993  0.655-   6 2.84  20 2.84  12 2.89  32 2.90   1 2.94   7 2.94  30 2.95   2 2.95

  17  0.501  0.663  0.661-  23 2.79  31 2.82  22 2.87  26 2.94   6 2.95  20 2.95   2 2.96  30 2.96
                            35 3.27   8 3.37
  18  0.007  0.334  0.349-  26 2.83  21 2.84  12 2.84  22 2.85   9 2.85   4 2.90   1 2.90  29 2.97
                             5 3.22
  19  0.493  0.340  0.341-  21 2.86  26 2.87  22 2.88  12 2.90   1 2.92   9 2.93   4 2.94  29 2.98
                             8 3.35  35 3.38
  20  0.755  0.837  0.504-  16 2.84  13 2.86  11 2.92  15 2.93  10 2.95  14 2.95  17 2.95   8 3.01
                             2 3.26   1 3.32   6 3.32  27 3.38  26 3.42   6 3.48
  21  0.236  0.491  0.178-  18 2.84  19 2.86  14 2.90  33 2.96   8 2.99   3 3.00  24 3.00  36 3.06
                             9 3.18   4 3.24  22 3.27  25 3.53  23 3.60   9 3.63
  22  0.246  0.508  0.498-  18 2.85  15 2.86  14 2.87  17 2.87  19 2.88   5 2.93   8 2.94  35 2.99
                            21 3.27   6 3.31  26 3.35  23 3.35  26 3.46
  23  0.245  0.527  0.826-  15 2.72  17 2.79  24 2.81  36 2.88  35 2.99  33 3.00   5 3.01   3 3.08
                            30 3.10  31 3.32  22 3.35  31 3.48  21 3.60
  24  0.008  0.670  0.001-  23 2.81  25 2.88  31 2.88  27 2.89  30 2.91  21 3.00   2 3.00   9 3.06
                            28 3.23  36 3.32  33 3.35  36 3.49
  25  0.228  0.837  0.176-  28 2.76  11 2.77  14 2.84  24 2.88  10 2.89  34 2.95   8 2.98  36 3.06
                            27 3.10   6 3.33   4 3.42  21 3.53  30 3.57
  26  0.755  0.501  0.493-  18 2.83  19 2.87  14 2.88  15 2.92   8 2.93  17 2.94   5 2.94  35 3.01
                             9 3.19  22 3.35  31 3.42  20 3.42   1 3.46  22 3.46
  27  0.773  0.833  0.173-  28 2.74  11 2.77  14 2.81  24 2.89  10 2.90  34 2.93   8 2.97  36 3.05
                            25 3.10  20 3.38  29 3.43   9 3.49   2 3.56
  28  0.996  0.987  0.011-  27 2.74  25 2.76   2 2.96  32 2.97   7 2.97  30 2.99  29 3.02   4 3.04
                            24 3.23  11 3.26  34 3.35  34 3.45  33 3.62
  29  0.752  0.169  0.178-  11 2.85  10 2.90  18 2.97  34 2.97  19 2.98  28 3.02   3 3.09  33 3.14
                             1 3.19   9 3.28   4 3.35  27 3.43   4 3.46   7 3.57
  30  0.244  0.831  0.825-  15 2.90  24 2.91  13 2.93  16 2.95  17 2.96  28 2.99  36 3.03  23 3.10
                            34 3.10  32 3.19   6 3.29   2 3.33   2 3.48  25 3.57
  31  0.757  0.523  0.827-  15 2.74  17 2.82  24 2.88  36 2.93  33 2.95  35 2.99   5 3.01   3 3.06
                             2 3.17  23 3.32  26 3.42  23 3.48   9 3.61
  32  0.246  0.143  0.831-  13 2.81  16 2.90  28 2.97  34 2.99  33 3.05   5 3.09  35 3.12   3 3.14
                            30 3.19   7 3.35   7 3.45  12 3.46   4 3.51
  33  1.000  0.342  0.985-  31 2.95   9 2.95  21 2.96  23 3.00   7 3.04  32 3.05   4 3.08  29 3.14
                             5 3.26  24 3.35   3 3.40   3 3.41  28 3.62
  34  0.503  0.993  0.016-  27 2.93  25 2.95  29 2.97  32 2.99   7 3.00   4 3.02   2 3.06  30 3.10
                            10 3.17  36 3.33  28 3.35  28 3.45   3 3.56
  35  0.499  0.342  0.673-  31 2.99  23 2.99  22 2.99  26 3.01   7 3.08   1 3.09  12 3.09  32 3.12
                            17 3.27   3 3.28   5 3.37  19 3.38   5 3.44
  36  0.496  0.666  0.007-  23 2.88  31 2.93  30 3.03  27 3.05  25 3.06  21 3.06   2 3.09   9 3.12
                             8 3.30   3 3.30  24 3.32  34 3.33  24 3.49
 
  LATTYP: Found a triclinic cell.
 ALAT       =     6.8035750622
 B/A-ratio  =     2.4964354174
 C/A-ratio  =     1.4975093655
 COS(alpha) =     0.0003639908
 COS(beta)  =     0.0013027277
 COS(gamma) =     0.8000807686
  
  Lattice vectors:
  
 A1 = (   6.8035709739,   0.0059710071,  -0.0044695258)
 A2 = (  13.5980582354, -10.1770502958,  -0.0030877639)
 A3 = (   0.0065745926,   0.0056866734, -10.1884136660)


Analysis of symmetry for initial positions (statically):
=====================================================================
 Subroutine PRICEL returns:
 Original cell was already a primitive cell.
 

 Routine SETGRP: Setting up the symmetry group for a 
 triclinic supercell.


 Subroutine GETGRP returns: Found  1 space group operations
 (whereof  1 operations were pure point group operations)
 out of a pool of  2 trial point group operations.


The static configuration has the point symmetry C_1 .


Analysis of symmetry for dynamics (positions and initial velocities):
=====================================================================
 Subroutine PRICEL returns:
 Original cell was already a primitive cell.
 

 Routine SETGRP: Setting up the symmetry group for a 
 triclinic supercell.


 Subroutine GETGRP returns: Found  1 space group operations
 (whereof  1 operations were pure point group operations)
 out of a pool of  2 trial point group operations.


The dynamic configuration has the point symmetry C_1 .


 Subroutine INISYM returns: Found  1 space group operations
 (whereof  1 operations are pure point group operations),
 and found     1 'primitive' translations

 
 
 KPOINTS: k-points                                

Automatic generation of k-mesh.
Space group operators:
 irot       det(A)        alpha          n_x          n_y          n_z        tau_x        tau_y        tau_z
    1     1.000000     0.000000     1.000000     0.000000     0.000000     0.000000     0.000000     0.000000
 
 Subroutine IBZKPT returns following result:
 ===========================================
 
 Found     14 irreducible k-points:
 
 Following reciprocal coordinates:
            Coordinates               Weight
  0.000000  0.000000  0.000000      1.000000
  0.333333  0.000000  0.000000      2.000000
  0.000000  0.333333  0.000000      2.000000
  0.333333  0.333333  0.000000      2.000000
 -0.333333  0.333333  0.000000      2.000000
 -0.000000 -0.000000  0.333333      2.000000
  0.333333  0.000000  0.333333      2.000000
 -0.333333 -0.000000  0.333333      2.000000
  0.000000  0.333333  0.333333      2.000000
  0.333333  0.333333  0.333333      2.000000
 -0.333333  0.333333  0.333333      2.000000
 -0.000000 -0.333333  0.333333      2.000000
  0.333333 -0.333333  0.333333      2.000000
 -0.333333 -0.333333  0.333333      2.000000
 
 Following cartesian coordinates:
            Coordinates               Weight
  0.000000  0.000000  0.000000      1.000000
  0.244397 -0.000218  0.000158      2.000000
 -0.000143  0.163193  0.000091      2.000000
  0.244254  0.162975  0.000249      2.000000
 -0.244540  0.163411 -0.000067      2.000000
  0.000107  0.000094  0.163202      2.000000
  0.244504 -0.000124  0.163360      2.000000
 -0.244290  0.000311  0.163045      2.000000
 -0.000036  0.163287  0.163293      2.000000
  0.244361  0.163069  0.163451      2.000000
 -0.244433  0.163504  0.163136      2.000000
  0.000250 -0.163099  0.163111      2.000000
  0.244647 -0.163317  0.163269      2.000000
 -0.244147 -0.162882  0.162954      2.000000
 


--------------------------------------------------------------------------------------------------------




 Dimension of arrays:
   k-points           NKPTS =     14   k-points in BZ     NKDIM =     14   number of bands    NBANDS=    172
   number of dos      NEDOS =    301   number of ions     NIONS =     36
   non local maximal  LDIM  =      6   non local SUM 2l+1 LMDIM =     18
   total plane-waves  NPLWV = 144000
   max r-space proj   IRMAX =   6485   max aug-charges    IRDMAX=  14077
   dimension x,y,z NGX =    40 NGY =   60 NGZ =   60
   dimension x,y,z NGXF=    80 NGYF=  120 NGZF=  120
   support grid    NGXF=    80 NGYF=  120 NGZF=  120
   ions per type =               9  10  12   5
 NGX,Y,Z   is equivalent  to a cutoff of   9.77,  9.79,  9.79 a.u.
 NGXF,Y,Z  is equivalent  to a cutoff of  19.55, 19.58, 19.58 a.u.


 I would recommend the setting:
   dimension x,y,z NGX =    38 NGY =   58 NGZ =   58
 SYSTEM =  automatically generated by mexm         
 POSCAR =  generated by pypospack                  

 Startparameter for this run:
   NWRITE =      2    write-flag & timer
   PREC   = accura    normal or accurate (medium, high low for compatibility)
   ISTART =      0    job   : 0-new  1-cont  2-samecut
   ICHARG =      2    charge: 1-file 2-atom 10-const
   ISPIN  =      1    spin polarized calculation?
   LNONCOLLINEAR =      F non collinear calculations
   LSORBIT =      F    spin-orbit coupling
   INIWAV =      1    electr: 0-lowe 1-rand  2-diag
   LASPH  =      F    aspherical Exc in radial PAW
   METAGGA=      F    non-selfconsistent MetaGGA calc.

 Electronic Relaxation 1
   ENCUT  =  300.0 eV  22.05 Ry    4.70 a.u.   9.61 14.39 14.39*2*pi/ulx,y,z
   ENINI  =  300.0     initial cutoff
   ENAUG  =  461.3 eV  augmentation charge cutoff
   NELM   =     70;   NELMIN=  2; NELMDL= -5     # of ELM steps 
   EDIFF  = 0.1E-04   stopping-criterion for ELM
   LREAL  =      T    real-space projection
   NLSPLINE    = F    spline interpolate recip. space projectors
   LCOMPAT=      F    compatible to vasp.4.4
   GGA_COMPAT  = T    GGA compatible to vasp.4.4-vasp.4.6
   LMAXPAW     = -100 max onsite density
   LMAXMIX     =    2 max onsite mixed and CHGCAR
   VOSKOWN=      0    Vosko Wilk Nusair interpolation
   ROPT   =   -0.00025  -0.00025  -0.00025  -0.00025
 Ionic relaxation
   EDIFFG = -.1E-01   stopping-criterion for IOM
   NSW    =    300    number of steps for IOM
   NBLOCK =      1;   KBLOCK =    300    inner block; outer block 
   IBRION =      2    ionic relax: 0-MD 1-quasi-New 2-CG
   NFREE  =      1    steps in history (QN), initial steepest desc. (CG)
   ISIF   =      3    stress and relaxation
   IWAVPR =     11    prediction:  0-non 1-charg 2-wave 3-comb
   ISYM   =      1    0-nonsym 1-usesym 2-fastsym
   LCORR  =      T    Harris-Foulkes like correction to forces

   POTIM  = 0.1500    time-step for ionic-motion
   TEIN   =    0.0    initial temperature
   TEBEG  =    0.0;   TEEND  =   0.0 temperature during run
   SMASS  =  -3.00    Nose mass-parameter (am)
   estimated Nose-frequenzy (Omega)   =  0.10E-29 period in steps =****** mass=  -0.106E-26a.u.
   SCALEE = 1.0000    scale energy and forces
   NPACO  =    256;   APACO  = 16.0  distance and # of slots for P.C.
   PSTRESS=    0.0 pullay stress

  Mass of Ions in am
   POMASS = 178.49 92.91180.95 91.22
  Ionic Valenz
   ZVAL   =   4.00 13.00  5.00 12.00
  Atomic Wigner-Seitz radii
   RWIGS  =  -1.00 -1.00 -1.00 -1.00
  virtual crystal weights 
   VCA    =   1.00  1.00  1.00  1.00
   NELECT =     286.0000    total number of electrons
   NUPDOWN=      -1.0000    fix difference up-down

 DOS related values:
   EMIN   =  10.00;   EMAX   =-10.00  energy-range for DOS
   EFERMI =   0.00
   ISMEAR =     1;   SIGMA  =   0.15  broadening in eV -4-tet -1-fermi 0-gaus

 Electronic relaxation 2 (details)
   IALGO  =     68    algorithm
   LDIAG  =      T    sub-space diagonalisation (order eigenvalues)
   LSUBROT=      F    optimize rotation matrix (better conditioning)
   TURBO    =      0    0=normal 1=particle mesh
   IRESTART =      0    0=no restart 2=restart with 2 vectors
   NREBOOT  =      0    no. of reboots
   NMIN     =      0    reboot dimension
   EREF     =   0.00    reference energy to select bands
   IMIX   =      4    mixing-type and parameters
     AMIX     =   0.40;   BMIX     =  1.00
     AMIX_MAG =   1.60;   BMIX_MAG =  1.00
     AMIN     =   0.10
     WC   =   100.;   INIMIX=   1;  MIXPRE=   1;  MAXMIX= -45

 Intra band minimization:
   WEIMIN = 0.0010     energy-eigenvalue tresh-hold
   EBREAK =  0.15E-07  absolut break condition
   DEPER  =   0.30     relativ break condition  

   TIME   =   0.40     timestep for ELM

  volume/ion in A,a.u.               =      19.62       132.39
  Fermi-wavevector in a.u.,A,eV,Ry     =   1.211171  2.288781 19.958867  1.466935
  Thomas-Fermi vector in A             =   2.346695
 
 Write flags
   LWAVE  =      F    write WAVECAR
   LCHARG =      F    write CHGCAR
   LVTOT  =      F    write LOCPOT, total local potential
   LVHAR  =      F    write LOCPOT, Hartree potential only
   LELF   =      F    write electronic localiz. function (ELF)
   LORBIT =      0    0 simple, 1 ext, 2 COOP (PROOUT)


 Dipole corrections
   LMONO  =      F    monopole corrections only (constant potential shift)
   LDIPOL =      F    correct potential (dipole corrections)
   IDIPOL =      0    1-x, 2-y, 3-z, 4-all directions 
   EPSILON=  1.0000000 bulk dielectric constant

 Exchange correlation treatment:
   GGA     =    --    GGA type
   LEXCH   =     8    internal setting for exchange type
   VOSKOWN=      0    Vosko Wilk Nusair interpolation
   LHFCALC =     F    Hartree Fock is set to
   LHFONE  =     F    Hartree Fock one center treatment
   AEXX    =    0.0000 exact exchange contribution

 Linear response parameters
   LEPSILON=     F    determine dielectric tensor
   LRPA    =     F    only Hartree local field effects (RPA)
   LNABLA  =     F    use nabla operator in PAW spheres
   LVEL    =     F    velocity operator in full k-point grid
   LINTERFAST=   F  fast interpolation
   KINTER  =     0    interpolate to denser k-point grid
   CSHIFT  =0.1000    complex shift for real part using Kramers Kronig
   OMEGAMAX=  -1.0    maximum frequency
   DEG_THRESHOLD= 0.2000000E-02 threshold for treating states as degnerate
   RTIME   =    0.100 relaxation time in fs

 Orbital magnetization related:
   ORBITALMAG=     F  switch on orbital magnetization
   LCHIMAG   =     F  perturbation theory with respect to B field
   DQ        =  0.001000  dq finite difference perturbation B field



--------------------------------------------------------------------------------------------------------


 conjugate gradient relaxation of ions
 charge density and potential will be updated during run
 non-spin polarized calculation
 RMM-DIIS sequential band-by-band and
  variant of blocked Davidson during initial phase
 perform sub-space diagonalisation
    before iterative eigenvector-optimisation
 modified Broyden-mixing scheme, WC =      100.0
 initial mixing is a Kerker type mixing with AMIX =  0.4000 and BMIX =      1.0000
 Hartree-type preconditioning will be used
 using additional bands           29
 real space projection scheme for non local part
 use partial core corrections
 calculate Harris-corrections to forces 
   (improved forces if not selfconsistent)
 use gradient corrections 
 use of overlap-Matrix (Vanderbilt PP)
 Methfessel and Paxton  Order N= 1 SIGMA  =   0.15


--------------------------------------------------------------------------------------------------------


  energy-cutoff  :      300.00
  volume of cell :      706.28
      direct lattice vectors                 reciprocal lattice vectors
     6.803570974  0.005971007 -0.004469526     0.146981814 -0.000130983  0.000094774
     0.009083713 10.188992310 -0.005851288    -0.000086099  0.098145241  0.000054724
    -0.006574593 -0.005686673 10.188413666     0.000064430  0.000056308  0.098150780

  length of vectors
     6.803575062 10.188998039 10.188417374     0.146981903  0.098145294  0.098150817


 
 k-points in units of 2pi/SCALE and weight: k-points                                
   0.00000000  0.00000000  0.00000000       0.037
   0.24439695 -0.00021779  0.00015759       0.074
  -0.00014316  0.16319296  0.00009099       0.074
   0.24425379  0.16297517  0.00024858       0.074
  -0.24454011  0.16341076 -0.00006659       0.074
   0.00010713  0.00009363  0.16320217       0.074
   0.24450408 -0.00012417  0.16335976       0.074
  -0.24428982  0.00031142  0.16304458       0.074
  -0.00003603  0.16328659  0.16329317       0.074
   0.24436092  0.16306879  0.16345075       0.074
  -0.24443298  0.16350438  0.16313558       0.074
   0.00025029 -0.16309933  0.16311118       0.074
   0.24464725 -0.16331713  0.16326877       0.074
  -0.24414666 -0.16288154  0.16295359       0.074
 
 k-points in reciprocal lattice and weights: k-points                                
   0.00000000  0.00000000  0.00000000       0.037
   0.33333333  0.00000000  0.00000000       0.074
   0.00000000  0.33333333  0.00000000       0.074
   0.33333333  0.33333333  0.00000000       0.074
  -0.33333333  0.33333333  0.00000000       0.074
  -0.00000000 -0.00000000  0.33333333       0.074
   0.33333333  0.00000000  0.33333333       0.074
  -0.33333333 -0.00000000  0.33333333       0.074
   0.00000000  0.33333333  0.33333333       0.074
   0.33333333  0.33333333  0.33333333       0.074
  -0.33333333  0.33333333  0.33333333       0.074
  -0.00000000 -0.33333333  0.33333333       0.074
   0.33333333 -0.33333333  0.33333333       0.074
  -0.33333333 -0.33333333  0.33333333       0.074
 
 position of ions in fractional coordinates (direct lattice) 
   0.74282600  0.16219000  0.49139700
   0.75450600  0.83398800  0.82329000
   0.50008500  0.34194700  0.99477900
   0.24426200  0.17250600  0.17505800
   0.00358500  0.33860200  0.66433500
   0.24332000  0.83277100  0.50173600
   0.75334400  0.14674700  0.82878800
   0.50125100  0.66832800  0.33026100
   0.76904600  0.49045100  0.17955400
   0.50297700  0.99180600  0.32637800
   0.99468000  0.99799500  0.33035500
   0.25375700  0.16101400  0.49234300
   0.00494000  0.00184900  0.65736500
   0.99965700  0.66771000  0.33447800
   0.99898900  0.66225100  0.66449500
   0.49423800  0.99346400  0.65526000
   0.50060200  0.66310500  0.66136300
   0.00726200  0.33380500  0.34855600
   0.49316600  0.33998100  0.34054100
   0.75467400  0.83669800  0.50381100
   0.23619500  0.49078300  0.17757000
   0.24609400  0.50796400  0.49796000
   0.24506800  0.52667200  0.82624700
   0.00795700  0.67045900  0.00100900
   0.22797300  0.83735300  0.17551900
   0.75452400  0.50123900  0.49265100
   0.77297400  0.83303100  0.17267300
   0.99604700  0.98691800  0.01077600
   0.75215500  0.16908000  0.17849600
   0.24351300  0.83071800  0.82496400
   0.75700800  0.52262700  0.82723100
   0.24572600  0.14348000  0.83148000
   0.99961900  0.34165800  0.98467300
   0.50347900  0.99274700  0.01555600
   0.49870100  0.34236800  0.67250500
   0.49579900  0.66569700  0.00654500
 
 position of ions in cartesian coordinates  (Angst):
   5.05211196  1.65419367  5.00228681
   5.13549803  8.49732070  8.37976690
   3.39892967  3.48142438 10.13098399
   1.66226991  1.75812530  1.78146220
   0.02309883  3.44625672  6.76652251
   1.65971083  8.48369697  5.10593361
   5.12131344  1.49498923  8.43980924
   3.41419632  6.81070374  3.35868475
   5.23553366  5.00077238  1.82306339
   3.42890320 10.10665098  3.31722266
   6.77426953 10.17262400  3.35550809
   1.72467941  1.63928580  5.01411784
   0.02930453  0.01513072  6.69747365
   6.80510358  6.80735895  3.39942527
   6.79833948  6.74985655  6.76180991
   3.36729958 10.12162191  6.66803789
   3.40755650  6.75559989  6.73212236
   0.05014811  3.39919782  3.54924707
   3.35613925  3.46507195  3.46537903
   5.13876609  8.52675064  5.12476608
   1.61026013  5.00098475  1.80522922
   1.67565831  5.17427898  5.06935030
   1.66668943  5.36302166  8.41396918
   0.06021964  6.83134337  0.00632150
   1.55748279  8.53214639  1.78234165
   5.13477172  5.10882404  5.01302692
   5.26541523  8.49137995  1.75093482
   6.78557049 10.06158604  0.09956375
   5.11770226  1.72623089  1.81423997
   1.65888018  8.46094203  8.39912533
   5.14966634  5.32485839  8.42173012
   1.66765097  1.45865549  8.46952437
   6.79760851  3.48151995 10.02578889
   3.43437066 10.11800936  0.15043180
   3.39163617  3.48753835  6.84752688
   3.37920765  6.78570481  0.06057200
 


--------------------------------------------------------------------------------------------------------


 k-point  1 :   0.0000 0.0000 0.0000  plane waves:    8367
 k-point  2 :   0.3333 0.0000 0.0000  plane waves:    8338
 k-point  3 :   0.0000 0.3333 0.0000  plane waves:    8342
 k-point  4 :   0.3333 0.3333 0.0000  plane waves:    8333
 k-point  5 :  -0.3333 0.3333 0.0000  plane waves:    8334
 k-point  6 :  -0.0000-0.0000 0.3333  plane waves:    8344
 k-point  7 :   0.3333 0.0000 0.3333  plane waves:    8334
 k-point  8 :  -0.3333-0.0000 0.3333  plane waves:    8332
 k-point  9 :   0.0000 0.3333 0.3333  plane waves:    8320
 k-point 10 :   0.3333 0.3333 0.3333  plane waves:    8323
 k-point 11 :  -0.3333 0.3333 0.3333  plane waves:    8321
 k-point 12 :  -0.0000-0.3333 0.3333  plane waves:    8326
 k-point 13 :   0.3333-0.3333 0.3333  plane waves:    8331
 k-point 14 :  -0.3333-0.3333 0.3333  plane waves:    8327

 maximum and minimum number of plane-waves per node :      1693     1605

 maximum number of plane-waves:      8367
 maximum index in each direction: 
   IXMAX=    9   IYMAX=   14   IZMAX=   14
   IXMIN=   -9   IYMIN=  -14   IZMIN=  -14

 NGX is ok and might be reduce to  38
 NGY is ok and might be reduce to  58
 NGZ is ok and might be reduce to  58

 real space projection operators:
  total allocation   :      28728.56 KBytes
  max/ min on nodes  :       5774.77       5718.80


 parallel 3D FFT for wavefunctions:
    minimum data exchange during FFTs selected (reduces bandwidth)
 parallel 3D FFT for charge:
    minimum data exchange during FFTs selected (reduces bandwidth)


 total amount of memory used by VASP on root node    66880. kBytes
========================================================================

   base      :      30000. kBytes
   nonlr-proj:      11014. kBytes
   fftplans  :       2814. kBytes
   grid      :       5360. kBytes
   one-center:        124. kBytes
   wavefun   :      17568. kBytes
 
     INWAV:  cpu time    0.0000: real time    0.0000
 Broyden mixing: mesh for mixing (old mesh)
   NGX = 19   NGY = 29   NGZ = 29
  (NGX  = 80   NGY  =120   NGZ  =120)
  gives a total of  15979 points

 initial charge density was supplied:
 charge density of overlapping atoms calculated
 number of electron     286.0000000 magnetization 
 keeping initial charge density in first step


--------------------------------------------------------------------------------------------------------


 Maximum index for non-local projection operator         1280
 Maximum index for augmentation-charges          688 (set IRDMAX)


--------------------------------------------------------------------------------------------------------


 First call to EWALD:  gamma=   0.199
 Maximum number of real-space cells 3x 2x 2
 Maximum number of reciprocal cells 2x 3x 3

 FEWALD executed in parallel
    FEWALD:  cpu time    0.0421: real time    0.0425


----------------------------------------- Iteration    1(   1)  ---------------------------------------


    POTLOK:  cpu time    0.0512: real time    0.0685
    SETDIJ:  cpu time    0.0107: real time    0.0107
     EDDAV:  cpu time    1.0060: real time    1.0132
       DOS:  cpu time    0.0018: real time    0.0018
    --------------------------------------------
      LOOP:  cpu time    1.0737: real time    1.3430

 eigenvalue-minimisations  :  5368
 total energy-change (2. order) : 0.1736195E+04  (-0.1071940E+05)
 number of electron     286.0000000 magnetization 
 augmentation part      286.0000000 magnetization 

 Free energy of the ion-electron system (eV)
  ---------------------------------------------------
  alpha Z        PSCENC =      1528.22865352
  Ewald energy   TEWEN  =    -19039.42838266
  -Hartree energ DENC   =     -6228.50580295
  -exchange      EXHF   =         0.00000000
  -V(xc)+E(xc)   XCENC  =      -459.59595603
  PAW double counting   =     20741.57109510   -19038.81061923
  entropy T*S    EENTRO =         0.00173587
  eigenvalues    EBANDS =         9.89981162
  atomic energy  EATOM  =     24222.83424230
  Solvation  Ediel_sol  =         0.00000000
  ---------------------------------------------------
  free energy    TOTEN  =      1736.19477754 eV

  energy without entropy =     1736.19304167  energy(sigma->0) =     1736.19419892


--------------------------------------------------------------------------------------------------------




----------------------------------------- Iteration    1(   2)  ---------------------------------------


     EDDAV:  cpu time    1.0987: real time    1.1090
       DOS:  cpu time    0.0011: real time    0.0011
    --------------------------------------------
      LOOP:  cpu time    1.1005: real time    1.2392

 eigenvalue-minimisations  :  5628
 total energy-change (2. order) :-0.1861759E+04  (-0.1796412E+04)
 number of electron     286.0000000 magnetization 
 augmentation part      286.0000000 magnetization 

 Free energy of the ion-electron system (eV)
  ---------------------------------------------------
  alpha Z        PSCENC =      1528.22865352
  Ewald energy   TEWEN  =    -19039.42838266
  -Hartree energ DENC   =     -6228.50580295
  -exchange      EXHF   =         0.00000000
  -V(xc)+E(xc)   XCENC  =      -459.59595603
  PAW double counting   =     20741.57109510   -19038.81061923
  entropy T*S    EENTRO =         0.00241640
  eigenvalues    EBANDS =     -1851.85983082
  atomic energy  EATOM  =     24222.83424230
  Solvation  Ediel_sol  =         0.00000000
  ---------------------------------------------------
  free energy    TOTEN  =      -125.56418437 eV

  energy without entropy =     -125.56660077  energy(sigma->0) =     -125.56498984


--------------------------------------------------------------------------------------------------------




----------------------------------------- Iteration    1(   3)  ---------------------------------------


     EDDAV:  cpu time    1.4323: real time    1.4557
       DOS:  cpu time    0.0012: real time    0.0012
    --------------------------------------------
      LOOP:  cpu time    1.4340: real time    1.4812

 eigenvalue-minimisations  :  8176
 total energy-change (2. order) :-0.2340877E+03  (-0.2221397E+03)
 number of electron     286.0000000 magnetization 
 augmentation part      286.0000000 magnetization 

 Free energy of the ion-electron system (eV)
  ---------------------------------------------------
  alpha Z        PSCENC =      1528.22865352
  Ewald energy   TEWEN  =    -19039.42838266
  -Hartree energ DENC   =     -6228.50580295
  -exchange      EXHF   =         0.00000000
  -V(xc)+E(xc)   XCENC  =      -459.59595603
  PAW double counting   =     20741.57109510   -19038.81061923
  entropy T*S    EENTRO =        -0.00175510
  eigenvalues    EBANDS =     -2085.94335426
  atomic energy  EATOM  =     24222.83424230
  Solvation  Ediel_sol  =         0.00000000
  ---------------------------------------------------
  free energy    TOTEN  =      -359.65187931 eV

  energy without entropy =     -359.65012420  energy(sigma->0) =     -359.65129427


--------------------------------------------------------------------------------------------------------




----------------------------------------- Iteration    1(   4)  ---------------------------------------


     EDDAV:  cpu time    1.5188: real time    1.5528
       DOS:  cpu time    0.0009: real time    0.0009
    --------------------------------------------
      LOOP:  cpu time    1.5206: real time    1.5856

 eigenvalue-minimisations  :  8112
 total energy-change (2. order) :-0.2664608E+02  (-0.2525151E+02)
 number of electron     286.0000000 magnetization 
 augmentation part      286.0000000 magnetization 

 Free energy of the ion-electron system (eV)
  ---------------------------------------------------
  alpha Z        PSCENC =      1528.22865352
  Ewald energy   TEWEN  =    -19039.42838266
  -Hartree energ DENC   =     -6228.50580295
  -exchange      EXHF   =         0.00000000
  -V(xc)+E(xc)   XCENC  =      -459.59595603
  PAW double counting   =     20741.57109510   -19038.81061923
  entropy T*S    EENTRO =         0.02665579
  eigenvalues    EBANDS =     -2112.61784449
  atomic energy  EATOM  =     24222.83424230
  Solvation  Ediel_sol  =         0.00000000
  ---------------------------------------------------
  free energy    TOTEN  =      -386.29795865 eV

  energy without entropy =     -386.32461444  energy(sigma->0) =     -386.30684391


--------------------------------------------------------------------------------------------------------




----------------------------------------- Iteration    1(   5)  ---------------------------------------


     EDDAV:  cpu time    1.3360: real time    1.4248
       DOS:  cpu time    0.0011: real time    0.0011
    CHARGE:  cpu time    0.0317: real time    0.0319
    MIXING:  cpu time    0.0013: real time    0.0014
    --------------------------------------------
      LOOP:  cpu time    1.3705: real time    1.4956

 eigenvalue-minimisations  :  7768
 total energy-change (2. order) :-0.2610486E+01  (-0.2551354E+01)
 number of electron     286.0000001 magnetization 
 augmentation part       18.9314755 magnetization 

 Broyden mixing:
  rms(total) = 0.65101E+01    rms(broyden)= 0.65096E+01
  rms(prec ) = 0.67995E+01
  weight for this iteration     100.00

 Free energy of the ion-electron system (eV)
  ---------------------------------------------------
  alpha Z        PSCENC =      1528.22865352
  Ewald energy   TEWEN  =    -19039.42838266
  -Hartree energ DENC   =     -6228.50580295
  -exchange      EXHF   =         0.00000000
  -V(xc)+E(xc)   XCENC  =      -459.59595603
  PAW double counting   =     20741.57109510   -19038.81061923
  entropy T*S    EENTRO =         0.02739819
  eigenvalues    EBANDS =     -2115.22907315
  atomic energy  EATOM  =     24222.83424230
  Solvation  Ediel_sol  =         0.00000000
  ---------------------------------------------------
  free energy    TOTEN  =      -388.90844490 eV

  energy without entropy =     -388.93584309  energy(sigma->0) =     -388.91757763


--------------------------------------------------------------------------------------------------------




----------------------------------------- Iteration    1(   6)  ---------------------------------------


    POTLOK:  cpu time    0.0404: real time    0.0407
    SETDIJ:  cpu time    0.0037: real time    0.0037
    EDDIAG:  cpu time    0.0744: real time    0.0749
  RMM-DIIS:  cpu time    0.7732: real time    0.7785
    ORTHCH:  cpu time    0.0113: real time    0.0114
       DOS:  cpu time    0.0027: real time    0.0027
    CHARGE:  cpu time    0.0305: real time    0.0306
    MIXING:  cpu time    0.0019: real time    0.0026
    --------------------------------------------
      LOOP:  cpu time    0.9388: real time    0.9849

 eigenvalue-minimisations  :  6751
 total energy-change (2. order) : 0.1047885E+02  (-0.2450706E+01)
 number of electron     286.0000000 magnetization 
 augmentation part       19.6967201 magnetization 

 Broyden mixing:
  rms(total) = 0.31879E+01    rms(broyden)= 0.31879E+01
  rms(prec ) = 0.35174E+01
  weight for this iteration     100.00

 eigenvalues of (default mixing * dielectric matrix)
  average eigenvalue GAMMA=   1.8588
  1.8588

 Free energy of the ion-electron system (eV)
  ---------------------------------------------------
  alpha Z        PSCENC =      1528.22865352
  Ewald energy   TEWEN  =    -19039.42838266
  -Hartree energ DENC   =     -6078.05309306
  -exchange      EXHF   =         0.00000000
  -V(xc)+E(xc)   XCENC  =      -461.72311521
  PAW double counting   =     25884.95254282   -24189.61963546
  entropy T*S    EENTRO =         0.03113987
  eigenvalues    EBANDS =     -2245.65194458
  atomic energy  EATOM  =     24222.83424230
  Solvation  Ediel_sol  =         0.00000000
  ---------------------------------------------------
  free energy    TOTEN  =      -378.42959247 eV

  energy without entropy =     -378.46073233  energy(sigma->0) =     -378.43997242


--------------------------------------------------------------------------------------------------------




----------------------------------------- Iteration    1(   7)  ---------------------------------------


    POTLOK:  cpu time    0.0286: real time    0.0287
    SETDIJ:  cpu time    0.0068: real time    0.0068
    EDDIAG:  cpu time    0.0856: real time    0.0859
  RMM-DIIS:  cpu time    0.7868: real time    0.7907
    ORTHCH:  cpu time    0.0112: real time    0.0113
       DOS:  cpu time    0.0028: real time    0.0028
    CHARGE:  cpu time    0.0310: real time    0.0311
    MIXING:  cpu time    0.0013: real time    0.0013
    --------------------------------------------
      LOOP:  cpu time    0.9548: real time    1.0009

 eigenvalue-minimisations  :  7402
 total energy-change (2. order) :-0.3213291E+01  (-0.3323824E+01)
 number of electron     286.0000001 magnetization 
 augmentation part       20.2150009 magnetization 

 Broyden mixing:
  rms(total) = 0.13015E+01    rms(broyden)= 0.13010E+01
  rms(prec ) = 0.37903E+01
  weight for this iteration     100.00

 eigenvalues of (default mixing * dielectric matrix)
  average eigenvalue GAMMA=   1.1602
  1.8402  0.4802

 Free energy of the ion-electron system (eV)
  ---------------------------------------------------
  alpha Z        PSCENC =      1528.22865352
  Ewald energy   TEWEN  =    -19039.42838266
  -Hartree energ DENC   =     -5971.12116500
  -exchange      EXHF   =         0.00000000
  -V(xc)+E(xc)   XCENC  =      -460.76557374
  PAW double counting   =     30700.19455820   -29000.32248426
  entropy T*S    EENTRO =         0.00294248
  eigenvalues    EBANDS =     -2361.26567410
  atomic energy  EATOM  =     24222.83424230
  Solvation  Ediel_sol  =         0.00000000
  ---------------------------------------------------
  free energy    TOTEN  =      -381.64288326 eV

  energy without entropy =     -381.64582574  energy(sigma->0) =     -381.64386408


--------------------------------------------------------------------------------------------------------




----------------------------------------- Iteration    1(   8)  ---------------------------------------


    POTLOK:  cpu time    0.0290: real time    0.0291
    SETDIJ:  cpu time    0.0038: real time    0.0038
    EDDIAG:  cpu time    0.1411: real time    0.1415
  RMM-DIIS:  cpu time    0.7472: real time    0.7514
    ORTHCH:  cpu time    0.0112: real time    0.0112
       DOS:  cpu time    0.0012: real time    0.0012
    CHARGE:  cpu time    0.0307: real time    0.0308
    MIXING:  cpu time    0.0012: real time    0.0012
    --------------------------------------------
      LOOP:  cpu time    0.9660: real time    1.0041

 eigenvalue-minimisations  :  6937
 total energy-change (2. order) : 0.7787268E+01  (-0.8248127E+00)
 number of electron     286.0000001 magnetization 
 augmentation part       20.0208128 magnetization 

 Broyden mixing:
  rms(total) = 0.43343E+00    rms(broyden)= 0.43274E+00
  rms(prec ) = 0.70690E+00
  weight for this iteration     100.00

 eigenvalues of (default mixing * dielectric matrix)
  average eigenvalue GAMMA=   1.1382
  1.8754  1.1371  0.4019

 Free energy of the ion-electron system (eV)
  ---------------------------------------------------
  alpha Z        PSCENC =      1528.22865352
  Ewald energy   TEWEN  =    -19039.42838266
  -Hartree energ DENC   =     -5995.41975496
  -exchange      EXHF   =         0.00000000
  -V(xc)+E(xc)   XCENC  =      -459.13332223
  PAW double counting   =     31907.00443011   -30204.07983932
  entropy T*S    EENTRO =         0.02587863
  eigenvalues    EBANDS =     -2333.88752114
  atomic energy  EATOM  =     24222.83424230
  Solvation  Ediel_sol  =         0.00000000
  ---------------------------------------------------
  free energy    TOTEN  =      -373.85561575 eV

  energy without entropy =     -373.88149438  energy(sigma->0) =     -373.86424196


--------------------------------------------------------------------------------------------------------




----------------------------------------- Iteration    1(   9)  ---------------------------------------


    POTLOK:  cpu time    0.0295: real time    0.0297
    SETDIJ:  cpu time    0.0038: real time    0.0039
    EDDIAG:  cpu time    0.0776: real time    0.0780
  RMM-DIIS:  cpu time    0.7859: real time    0.7897
    ORTHCH:  cpu time    0.0124: real time    0.0125
       DOS:  cpu time    0.0014: real time    0.0014
    CHARGE:  cpu time    0.0299: real time    0.0300
    MIXING:  cpu time    0.0017: real time    0.0017
    --------------------------------------------
      LOOP:  cpu time    0.9428: real time    0.9874

 eigenvalue-minimisations  :  7434
 total energy-change (2. order) : 0.2237561E+00  (-0.3300514E+00)
 number of electron     286.0000001 magnetization 
 augmentation part       19.9397734 magnetization 

 Broyden mixing:
  rms(total) = 0.28643E+00    rms(broyden)= 0.28619E+00
  rms(prec ) = 0.44440E+00
  weight for this iteration     100.00

 eigenvalues of (default mixing * dielectric matrix)
  average eigenvalue GAMMA=   1.0552
  1.7972  1.5989  0.4123  0.4123

 Free energy of the ion-electron system (eV)
  ---------------------------------------------------
  alpha Z        PSCENC =      1528.22865352
  Ewald energy   TEWEN  =    -19039.42838266
  -Hartree energ DENC   =     -5997.28661727
  -exchange      EXHF   =         0.00000000
  -V(xc)+E(xc)   XCENC  =      -458.55009311
  PAW double counting   =     32163.20281531   -30456.57242749
  entropy T*S    EENTRO =         0.02331662
  eigenvalues    EBANDS =     -2336.08336684
  atomic energy  EATOM  =     24222.83424230
  Solvation  Ediel_sol  =         0.00000000
  ---------------------------------------------------
  free energy    TOTEN  =      -373.63185962 eV

  energy without entropy =     -373.65517624  energy(sigma->0) =     -373.63963183


--------------------------------------------------------------------------------------------------------




----------------------------------------- Iteration    1(  10)  ---------------------------------------


    POTLOK:  cpu time    0.0299: real time    0.0301
    SETDIJ:  cpu time    0.0038: real time    0.0038
    EDDIAG:  cpu time    0.1134: real time    0.1142
  RMM-DIIS:  cpu time    0.7898: real time    0.7941
    ORTHCH:  cpu time    0.0110: real time    0.0110
       DOS:  cpu time    0.0248: real time    0.0249
    CHARGE:  cpu time    0.0716: real time    0.0782
    MIXING:  cpu time    0.0014: real time    0.0014
    --------------------------------------------
      LOOP:  cpu time    1.0463: real time    1.0930

 eigenvalue-minimisations  :  7465
 total energy-change (2. order) : 0.6277460E-01  (-0.5876946E-01)
 number of electron     286.0000001 magnetization 
 augmentation part       19.8755782 magnetization 

 Broyden mixing:
  rms(total) = 0.15773E+00    rms(broyden)= 0.15766E+00
  rms(prec ) = 0.28193E+00
  weight for this iteration     100.00

 eigenvalues of (default mixing * dielectric matrix)
  average eigenvalue GAMMA=   1.0648
  1.8695  1.8695  0.7327  0.4262  0.4262

 Free energy of the ion-electron system (eV)
  ---------------------------------------------------
  alpha Z        PSCENC =      1528.22865352
  Ewald energy   TEWEN  =    -19039.42838266
  -Hartree energ DENC   =     -6004.90349305
  -exchange      EXHF   =         0.00000000
  -V(xc)+E(xc)   XCENC  =      -457.89925211
  PAW double counting   =     32398.18281652   -30686.33276343
  entropy T*S    EENTRO =         0.02509867
  eigenvalues    EBANDS =     -2334.27600479
  atomic energy  EATOM  =     24222.83424230
  Solvation  Ediel_sol  =         0.00000000
  ---------------------------------------------------
  free energy    TOTEN  =      -373.56908503 eV

  energy without entropy =     -373.59418370  energy(sigma->0) =     -373.57745125


--------------------------------------------------------------------------------------------------------




----------------------------------------- Iteration    1(  11)  ---------------------------------------


    POTLOK:  cpu time    0.0297: real time    0.0300
    SETDIJ:  cpu time    0.0045: real time    0.0045
    EDDIAG:  cpu time    0.0736: real time    0.0763
  RMM-DIIS:  cpu time    0.7795: real time    0.7837
    ORTHCH:  cpu time    0.0114: real time    0.0114
       DOS:  cpu time    0.0010: real time    0.0010
    CHARGE:  cpu time    0.0288: real time    0.0290
    MIXING:  cpu time    0.0016: real time    0.0016
    --------------------------------------------
      LOOP:  cpu time    0.9309: real time    0.9680

 eigenvalue-minimisations  :  7371
 total energy-change (2. order) : 0.3535656E-01  (-0.1609946E-01)
 number of electron     286.0000001 magnetization 
 augmentation part       19.8454571 magnetization 

 Broyden mixing:
  rms(total) = 0.93522E-01    rms(broyden)= 0.93480E-01
  rms(prec ) = 0.16919E+00
  weight for this iteration     100.00

 eigenvalues of (default mixing * dielectric matrix)
  average eigenvalue GAMMA=   1.0598
  2.0284  2.0284  0.9990  0.4747  0.4408  0.3879

 Free energy of the ion-electron system (eV)
  ---------------------------------------------------
  alpha Z        PSCENC =      1528.22865352
  Ewald energy   TEWEN  =    -19039.42838266
  -Hartree energ DENC   =     -6008.20403326
  -exchange      EXHF   =         0.00000000
  -V(xc)+E(xc)   XCENC  =      -457.60484970
  PAW double counting   =     32531.12042053   -30816.37487040
  entropy T*S    EENTRO =         0.02343112
  eigenvalues    EBANDS =     -2334.12833991
  atomic energy  EATOM  =     24222.83424230
  Solvation  Ediel_sol  =         0.00000000
  ---------------------------------------------------
  free energy    TOTEN  =      -373.53372847 eV

  energy without entropy =     -373.55715959  energy(sigma->0) =     -373.54153884


--------------------------------------------------------------------------------------------------------




----------------------------------------- Iteration    1(  12)  ---------------------------------------


    POTLOK:  cpu time    0.0299: real time    0.0301
    SETDIJ:  cpu time    0.0037: real time    0.0037
    EDDIAG:  cpu time    0.0729: real time    0.0732
  RMM-DIIS:  cpu time    0.8688: real time    0.8725
    ORTHCH:  cpu time    0.0115: real time    0.0115
       DOS:  cpu time    0.0009: real time    0.0009
    CHARGE:  cpu time    0.0309: real time    0.0310
    MIXING:  cpu time    0.0015: real time    0.0015
    --------------------------------------------
      LOOP:  cpu time    1.0207: real time    1.0481

 eigenvalue-minimisations  :  7472
 total energy-change (2. order) : 0.6672329E-02  (-0.8019326E-02)
 number of electron     286.0000001 magnetization 
 augmentation part       19.8378437 magnetization 

 Broyden mixing:
  rms(total) = 0.52435E-01    rms(broyden)= 0.52401E-01
  rms(prec ) = 0.87816E-01
  weight for this iteration     100.00

 eigenvalues of (default mixing * dielectric matrix)
  average eigenvalue GAMMA=   1.0205
  2.2803  1.9163  1.1161  0.5538  0.5538  0.3615  0.3615

 Free energy of the ion-electron system (eV)
  ---------------------------------------------------
  alpha Z        PSCENC =      1528.22865352
  Ewald energy   TEWEN  =    -19039.42838266
  -Hartree energ DENC   =     -6009.88475913
  -exchange      EXHF   =         0.00000000
  -V(xc)+E(xc)   XCENC  =      -457.43044800
  PAW double counting   =     32650.67842214   -30933.63430531
  entropy T*S    EENTRO =         0.02302351
  eigenvalues    EBANDS =     -2334.91350251
  atomic energy  EATOM  =     24222.83424230
  Solvation  Ediel_sol  =         0.00000000
  ---------------------------------------------------
  free energy    TOTEN  =      -373.52705614 eV

  energy without entropy =     -373.55007965  energy(sigma->0) =     -373.53473064


--------------------------------------------------------------------------------------------------------




----------------------------------------- Iteration    1(  13)  ---------------------------------------


    POTLOK:  cpu time    0.0295: real time    0.0297
    SETDIJ:  cpu time    0.0037: real time    0.0037
    EDDIAG:  cpu time    0.0726: real time    0.0734
  RMM-DIIS:  cpu time    0.8808: real time    0.8865
    ORTHCH:  cpu time    0.0112: real time    0.0113
       DOS:  cpu time    0.0044: real time    0.0044
    CHARGE:  cpu time    0.0760: real time    0.0770
    MIXING:  cpu time    0.0016: real time    0.0016
    --------------------------------------------
      LOOP:  cpu time    1.0806: real time    1.1099

 eigenvalue-minimisations  :  7486
 total energy-change (2. order) : 0.1765576E-02  (-0.2584186E-02)
 number of electron     286.0000001 magnetization 
 augmentation part       19.8363134 magnetization 

 Broyden mixing:
  rms(total) = 0.28228E-01    rms(broyden)= 0.28216E-01
  rms(prec ) = 0.53277E-01
  weight for this iteration     100.00

 eigenvalues of (default mixing * dielectric matrix)
  average eigenvalue GAMMA=   1.0244
  2.4061  1.9004  1.1569  0.9719  0.5884  0.4102  0.4102  0.3510

 Free energy of the ion-electron system (eV)
  ---------------------------------------------------
  alpha Z        PSCENC =      1528.22865352
  Ewald energy   TEWEN  =    -19039.42838266
  -Hartree energ DENC   =     -6010.81616538
  -exchange      EXHF   =         0.00000000
  -V(xc)+E(xc)   XCENC  =      -457.34499909
  PAW double counting   =     32738.22737931   -31019.72112258
  entropy T*S    EENTRO =         0.02269924
  eigenvalues    EBANDS =     -2335.52759522
  atomic energy  EATOM  =     24222.83424230
  Solvation  Ediel_sol  =         0.00000000
  ---------------------------------------------------
  free energy    TOTEN  =      -373.52529056 eV

  energy without entropy =     -373.54798980  energy(sigma->0) =     -373.53285698


--------------------------------------------------------------------------------------------------------




----------------------------------------- Iteration    1(  14)  ---------------------------------------


    POTLOK:  cpu time    0.1096: real time    0.1108
    SETDIJ:  cpu time    0.0111: real time    0.0112
    EDDIAG:  cpu time    0.1071: real time    0.1097
  RMM-DIIS:  cpu time    0.8258: real time    0.8412
    ORTHCH:  cpu time    0.0119: real time    0.0119
       DOS:  cpu time    0.0008: real time    0.0008
    CHARGE:  cpu time    0.0307: real time    0.0308
    MIXING:  cpu time    0.0018: real time    0.0018
    --------------------------------------------
      LOOP:  cpu time    1.0996: real time    1.1525

 eigenvalue-minimisations  :  7508
 total energy-change (2. order) : 0.8466744E-03  (-0.8186756E-03)
 number of electron     286.0000001 magnetization 
 augmentation part       19.8338037 magnetization 

 Broyden mixing:
  rms(total) = 0.17518E-01    rms(broyden)= 0.17514E-01
  rms(prec ) = 0.31650E-01
  weight for this iteration     100.00

 eigenvalues of (default mixing * dielectric matrix)
  average eigenvalue GAMMA=   1.0078
  2.4238  1.9177  1.2175  1.2175  0.5718  0.5718  0.4061  0.4061  0.3380

 Free energy of the ion-electron system (eV)
  ---------------------------------------------------
  alpha Z        PSCENC =      1528.22865352
  Ewald energy   TEWEN  =    -19039.42838266
  -Hartree energ DENC   =     -6011.17570683
  -exchange      EXHF   =         0.00000000
  -V(xc)+E(xc)   XCENC  =      -457.31766949
  PAW double counting   =     32768.23357405   -31049.27447740
  entropy T*S    EENTRO =         0.02294205
  eigenvalues    EBANDS =     -2335.64761944
  atomic energy  EATOM  =     24222.83424230
  Solvation  Ediel_sol  =         0.00000000
  ---------------------------------------------------
  free energy    TOTEN  =      -373.52444389 eV

  energy without entropy =     -373.54738594  energy(sigma->0) =     -373.53209124


--------------------------------------------------------------------------------------------------------




----------------------------------------- Iteration    1(  15)  ---------------------------------------


    POTLOK:  cpu time    0.0288: real time    0.0289
    SETDIJ:  cpu time    0.0038: real time    0.0038
    EDDIAG:  cpu time    0.0719: real time    0.0722
  RMM-DIIS:  cpu time    0.7824: real time    0.7918
    ORTHCH:  cpu time    0.0113: real time    0.0115
       DOS:  cpu time    0.0017: real time    0.0017
    CHARGE:  cpu time    0.0287: real time    0.0288
    MIXING:  cpu time    0.0016: real time    0.0016
    --------------------------------------------
      LOOP:  cpu time    0.9309: real time    0.9684

 eigenvalue-minimisations  :  7482
 total energy-change (2. order) : 0.9722738E-04  (-0.5765094E-03)
 number of electron     286.0000001 magnetization 
 augmentation part       19.8333921 magnetization 

 Broyden mixing:
  rms(total) = 0.96459E-02    rms(broyden)= 0.96372E-02
  rms(prec ) = 0.15984E-01
  weight for this iteration     100.00

 eigenvalues of (default mixing * dielectric matrix)
  average eigenvalue GAMMA=   1.0024
  2.4578  1.9546  1.6233  1.0088  0.7370  0.6928  0.4195  0.4195  0.3703  0.3400

 Free energy of the ion-electron system (eV)
  ---------------------------------------------------
  alpha Z        PSCENC =      1528.22865352
  Ewald energy   TEWEN  =    -19039.42838266
  -Hartree energ DENC   =     -6011.95905037
  -exchange      EXHF   =         0.00000000
  -V(xc)+E(xc)   XCENC  =      -457.28828086
  PAW double counting   =     32787.93600610   -31068.70116876
  entropy T*S    EENTRO =         0.02291778
  eigenvalues    EBANDS =     -2335.16928371
  atomic energy  EATOM  =     24222.83424230
  Solvation  Ediel_sol  =         0.00000000
  ---------------------------------------------------
  free energy    TOTEN  =      -373.52434666 eV

  energy without entropy =     -373.54726445  energy(sigma->0) =     -373.53198592


--------------------------------------------------------------------------------------------------------




----------------------------------------- Iteration    1(  16)  ---------------------------------------


    POTLOK:  cpu time    0.0289: real time    0.0290
    SETDIJ:  cpu time    0.0038: real time    0.0038
    EDDIAG:  cpu time    0.0729: real time    0.0731
  RMM-DIIS:  cpu time    0.7653: real time    0.7685
    ORTHCH:  cpu time    0.0115: real time    0.0116
       DOS:  cpu time    0.0016: real time    0.0016
    CHARGE:  cpu time    0.0295: real time    0.0296
    MIXING:  cpu time    0.0017: real time    0.0017
    --------------------------------------------
      LOOP:  cpu time    0.9159: real time    0.9482

 eigenvalue-minimisations  :  7206
 total energy-change (2. order) :-0.8760181E-04  (-0.2210607E-03)
 number of electron     286.0000001 magnetization 
 augmentation part       19.8336860 magnetization 

 Broyden mixing:
  rms(total) = 0.65256E-02    rms(broyden)= 0.65239E-02
  rms(prec ) = 0.11963E-01
  weight for this iteration     100.00

 eigenvalues of (default mixing * dielectric matrix)
  average eigenvalue GAMMA=   0.9842
  2.5024  2.0527  1.6386  1.0343  0.7826  0.7826  0.4759  0.4759  0.3758  0.3758
  0.3295

 Free energy of the ion-electron system (eV)
  ---------------------------------------------------
  alpha Z        PSCENC =      1528.22865352
  Ewald energy   TEWEN  =    -19039.42838266
  -Hartree energ DENC   =     -6012.09157501
  -exchange      EXHF   =         0.00000000
  -V(xc)+E(xc)   XCENC  =      -457.28633459
  PAW double counting   =     32803.09015368   -31083.67389607
  entropy T*S    EENTRO =         0.02298620
  eigenvalues    EBANDS =     -2335.22028164
[...]
     94       5.3203      2.00000
     95       5.3954      2.00000
     96       5.4551      2.00000
     97       5.4974      2.00000
     98       5.5437      2.00000
     99       5.6594      2.00000
    100       5.7120      2.00000
    101       5.7736      2.00000
    102       5.9593      2.00000
    103       6.0056      2.00000
    104       6.0510      2.00000
    105       6.0860      2.00000
    106       6.1101      2.00000
    107       6.1281      2.00000
    108       6.1503      2.00000
    109       6.1844      2.00000
    110       6.2261      2.00000
    111       6.2466      2.00000
    112       6.2924      2.00000
    113       6.3108      2.00000
    114       6.3409      2.00000
    115       6.3834      2.00000
    116       6.3990      2.00000
    117       6.4505      2.00000
    118       6.4580      2.00000
    119       6.4990      2.00000
    120       6.5241      2.00000
    121       6.5412      2.00000
    122       6.6346      2.00000
    123       6.7098      2.00000
    124       6.7498      2.00000
    125       6.7902      2.00000
    126       6.8386      2.00000
    127       6.8808      2.00000
    128       6.9150      2.00000
    129       6.9411      2.00000
    130       6.9790      2.00002
    131       7.0459      2.00033
    132       7.0687      2.00074
    133       7.0968      2.00181
    134       7.1471      2.00739
    135       7.1775      2.01513
    136       7.2033      2.02556
    137       7.2509      2.05282
    138       7.2573      2.05665
    139       7.2856      2.06949
    140       7.3199      2.06159
    141       7.3388      2.03583
    142       7.3692      1.94521
    143       7.3883      1.85012
    144       7.4284      1.54618
    145       7.4775      1.02860
    146       7.4955      0.82628
    147       7.5707      0.15583
    148       7.5985      0.02527
    149       7.6287     -0.04836
    150       7.6463     -0.06609
    151       7.7112     -0.05154
    152       7.7296     -0.04031
    153       7.7667     -0.02105
    154       7.7891     -0.01309
    155       7.8204     -0.00609
    156       7.8517     -0.00256
    157       7.9110     -0.00037
    158       7.9541     -0.00007
    159       7.9994     -0.00001
    160       8.0397     -0.00000
    161       8.1185     -0.00000
    162       8.2051     -0.00000
    163       8.2558     -0.00000
    164       8.2666     -0.00000
    165       8.5899     -0.00000
    166       8.6984     -0.00000
    167       8.7360     -0.00000
    168       9.4070     -0.00000
    169       9.4852     -0.00000
    170       9.5007     -0.00000
    171       9.5484     -0.00000
    172       9.6930     -0.00000


--------------------------------------------------------------------------------------------------------


 soft charge-density along one line, spin component           1
         0         1         2         3         4         5         6         7         8         9
 total charge-density along one line
 
 pseudopotential strength for first ion, spin component:           1
 -5.038   0.000  -0.000  -0.003  -0.000  -6.281   0.000  -0.000
  0.000  -5.041   0.000   0.000   0.000   0.000  -6.285   0.000
 -0.000   0.000  -5.039   0.000   0.000  -0.000   0.000  -6.283
 -0.003   0.000   0.000  -5.043   0.000  -0.004   0.000   0.000
 -0.000   0.000   0.000   0.000  -5.040  -0.000   0.000   0.000
 -6.281   0.000  -0.000  -0.004  -0.000  -7.812   0.001  -0.000
  0.000  -6.285   0.000   0.000   0.000   0.001  -7.817   0.000
 -0.000   0.000  -6.283   0.000   0.000  -0.000   0.000  -7.815
 -0.004   0.000   0.000  -6.287   0.000  -0.006   0.000   0.000
 -0.000   0.000   0.000   0.000  -6.283  -0.000   0.001   0.000
  0.000   0.002   0.001  -0.000   0.001   0.000   0.003   0.001
  0.000   0.004   0.002  -0.001   0.001   0.000   0.005   0.002
  0.002  -0.000  -0.002   0.000  -0.004   0.002  -0.000  -0.003
  0.000   0.004   0.002   0.001  -0.000   0.000   0.006   0.003
  0.004   0.000  -0.001  -0.000   0.002   0.005   0.000  -0.002
 -0.003   0.002   0.003  -0.000   0.005  -0.003   0.002   0.004
 -0.000  -0.006  -0.001  -0.002   0.000  -0.000  -0.007  -0.002
 -0.005  -0.000   0.002   0.002  -0.003  -0.007  -0.000   0.003
 total augmentation occupancy for first ion, spin component:           1
  4.373   0.005  -0.025  -0.268  -0.003  -2.286  -0.003   0.018   0.128   0.001   0.030  -0.004  -0.004   0.001  -0.032  -0.001
  0.005   4.117   0.075   0.024  -0.039  -0.003  -2.172  -0.031  -0.013   0.012  -0.070   0.028  -0.050  -0.055   0.007  -0.001
 -0.025   0.075   4.572  -0.006   0.011   0.018  -0.031  -2.484   0.005  -0.016   0.044   0.007   0.002  -0.059   0.009   0.001
 -0.268   0.024  -0.006   3.979  -0.024   0.128  -0.013   0.004  -2.105   0.011   0.022  -0.006   0.001   0.018  -0.036  -0.000
 -0.003  -0.039   0.011  -0.024   4.439   0.001   0.012  -0.016   0.011  -2.422  -0.037   0.013   0.024   0.002  -0.010   0.002
 -2.286  -0.003   0.018   0.128   0.001   1.210   0.001  -0.012  -0.062  -0.000  -0.018   0.003  -0.001  -0.001   0.017   0.000
 -0.003  -2.172  -0.031  -0.013   0.012   0.001   1.160   0.012   0.007  -0.001   0.038  -0.015   0.027   0.030  -0.004   0.000
  0.018  -0.031  -2.484   0.004  -0.016  -0.012   0.012   1.358  -0.003   0.015  -0.022  -0.004  -0.002   0.036  -0.004  -0.001
  0.128  -0.013   0.005  -2.105   0.011  -0.062   0.007  -0.003   1.127  -0.005  -0.011   0.003  -0.001  -0.010   0.022   0.000
  0.001   0.012  -0.016   0.011  -2.422  -0.000  -0.001   0.015  -0.005   1.329   0.024  -0.008  -0.014  -0.000   0.005  -0.001
  0.030  -0.070   0.044   0.022  -0.037  -0.018   0.038  -0.022  -0.011   0.024   2.422  -0.308  -0.017  -0.016  -0.000  -0.001
 -0.004   0.028   0.007  -0.006   0.013   0.003  -0.015  -0.004   0.003  -0.008  -0.308   0.042  -0.001   0.001  -0.001   0.000
 -0.004  -0.050   0.002   0.001   0.024  -0.001   0.027  -0.002  -0.001  -0.014  -0.017  -0.001   0.296   0.000   0.003   0.005
  0.001  -0.055  -0.059   0.018   0.002  -0.001   0.030   0.036  -0.010  -0.000  -0.016   0.001   0.000   0.296   0.002   0.000
 -0.032   0.007   0.009  -0.036  -0.010   0.017  -0.004  -0.004   0.022   0.005  -0.000  -0.001   0.003   0.002   0.293   0.000
 -0.001  -0.001   0.001  -0.000   0.002   0.000   0.000  -0.001   0.000  -0.001  -0.001   0.000   0.005   0.000   0.000   0.000
 -0.000  -0.003  -0.002  -0.000   0.000   0.000   0.002   0.001   0.000  -0.000   0.000  -0.000   0.000   0.005   0.000  -0.000
 -0.003  -0.000   0.001  -0.000  -0.001   0.001   0.000  -0.000   0.000   0.000  -0.001   0.000   0.000   0.000   0.005  -0.000


------------------------ aborting loop because EDIFF is reached ----------------------------------------


    CHARGE:  cpu time    0.0281: real time    0.0284
    FORLOC:  cpu time    0.0133: real time    0.0135
    FORNL :  cpu time    0.2943: real time    0.3137
    STRESS:  cpu time    0.9087: real time    0.9152
    FORCOR:  cpu time    0.0430: real time    0.0432
    FORHAR:  cpu time    0.0187: real time    0.0188
    MIXING:  cpu time    0.0012: real time    0.0012
    OFIELD:  cpu time    0.0000: real time    0.0000

  FORCE on cell =-STRESS in cart. coord.  units (eV):
  Direction    XX          YY          ZZ          XY          YZ          ZX
  --------------------------------------------------------------------------------------
  Alpha Z  1527.13033  1527.13033  1527.13033
  Ewald   -5977.22766 -6183.71858 -6866.85007    -6.77666   -20.55442    63.57448
  Hartree  2350.29421  2163.02626  1506.88759     0.71619   -21.83073    47.45939
  E(xc)   -1259.80501 -1260.66052 -1260.66089    -0.16112     0.17590     0.03824
  Local   -1341.69936  -947.12629   392.74161     5.49063    42.02353  -111.03046
  n-local  -272.18135  -273.23224  -276.79918     1.12925    -0.13326    -1.18205
  augment   244.97589   244.69773   245.18539    -0.22037     0.13921     0.12821
  Kinetic  4728.24360  4729.65906  4732.12201    -0.24766     0.23236     0.98208
  Fock        0.00000     0.00000     0.00000     0.00000     0.00000     0.00000
  -------------------------------------------------------------------------------------
  Total      -0.26934    -0.22426    -0.24322    -0.06976     0.05259    -0.03011
  in kB      -0.61056    -0.50835    -0.55134    -0.15813     0.11922    -0.06825
  external pressure =       -0.56 kB  Pullay stress =        0.00 kB


 VOLUME and BASIS-vectors are now :
 -----------------------------------------------------------------------------
  energy-cutoff  :      300.00
  volume of cell :      706.78
      direct lattice vectors                 reciprocal lattice vectors
     6.803227426  0.005138899 -0.003442158     0.146989181 -0.000112961  0.000072437
     0.007834414 10.190410310 -0.006328658    -0.000074095  0.098131569  0.000059274
    -0.005028783 -0.006161783 10.194834038     0.000049583  0.000060879  0.098088956

  length of vectors
     6.803230238 10.190415287 10.194837140     0.146989243  0.098131615  0.098088987


 FORCES acting on ions
    electron-ion (+dipol)            ewald-force                    non-local-force                 convergence-correction
 -----------------------------------------------------------------------------------------------
   -.137E+02 -.458E+02 -.296E+02   0.136E+02 0.454E+02 0.292E+02   0.101E+00 0.431E+00 0.309E+00   -.607E-03 -.161E-01 0.121E-01
   -.221E+02 0.125E+02 -.885E+02   0.227E+02 -.127E+02 0.881E+02   -.574E+00 0.182E+00 0.437E+00   -.998E-03 0.137E-01 -.158E-01
   -.226E+02 -.234E+02 -.143E+02   0.226E+02 0.237E+02 0.145E+02   0.213E-01 -.253E+00 -.188E+00   -.212E-03 -.128E-01 -.114E-01
   -.211E+01 -.256E+02 0.108E+03   0.193E+01 0.256E+02 -.107E+03   0.180E+00 0.467E-02 -.500E+00   0.687E-03 -.127E-01 0.413E-02
   0.425E+02 -.377E+02 -.592E+02   -.425E+02 0.384E+02 0.589E+02   -.252E-01 -.727E+00 0.357E+00   0.606E-03 -.136E-01 -.128E-02
   -.228E+02 0.725E+02 0.351E+02   0.225E+02 -.725E+02 -.350E+02   0.338E+00 -.609E-01 -.115E+00   0.199E-02 0.154E-01 0.110E-01
   -.776E+01 -.489E+02 -.697E+02   0.805E+01 0.480E+02 0.692E+02   -.288E+00 0.988E+00 0.540E+00   -.818E-03 -.102E-01 -.153E-01
   -.279E+01 0.186E+02 0.475E+02   0.282E+01 -.189E+02 -.473E+02   -.235E-01 0.241E+00 -.227E+00   -.130E-03 0.146E-01 0.143E-01
   0.337E+02 -.259E+02 0.733E+02   -.332E+02 0.258E+02 -.726E+02   -.575E+00 0.742E-01 -.668E+00   0.154E-03 -.267E-02 0.124E-02
   -.544E+02 0.148E+03 0.196E+03   0.549E+02 -.148E+03 -.196E+03   -.443E+00 0.410E+00 0.429E+00   -.228E-02 0.902E-02 0.566E-01
   0.601E+02 0.780E+02 0.237E+03   -.605E+02 -.784E+02 -.238E+03   0.392E+00 0.407E+00 0.497E+00   0.213E-02 0.153E-01 0.620E-01
   0.244E+02 -.128E+03 -.267E+02   -.245E+02 0.128E+03 0.262E+02   0.158E-01 0.618E+00 0.404E+00   0.307E-02 -.623E-01 0.413E-01
   0.181E+03 0.537E+02 -.198E+03   -.181E+03 -.540E+02 0.197E+03   -.797E-01 0.341E+00 0.552E+00   0.321E-02 0.143E-01 -.944E-02
   0.132E+02 0.581E+02 0.185E+03   -.132E+02 -.583E+02 -.185E+03   0.223E-01 0.115E+00 0.229E-01   0.206E-02 0.435E-01 0.563E-01
   0.262E+02 0.922E+02 -.140E+03   -.261E+02 -.928E+02 0.140E+03   -.718E-01 0.585E+00 -.108E+00   0.799E-03 0.508E-01 -.113E-01
   -.169E+03 0.911E+02 -.164E+03   0.169E+03 -.914E+02 0.163E+03   0.676E-01 0.287E+00 0.214E+00   -.464E-02 0.134E-01 -.150E-01
   -.259E+02 0.563E+02 -.455E+02   0.259E+02 -.569E+02 0.455E+02   0.622E-01 0.575E+00 -.980E-02   -.804E-02 0.496E-01 -.126E-01
   0.117E+03 -.146E+03 0.161E+03   -.117E+03 0.146E+03 -.160E+03   -.406E+00 -.632E+00 -.497E+00   0.997E-03 -.522E-01 0.462E-01
   -.112E+03 -.203E+03 0.248E+03   0.111E+03 0.204E+03 -.248E+03   0.411E+00 -.905E+00 -.106E+00   -.240E-02 -.529E-01 0.399E-01
   0.272E+02 0.667E+02 0.288E+02   -.270E+02 -.662E+02 -.286E+02   -.209E+00 -.486E+00 -.242E+00   -.285E-02 0.194E-01 0.136E-01
   -.358E+02 -.417E+02 0.939E+02   0.353E+02 0.413E+02 -.933E+02   0.476E+00 0.379E+00 -.658E+00   -.498E-03 -.278E-02 0.278E-02
   -.143E+02 -.296E+02 0.414E+01   0.141E+02 0.301E+02 -.438E+01   0.244E+00 -.586E+00 0.228E+00   -.463E-03 0.273E-02 0.158E-01
   0.148E+02 0.430E+02 -.925E+02   -.153E+02 -.421E+02 0.922E+02   0.503E+00 -.924E+00 0.343E+00   0.500E-03 0.350E-03 -.165E-01
   0.174E+02 0.100E+02 -.144E+02   -.172E+02 -.998E+01 0.142E+02   -.285E+00 -.274E-01 0.204E+00   0.976E-04 0.127E-01 -.137E-01
   -.566E+01 0.685E+02 0.825E+02   0.462E+01 -.682E+02 -.819E+02   0.103E+01 -.366E+00 -.622E+00   0.159E-02 0.180E-01 0.815E-02
   0.143E+02 -.757E+01 0.109E+01   -.140E+02 0.755E+01 -.162E+01   -.304E+00 0.134E-01 0.513E+00   0.438E-03 0.141E-02 0.152E-01
   0.694E+01 0.707E+02 0.886E+02   -.584E+01 -.707E+02 -.884E+02   -.109E+01 0.446E-01 -.214E+00   -.168E-02 0.179E-01 0.754E-02
   0.249E+02 0.183E+02 0.600E+01   -.250E+02 -.187E+02 -.538E+01   0.120E+00 0.411E+00 -.603E+00   0.681E-03 0.476E-02 -.122E-01
   0.131E+01 -.485E+02 0.125E+03   -.117E+01 0.485E+02 -.124E+03   -.144E+00 -.710E-01 -.581E+00   -.717E-03 -.154E-01 0.566E-02
   0.286E+02 0.439E+02 -.114E+03   -.291E+02 -.441E+02 0.113E+03   0.494E+00 0.110E+00 0.623E+00   0.135E-02 0.173E-01 -.211E-01
   -.117E+02 0.487E+02 -.913E+02   0.122E+02 -.478E+02 0.912E+02   -.500E+00 -.976E+00 0.134E+00   -.358E-03 -.746E-03 -.152E-01
   0.338E+02 -.153E+03 -.277E+03   -.342E+02 0.152E+03 0.277E+03   0.415E+00 0.961E+00 0.284E-01   0.457E-02 -.328E-01 -.500E-01
   0.696E+02 -.718E+02 -.113E+02   -.694E+02 0.726E+02 0.111E+02   -.143E+00 -.781E+00 0.218E+00   -.266E-02 -.384E-01 -.356E-01
   -.651E+02 -.646E+01 0.861E+01   0.655E+02 0.624E+01 -.764E+01   -.370E+00 0.215E+00 -.943E+00   -.283E-02 0.102E-01 -.272E-01
   -.118E+03 -.107E+03 -.204E+03   0.118E+03 0.108E+03 0.204E+03   0.296E-01 -.808E+00 0.236E+00   -.276E-02 -.443E-01 -.226E-02
   -.322E+02 0.990E+02 -.885E+02   0.317E+02 -.993E+02 0.887E+02   0.474E+00 0.278E+00 -.118E+00   -.603E-03 0.325E-01 -.328E-01
 -----------------------------------------------------------------------------------------------
   0.140E+00 -.695E-01 0.177E-01   -.711E-14 0.142E-12 -.313E-12   -.131E+00 0.685E-01 -.111E+00   -.106E-01 0.681E-02 0.952E-01
 
 
 POSITION                                       TOTAL-FORCE (eV/Angst)
 -----------------------------------------------------------------------------------
      5.05232      1.65515      5.01154         0.000859      0.000381      0.000974
      5.13181      8.47050      8.38778         0.000951      0.003390      0.003139
      3.39247      3.47470     10.13742        -0.001794     -0.001134     -0.000301
      1.66579      1.75482      1.79114        -0.002937      0.000404      0.007963
      0.02263      3.44722      6.77178         0.000118      0.001000     -0.001538
      1.66117      8.48531      5.10300        -0.002118     -0.002596     -0.001059
      5.12755      1.49899      8.43977         0.003410      0.001027     -0.001431
      3.41980      6.81083      3.35503         0.001539     -0.001174     -0.002024
      5.23243      4.98856      1.80608        -0.000462     -0.002687     -0.000837
      3.43006     10.11099      3.31748        -0.000079     -0.001214     -0.000305
      6.77148     10.17410      3.35760        -0.001279     -0.001467      0.000062
      1.72406      1.64077      5.01582         0.000341     -0.001509     -0.000683
      0.02744      0.00741      6.69858         0.001003     -0.003094     -0.003217
      6.79389      6.80848      3.39682        -0.000741      0.001806     -0.000813
      0.00376      6.75158      6.76263        -0.002625     -0.001540      0.002591
      3.37147     10.11691      6.67162        -0.000144     -0.003247     -0.000478
      3.40352      6.75849      6.73461         0.000734      0.000220      0.001572
      0.04604      3.40636      3.55839        -0.000980      0.001421     -0.000016
      3.35753      3.46778      3.47505         0.000242      0.000358      0.002040
      5.13925      8.52797      5.12072        -0.000002     -0.003164      0.001710
      1.61039      4.99646      1.81988         0.000595      0.001034     -0.000036
      1.67540      5.17809      5.06857        -0.001027      0.001232      0.001854
      1.65631      5.35968      8.41304         0.001454      0.007004      0.003580
      0.06301      6.83418      0.00927        -0.000174      0.001843      0.000646
      1.55738      8.54205      1.78217        -0.003432     -0.002340     -0.001225
      5.12989      5.11619      5.03474         0.000569      0.001331     -0.001531
      5.25975      8.50075      1.75278         0.003486      0.001594     -0.004273
      6.77650     10.06553      0.09806         0.000040     -0.002138      0.002236
      5.11799      1.72967      1.82031         0.001113     -0.000394      0.002180
      1.66424      8.46554      8.39962        -0.001686     -0.003187      0.001601
      5.16474      5.33585      8.43806        -0.002064     -0.002029      0.001229
      1.66333      1.44604      8.46594        -0.001093     -0.001646     -0.005403
      0.01954      3.46272     10.04141         0.008168      0.001003     -0.001738
      3.43888     10.13050      0.14512        -0.002315      0.005419     -0.003784
      3.38651      3.48639      6.85931        -0.001745      0.000458     -0.003549
      3.36611      6.78170      0.06764         0.002075      0.003636      0.000865
 -----------------------------------------------------------------------------------
    total drift:                               -0.001626      0.005841      0.001923


--------------------------------------------------------------------------------------------------------



  FREE ENERGIE OF THE ION-ELECTRON SYSTEM (eV)
  ---------------------------------------------------
  free  energy   TOTEN  =      -373.53231148 eV

  energy  without entropy=     -373.55641156  energy(sigma->0) =     -373.54034484
 
 d Force = 0.3531590E-04[ 0.272E-04, 0.434E-04]  d Energy = 0.5695842E-04-0.216E-04
 d Force = 0.2087546E-01[ 0.208E-01, 0.210E-01]  d Ewald  = 0.4532009E+00-0.432E+00


--------------------------------------------------------------------------------------------------------


    POTLOK:  cpu time    0.0377: real time    0.0378


--------------------------------------------------------------------------------------------------------


 Conjugate gradient step on ions:
 trial-energy change:   -0.000057  1 .order   -0.000059   -0.000065   -0.000053
  (g-gl).g = 0.633E-04      g.g   = 0.690E-04  gl.gl    = 0.550E-04
 g(Force)  = 0.176E-04   g(Stress)= 0.514E-04 ortho     = 0.274E-05
 gamma     =   1.14987
 trial     =   0.89472
 opt step  =   3.57888  (harmonic =   5.12365) maximal distance =0.00212012
 next E    =  -373.532439   (d E  =  -0.00018)


--------------------------------------------------------------------------------------------------------


  
 reached required accuracy - stopping structural energy minimisation
     LOOP+:  cpu time    4.0728: real time    4.5084
    4ORBIT:  cpu time    0.0000: real time    0.0000

 total amount of memory used by VASP on root node    66880. kBytes
========================================================================

   base      :      30000. kBytes
   nonlr-proj:      11014. kBytes
   fftplans  :       2814. kBytes
   grid      :       5360. kBytes
   one-center:        124. kBytes
   wavefun   :      17568. kBytes
 
  
  
 General timing and accounting informations for this job:
 ========================================================
  
                  Total CPU time used (sec):      174.385
                            User time (sec):      173.475
                          System time (sec):        0.910
                         Elapsed time (sec):      194.153
  
                   Maximum memory used (kb):      267168.
                   Average memory used (kb):           0.
  
                          Minor page faults:       126538
                          Major page faults:           41
                 Voluntary context switches:         7980
