 vasp.5.4.1 05Feb16 (build Jan 29 2020 16:04:39) complex                        
  
 executed on           IFC91_ompi date 2020.06.15  11:55:36
 running on  160 total cores
 distrk:  each k-point on   20 cores,    8 groups
 distr:  one band on NCORES_PER_BAND=   5 cores,    4 groups


--------------------------------------------------------------------------------------------------------


 INCAR:
 POTCAR:    PAW_PBE Ta 17Jan2003                  
 POTCAR:    PAW_PBE Hf 20Jan2003                  
 POTCAR:    PAW_PBE Nb_sv 25May2007               
 POTCAR:    PAW_PBE Zr_sv 04Jan2005               

 ----------------------------------------------------------------------------- 
|                                                                             |
|           W    W    AA    RRRRR   N    N  II  N    N   GGGG   !!!           |
|           W    W   A  A   R    R  NN   N  II  NN   N  G    G  !!!           |
|           W    W  A    A  R    R  N N  N  II  N N  N  G       !!!           |
|           W WW W  AAAAAA  RRRRR   N  N N  II  N  N N  G  GGG   !            |
|           WW  WW  A    A  R   R   N   NN  II  N   NN  G    G                |
|           W    W  A    A  R    R  N    N  II  N    N   GGGG   !!!           |
|                                                                             |
|      For optimal performance we recommend to set                            |
|        NCORE= 4 - approx SQRT( number of cores)                             |
|      NCORE specifies how many cores store one orbital (NPAR=cpu/NCORE).     |
|      This setting can  greatly improve the performance of VASP for DFT.     |
|      The default, NPAR=number of cores might be grossly inefficient         |
|      on modern multi-core architectures or massively parallel machines.     |
|      Do your own testing !!!!                                               |
|      Unfortunately you need to use the default for GW and RPA calculations. |
|      (for HF NCORE is supported but not extensively tested yet)             |
|                                                                             |
 ----------------------------------------------------------------------------- 


 ----------------------------------------------------------------------------- 
|                                                                             |
|           W    W    AA    RRRRR   N    N  II  N    N   GGGG   !!!           |
|           W    W   A  A   R    R  NN   N  II  NN   N  G    G  !!!           |
|           W    W  A    A  R    R  N N  N  II  N N  N  G       !!!           |
|           W WW W  AAAAAA  RRRRR   N  N N  II  N  N N  G  GGG   !            |
|           WW  WW  A    A  R   R   N   NN  II  N   NN  G    G                |
|           W    W  A    A  R    R  N    N  II  N    N   GGGG   !!!           |
|                                                                             |
|      You have enabled k-point parallelism (KPAR>1).                         |
|      This developmental code was originally  written by Paul Kent at ORNL,  |
|      and carefully double checked in Vienna.                                |
|      GW as well as linear response parallelism added by Martijn Marsman     |
|      and Georg Kresse.                                                      |
|      Carefully verify results versus KPAR=1.                                |
|      Report problems to Paul Kent and Vienna.                               |
|                                                                             |
 ----------------------------------------------------------------------------- 

 POTCAR:    PAW_PBE Ta 17Jan2003                  
   VRHFIN =Ta:  6s5d                                                            
   LEXCH  = PE                                                                  
   EATOM  =   130.6506 eV,    9.6025 Ry                                         
                                                                                
   TITEL  = PAW_PBE Ta 17Jan2003                                                
   LULTRA =        F    use ultrasoft PP ?                                      
   IUNSCR =        1    unscreen: 0-lin 1-nonlin 2-no                           
   RPACOR =    2.330    partial core radius                                     
   POMASS =  180.948; ZVAL   =    5.000    mass and valenz                      
   RCORE  =    2.900    outmost cutoff radius                                   
   RWIGS  =    2.840; RWIGS  =    1.503    wigner-seitz radius (au A)           
   ENMAX  =  223.667; ENMIN  =  167.750 eV                                      
   RCLOC  =    2.205    cutoff for local pot                                    
   LCOR   =        T    correct aug charges                                     
   LPAW   =        T    paw PP                                                  
   EAUG   =  332.075                                                            
   DEXC   =    0.000                                                            
   RMAX   =    2.970    core radius for proj-oper                               
   RAUG   =    1.300    factor for augmentation sphere                          
   RDEP   =    3.060    radius for radial grids                                 
   RDEPT  =    2.354    core radius for aug-charge                              
                                                                                
   Atomic configuration                                                         
   16 entries                                                                   
     n  l   j            E        occ.                                          
     1  0  0.50    -67341.2807   2.0000                                         
     2  0  0.50    -11566.9376   2.0000                                         
     2  1  1.50    -10134.1182   6.0000                                         
     3  0  0.50     -2648.5620   2.0000                                         
     3  1  1.50     -2222.6012   6.0000                                         
     3  2  2.50     -1726.3120  10.0000                                         
     4  0  0.50      -538.6961   2.0000                                         
     4  1  1.50      -399.0129   6.0000                                         
     4  2  2.50      -220.3959  10.0000                                         
     4  3  3.50       -23.0374  14.0000                                         
     5  0  0.50       -71.2901   2.0000                                         
     5  1  1.50       -37.8225   6.0000                                         
     5  2  2.50        -2.6455   4.0000                                         
     6  0  0.50        -4.9623   1.0000                                         
     6  1  1.50        -1.3606   0.0000                                         
     5  3  2.50        -1.3606   0.0000                                         
   Description                                                                  
     l       E           TYP  RCUT    TYP  RCUT                                 
     2     -2.6455043     23  2.500                                             
     2     -0.6258895     23  2.500                                             
     0     -4.9622780     23  2.500                                             
     0      4.7531321     23  2.500                                             
     1     -1.3605826     23  2.900                                             
     1     27.2116520     23  2.900                                             
  local pseudopotential read in
  partial core-charges read in
  partial kinetic energy density read in
  atomic valenz-charges read in
  non local Contribution for L=           2  read in
    real space projection operators read in
  non local Contribution for L=           2  read in
    real space projection operators read in
  non local Contribution for L=           0  read in
    real space projection operators read in
  non local Contribution for L=           0  read in
    real space projection operators read in
  non local Contribution for L=           1  read in
    real space projection operators read in
  non local Contribution for L=           1  read in
    real space projection operators read in
    PAW grid and wavefunctions read in
 
   number of l-projection  operators is LMAX  =           6
   number of lm-projection operators is LMMAX =          18
 
 POTCAR:    PAW_PBE Hf 20Jan2003                  
   VRHFIN =Hf: 6s5d                                                             
   LEXCH  = PE                                                                  
   EATOM  =    75.9011 eV,    5.5786 Ry                                         
                                                                                
   TITEL  = PAW_PBE Hf 20Jan2003                                                
   LULTRA =        F    use ultrasoft PP ?                                      
   IUNSCR =        1    unscreen: 0-lin 1-nonlin 2-no                           
   RPACOR =    2.500    partial core radius                                     
   POMASS =  178.490; ZVAL   =    4.000    mass and valenz                      
   RCORE  =    3.000    outmost cutoff radius                                   
   RWIGS  =    3.050; RWIGS  =    1.614    wigner-seitz radius (au A)           
   ENMAX  =  220.334; ENMIN  =  165.250 eV                                      
   RCLOC  =    2.212    cutoff for local pot                                    
   LCOR   =        T    correct aug charges                                     
   LPAW   =        T    paw PP                                                  
   EAUG   =  335.116                                                            
   DEXC   =    0.000                                                            
   RMAX   =    3.077    core radius for proj-oper                               
   RAUG   =    1.300    factor for augmentation sphere                          
   RDEP   =    3.047    radius for radial grids                                 
   RDEPT  =    2.344    core radius for aug-charge                              
                                                                                
   Atomic configuration                                                         
   16 entries                                                                   
     n  l   j            E        occ.                                          
     1  0  0.50    -65259.4397   2.0000                                         
     2  0  0.50    -11157.9882   2.0000                                         
     2  1  1.50     -9795.2113   6.0000                                         
     3  0  0.50     -2541.4058   2.0000                                         
     3  1  1.50     -2134.4770   6.0000                                         
     3  2  2.50     -1653.5418  10.0000                                         
     4  0  0.50      -510.9575   2.0000                                         
     4  1  1.50      -377.5023   6.0000                                         
     4  2  2.50      -205.2085  10.0000                                         
     4  3  3.50       -15.4905  14.0000                                         
     5  0  0.50       -65.6020   2.0000                                         
     5  1  1.50       -34.2798   6.0000                                         
     5  2  2.50        -1.9877   3.0000                                         
     6  0  0.50        -4.7357   1.0000                                         
     6  1  1.50        -1.3606   0.0000                                         
     5  3  2.50        -1.3606   0.0000                                         
   Description                                                                  
     l       E           TYP  RCUT    TYP  RCUT                                 
     2     -1.9876627     23  2.500                                             
     2      0.0744703     23  2.500                                             
     0     -4.7356889     23  2.600                                             
     0      3.2364747     23  2.600                                             
     1     -1.3605826     23  3.000                                             
     1     27.2116520     23  3.000                                             
  local pseudopotential read in
  partial core-charges read in
  partial kinetic energy density read in
  atomic valenz-charges read in
  non local Contribution for L=           2  read in
    real space projection operators read in
  non local Contribution for L=           2  read in
    real space projection operators read in
  non local Contribution for L=           0  read in
    real space projection operators read in
  non local Contribution for L=           0  read in
    real space projection operators read in
  non local Contribution for L=           1  read in
    real space projection operators read in
  non local Contribution for L=           1  read in
    real space projection operators read in
    PAW grid and wavefunctions read in
 
   number of l-projection  operators is LMAX  =           6
   number of lm-projection operators is LMMAX =          18
 
 POTCAR:    PAW_PBE Nb_sv 25May2007               
   VRHFIN =Nb: 4p5s4d                                                           
   LEXCH  = PE                                                                  
   EATOM  =  1555.1913 eV,  114.3033 Ry                                         
                                                                                
   TITEL  = PAW_PBE Nb_sv 25May2007                                             
   LULTRA =        F    use ultrasoft PP ?                                      
   IUNSCR =        1    unscreen: 0-lin 1-nonlin 2-no                           
   RPACOR =    1.800    partial core radius                                     
   POMASS =   92.910; ZVAL   =   13.000    mass and valenz                      
   RCORE  =    2.400    outmost cutoff radius                                   
   RWIGS  =    2.400; RWIGS  =    1.270    wigner-seitz radius (au A)           
   ENMAX  =  293.235; ENMIN  =  219.927 eV                                      
   ICORE  =        3    local potential                                         
   LCOR   =        T    correct aug charges                                     
   LPAW   =        T    paw PP                                                  
   EAUG   =  455.659                                                            
   DEXC   =    0.000                                                            
   RMAX   =    2.456    core radius for proj-oper                               
   RAUG   =    1.300    factor for augmentation sphere                          
   RDEP   =    2.451    radius for radial grids                                 
   RDEPT  =    1.956    core radius for aug-charge                              
                                                                                
   Atomic configuration                                                         
   11 entries                                                                   
     n  l   j            E        occ.                                          
     1  0  0.50    -18805.2457   2.0000                                         
     2  0  0.50     -2630.2869   2.0000                                         
     2  1  1.50     -2348.4046   6.0000                                         
     3  0  0.50      -438.8757   2.0000                                         
     3  1  1.50      -346.7588   6.0000                                         
     3  2  2.50      -196.2560  10.0000                                         
     4  0  0.50       -58.3859   2.0000                                         
     5  0  0.50        -3.9816   1.0000                                         
     4  1  1.50       -34.5141   6.0000                                         
     4  2  2.50        -3.0408   4.0000                                         
     4  3  2.50        -1.3606   0.0000                                         
   Description                                                                  
     l       E           TYP  RCUT    TYP  RCUT                                 
     0    -58.3859094     23  2.200                                             
     0     -3.9816262     23  2.200                                             
     1    -34.5140738     23  2.200                                             
     1     13.6058260     23  2.200                                             
     2     -3.0408010     23  2.200                                             
     2     -0.1283038     23  2.200                                             
     3     -1.3605826     23  2.400                                             
  local pseudopotential read in
  partial core-charges read in
  partial kinetic energy density read in
  atomic valenz-charges read in
  non local Contribution for L=           0  read in
    real space projection operators read in
  non local Contribution for L=           0  read in
    real space projection operators read in
  non local Contribution for L=           1  read in
    real space projection operators read in
  non local Contribution for L=           1  read in
    real space projection operators read in
  non local Contribution for L=           2  read in
    real space projection operators read in
  non local Contribution for L=           2  read in
    real space projection operators read in
    PAW grid and wavefunctions read in
 
   number of l-projection  operators is LMAX  =           6
   number of lm-projection operators is LMMAX =          18
 
 POTCAR:    PAW_PBE Zr_sv 04Jan2005               
   VRHFIN =Zr: 4s4p5s4d                                                         
   LEXCH  = PE                                                                  
   EATOM  =  1284.2219 eV,   94.3876 Ry                                         
                                                                                
   TITEL  = PAW_PBE Zr_sv 04Jan2005                                             
   LULTRA =        F    use ultrasoft PP ?                                      
   IUNSCR =        1    unscreen: 0-lin 1-nonlin 2-no                           
   RPACOR =    2.200    partial core radius                                     
   POMASS =   91.224; ZVAL   =   12.000    mass and valenz                      
   RCORE  =    2.500    outmost cutoff radius                                   
   RWIGS  =    3.070; RWIGS  =    1.625    wigner-seitz radius (au A)           
   ENMAX  =  229.898; ENMIN  =  172.424 eV                                      
   ICORE  =        3    local potential                                         
   LCOR   =        T    correct aug charges                                     
   LPAW   =        T    paw PP                                                  
   EAUG   =  461.257                                                            
   DEXC   =    0.000                                                            
   RMAX   =    2.561    core radius for proj-oper                               
   RAUG   =    1.300    factor for augmentation sphere                          
   RDEP   =    2.597    radius for radial grids                                 
   RDEPT  =    2.007    core radius for aug-charge                              
                                                                                
   Atomic configuration                                                         
   11 entries                                                                   
     n  l   j            E        occ.                                          
     1  0  0.50    -17820.0161   2.0000                                         
     2  0  0.50     -2467.0882   2.0000                                         
     2  1  1.50     -2199.6095   6.0000                                         
     3  0  0.50      -402.4863   2.0000                                         
     3  1  1.50      -315.3675   6.0000                                         
     3  2  2.50      -172.4472  10.0000                                         
     4  0  0.50       -52.4146   2.0000                                         
     5  0  0.50        -3.8421   1.0000                                         
     4  1  1.50       -30.5054   6.0000                                         
     4  2  2.50        -2.3341   3.0000                                         
     4  3  2.50        -1.3606   0.0000                                         
   Description                                                                  
     l       E           TYP  RCUT    TYP  RCUT                                 
     0    -52.4145962     23  2.200                                             
     0     -3.8421270     23  2.500                                             
     1    -30.5053914     23  2.200                                             
     1     20.4087390     23  2.200                                             
     2     -2.3340816     23  2.500                                             
     2     -0.6120942     23  2.500                                             
     3     -4.0817478     23  2.500                                             
  local pseudopotential read in
  partial core-charges read in
  partial kinetic energy density read in
  atomic valenz-charges read in
  non local Contribution for L=           0  read in
    real space projection operators read in
  non local Contribution for L=           0  read in
    real space projection operators read in
  non local Contribution for L=           1  read in
    real space projection operators read in
  non local Contribution for L=           1  read in
    real space projection operators read in
  non local Contribution for L=           2  read in
    real space projection operators read in
  non local Contribution for L=           2  read in
    real space projection operators read in
    PAW grid and wavefunctions read in
 
   number of l-projection  operators is LMAX  =           6
   number of lm-projection operators is LMMAX =          18
 
 Optimization of the real space projectors (new method)

 maximal supplied QI-value         = 12.85
 optimisation between [QCUT,QGAM] = [  8.87, 17.73] = [ 22.01, 88.06] Ry 
 Optimized for a Real-space Cutoff    1.90 Angstroem

   l    n(q)    QCUT    max X(q) W(low)/X(q) W(high)/X(q)  e(spline) 
   2      9     8.867    62.315    0.23E-03    0.62E-04    0.11E-05
   2      9     8.867    52.185    0.23E-03    0.62E-04    0.11E-05
   0     10     8.867   103.837    0.15E-04    0.23E-04    0.98E-07
   0     10     8.867    59.728    0.12E-04    0.21E-04    0.89E-07
   1     10     8.867    13.958    0.50E-04    0.22E-04    0.14E-06
   1     10     8.867     8.441    0.36E-04    0.19E-04    0.98E-07
 Optimization of the real space projectors (new method)

 maximal supplied QI-value         = 12.47
 optimisation between [QCUT,QGAM] = [  8.86, 17.71] = [ 21.96, 87.83] Ry 
 Optimized for a Real-space Cutoff    1.90 Angstroem

   l    n(q)    QCUT    max X(q) W(low)/X(q) W(high)/X(q)  e(spline) 
   2      9     8.855    48.111    0.22E-03    0.80E-04    0.10E-05
   2      9     8.855    40.545    0.21E-03    0.76E-04    0.95E-06
   0     10     8.855   121.658    0.27E-04    0.12E-04    0.11E-06
   0     10     8.855    71.177    0.22E-04    0.11E-04    0.99E-07
   1     10     8.855    14.183    0.65E-04    0.10E-03    0.98E-07
   1     10     8.855     8.257    0.43E-04    0.73E-04    0.72E-07
 Optimization of the real space projectors (new method)

 maximal supplied QI-value         = 15.68
 optimisation between [QCUT,QGAM] = [  8.78, 17.72] = [ 21.60, 87.97] Ry 
 Optimized for a Real-space Cutoff    1.96 Angstroem

   l    n(q)    QCUT    max X(q) W(low)/X(q) W(high)/X(q)  e(spline) 
   0     10     8.783    10.201    0.29E-04    0.25E-05    0.69E-07
   0     10     8.783     8.174    0.45E-04    0.57E-05    0.14E-06
   1     10     8.783     3.488    0.76E-05    0.24E-04    0.95E-07
   1     10     8.783     4.917    0.78E-04    0.14E-03    0.46E-06
   2      9     8.783   153.744    0.22E-03    0.34E-04    0.15E-05
   2      9     8.783   126.342    0.22E-03    0.35E-04    0.15E-05
 Optimization of the real space projectors (new method)

 maximal supplied QI-value         = 15.12
 optimisation between [QCUT,QGAM] = [  8.77, 17.69] = [ 21.53, 87.61] Ry 
 Optimized for a Real-space Cutoff    1.74 Angstroem

   l    n(q)    QCUT    max X(q) W(low)/X(q) W(high)/X(q)  e(spline) 
   0      9     8.768    12.107    0.28E-04    0.53E-06    0.29E-07
   0      9     8.768     9.948    0.36E-04    0.50E-05    0.64E-07
   1      9     8.768     3.563    0.14E-04    0.16E-04    0.88E-07
   1      9     8.768     4.524    0.21E-03    0.33E-03    0.19E-06
   2      8     8.768    87.261    0.19E-03    0.25E-03    0.24E-06
   2      8     8.768    70.950    0.19E-03    0.24E-03    0.24E-06
  PAW_PBE Ta 17Jan2003                  :
 energy of atom  1       EATOM= -130.6506
 kinetic energy error for atom=    0.0121 (will be added to EATOM!!)
  PAW_PBE Hf 20Jan2003                  :
 energy of atom  2       EATOM=  -75.9011
 kinetic energy error for atom=    0.0071 (will be added to EATOM!!)
  PAW_PBE Nb_sv 25May2007               :
 energy of atom  3       EATOM=-1555.1913
 kinetic energy error for atom=    0.0655 (will be added to EATOM!!)
  PAW_PBE Zr_sv 04Jan2005               :
 energy of atom  4       EATOM=-1284.2219
 kinetic energy error for atom=    0.0483 (will be added to EATOM!!)
 
 
 POSCAR: generated by pypospack                  
  positions in direct lattice
  No initial velocities read in
 exchange correlation table for  LEXCH =        8
   RHO(1)=    0.500       N(1)  =     2000
   RHO(2)=  100.500       N(2)  =     4000
 


--------------------------------------------------------------------------------------------------------


 ion  position               nearest neighbor table
   1  0.522  0.997  0.003-   6 2.77  13 2.85  23 2.87  17 2.88  10 2.93  15 2.97  32 3.01  36 3.03
                             7 3.09  35 3.37  19 3.47  11 3.50
   2  0.250  0.845  0.498-  11 2.78  26 2.85  25 2.87  20 2.89  31 2.92  22 2.96  18 2.97  27 3.02
                             9 3.19   3 3.36  15 3.37  32 3.41   3 3.42
   3  0.755  0.842  0.498-  11 2.80  26 2.81  25 2.83  20 2.86  31 2.91  22 2.93  18 2.93  27 2.93
                            14 3.26   6 3.34   2 3.36   2 3.42   5 3.54
   4  0.252  0.505  0.177-  22 2.87  31 2.92  12 2.94  19 2.95  28 2.97  34 3.01  35 3.01  21 3.02
                            24 3.25  15 3.32  33 3.38  33 3.41  36 3.49
   5  0.743  0.491  0.500-  12 2.82  30 2.84  22 2.87  28 2.87  27 2.93  16 2.94  18 2.95  31 2.96
                             8 3.27  33 3.29  24 3.29  14 3.30   3 3.54
   6  0.749  0.841  0.170-   1 2.77   7 2.82  26 2.84  25 2.86  21 2.98  35 2.99  31 3.01  22 3.03
                            13 3.24   3 3.34  15 3.36  15 3.42  33 3.55
   7  0.979  0.002  0.004-  23 2.81   6 2.82  13 2.85  36 2.96  17 2.97  32 2.98  15 3.01  10 3.03
                             1 3.09  34 3.33  20 3.49
   8  0.759  0.498  0.822-  27 2.83  16 2.90  21 2.90  30 2.91  18 2.94  34 2.97  35 2.97  19 3.03
                            29 3.20   5 3.27  17 3.34  33 3.60
   9  0.258  0.161  0.498-  12 2.84  25 2.87  28 2.87  20 2.88  30 2.90  11 2.90  26 2.92  16 2.94
                             2 3.19  36 3.30  14 3.31  10 3.34  14 3.47
  10  0.265  0.148  0.826-  20 2.84  11 2.85   1 2.93  19 2.94  30 2.96  16 3.01   7 3.03  34 3.05
                            32 3.13  17 3.17   9 3.34  36 3.53  17 3.62
  11  0.505  0.991  0.658-   2 2.78   3 2.80  10 2.85  17 2.89  14 2.89   9 2.90  23 2.92  32 2.96
                            18 3.22  25 3.26  20 3.36  20 3.43   1 3.50
  12  0.497  0.330  0.341-  24 2.82   5 2.82   9 2.84  14 2.86  33 2.89   4 2.94  36 2.95  13 2.95
                            30 3.27  25 3.33  19 3.54
  13  0.748  0.163  0.175-  25 2.83   1 2.85   7 2.85  26 2.86  12 2.95  28 2.98  34 3.09  19 3.14
                             6 3.24  33 3.30  14 3.30  36 3.38  36 3.40  17 3.55
  14  0.746  0.165  0.500-  25 2.82  20 2.86  12 2.86  28 2.88  11 2.89  26 2.91  16 2.98  30 2.99
                             3 3.26   5 3.30  13 3.30  17 3.30   9 3.31   9 3.47
  15  0.253  0.834  0.167-  25 2.97   1 2.97  26 2.98  22 2.99  21 2.99  31 2.99   7 3.01  35 3.02
                            36 3.28   4 3.32   6 3.36   2 3.37  32 3.38   6 3.42
  16  0.014  0.333  0.664-  24 2.89   8 2.90  29 2.93   9 2.94   5 2.94  14 2.98  10 3.01  17 3.02
                            30 3.22  28 3.23  20 3.30  27 3.34  34 3.35
  17  0.732  0.167  0.825-   1 2.88  11 2.89  30 2.90  20 2.96   7 2.97  19 2.99  16 3.02  34 3.04
                            10 3.17  14 3.30  23 3.33   8 3.34  13 3.55  10 3.62
  18  0.504  0.672  0.662-   3 2.93   8 2.94  29 2.95   5 2.95  24 2.96  23 2.96   2 2.97  32 3.03
                            11 3.22  22 3.24  27 3.33  30 3.36  35 3.38  27 3.45
  19  0.479  0.339  0.993-  10 2.94   4 2.95  29 2.99  17 2.99  33 3.01  36 3.01   8 3.03  13 3.14
                            34 3.16  35 3.28  30 3.36   1 3.47  12 3.54  34 3.63
  20  0.999  0.006  0.661-  10 2.84  14 2.86   3 2.86   9 2.88   2 2.89  23 2.92  32 2.93  17 2.96
                            16 3.30  26 3.30  11 3.36  11 3.43  27 3.46   7 3.49
  21  0.989  0.666  0.998-  29 2.79  23 2.86   8 2.90  32 2.95   6 2.98  15 2.99   4 3.02  33 3.02
                            35 3.25  34 3.38
  22  0.500  0.664  0.344-  24 2.83   5 2.87   4 2.87   3 2.93   2 2.96  15 2.99  33 2.99   6 3.03
                            18 3.24  31 3.39  31 3.39
  23  0.762  0.838  0.832-   7 2.81  21 2.86   1 2.87  11 2.92  20 2.92  27 2.95  35 2.96  18 2.96
                            32 3.24  17 3.33
  24  0.258  0.495  0.496-  30 2.79  12 2.82  28 2.82  22 2.83  16 2.89  31 2.91  18 2.96  27 2.99
                             4 3.25   5 3.29
  25  0.509  0.001  0.337-  14 2.82   3 2.83  13 2.83   6 2.86   2 2.87   9 2.87  36 2.90  15 2.97
                            11 3.26  12 3.33
  26  0.994  0.999  0.336-   3 2.81   6 2.84   2 2.85  13 2.86  36 2.89  14 2.91   9 2.92  15 2.98
                            20 3.30  31 3.35
  27  0.995  0.664  0.662-  29 2.74   8 2.83   5 2.93   3 2.93  23 2.95  32 2.98  24 2.99   2 3.02
                            31 3.24  18 3.33  16 3.34  18 3.45  20 3.46
  28  0.004  0.331  0.346-  24 2.82   5 2.87   9 2.87  14 2.88  33 2.91   4 2.97  13 2.98  36 2.99
                            16 3.23  31 3.39
  29  0.230  0.521  0.830-  27 2.74  21 2.79  35 2.90  34 2.92  16 2.93  18 2.95  19 2.99   8 3.20
                            32 3.21
  30  0.489  0.339  0.663-  24 2.79   5 2.84  17 2.90   9 2.90   8 2.91  10 2.96  14 2.99  16 3.22
                            12 3.27  19 3.36  18 3.36
  31  0.001  0.667  0.343-  24 2.91   3 2.91   4 2.92   2 2.92   5 2.96  33 2.98  15 2.99   6 3.01
                            27 3.24  26 3.35  28 3.39  22 3.39  22 3.39
  32  0.240  0.839  0.834-  20 2.93  21 2.95  11 2.96   7 2.98  27 2.98   1 3.01  35 3.02  18 3.03
                            10 3.13  29 3.21  23 3.24  15 3.38   2 3.41
  33  0.749  0.490  0.176-  12 2.89  28 2.91  31 2.98  22 2.99  19 3.01  35 3.01  21 3.02  34 3.05
                             5 3.29  13 3.30   4 3.38   4 3.41   6 3.55   8 3.60
  34  0.014  0.332  0.993-  29 2.92   8 2.97  36 2.98   4 3.01  17 3.04  33 3.05  10 3.05  13 3.09
                            19 3.16   7 3.33  16 3.35  21 3.38  19 3.63
  35  0.510  0.663  0.995-  29 2.90  23 2.96   8 2.97   6 2.99   4 3.01  33 3.01  15 3.02  32 3.02
                            21 3.25  19 3.28   1 3.37  18 3.38
  36  0.249  0.159  0.173-  26 2.89  25 2.90  12 2.95   7 2.96  34 2.98  28 2.99  19 3.01   1 3.03
                            15 3.28   9 3.30  13 3.38  13 3.40   4 3.49  10 3.53
 
  LATTYP: Found a triclinic cell.
 ALAT       =     6.7788173381
 B/A-ratio  =     1.7953420163
 C/A-ratio  =     1.4883378255
 COS(alpha) =     0.0014849078
 COS(beta)  =     0.0043146784
 COS(gamma) =     0.5508266565
  
  Lattice vectors:
  
 A1 = (   6.7787541317,  -0.0149699183,  -0.0251560473)
 A2 = (   6.7413667482,  -0.0096324266,  10.1326194186)
 A3 = (   0.0212302474, -10.0891462970,  -0.0057215916)


Analysis of symmetry for initial positions (statically):
=====================================================================
 Subroutine PRICEL returns:
 Original cell was already a primitive cell.
 

 Routine SETGRP: Setting up the symmetry group for a 
 triclinic supercell.


 Subroutine GETGRP returns: Found  1 space group operations
 (whereof  1 operations were pure point group operations)
 out of a pool of  2 trial point group operations.


The static configuration has the point symmetry C_1 .


Analysis of symmetry for dynamics (positions and initial velocities):
=====================================================================
 Subroutine PRICEL returns:
 Original cell was already a primitive cell.
 

 Routine SETGRP: Setting up the symmetry group for a 
 triclinic supercell.


 Subroutine GETGRP returns: Found  1 space group operations
 (whereof  1 operations were pure point group operations)
 out of a pool of  2 trial point group operations.


The dynamic configuration has the point symmetry C_1 .


 Subroutine INISYM returns: Found  1 space group operations
 (whereof  1 operations are pure point group operations),
 and found     1 'primitive' translations

 
 
 KPOINTS: k-points                                

Automatic generation of k-mesh.
Space group operators:
 irot       det(A)        alpha          n_x          n_y          n_z        tau_x        tau_y        tau_z
    1     1.000000     0.000001     1.000000     0.000000     0.000000     0.000000     0.000000     0.000000
 
 Subroutine IBZKPT returns following result:
 ===========================================
 
 Found     14 irreducible k-points:
 
 Following reciprocal coordinates:
            Coordinates               Weight
  0.000000  0.000000  0.000000      1.000000
  0.333333 -0.000000  0.000000      2.000000
 -0.000000  0.333333  0.000000      2.000000
  0.333333  0.333333 -0.000000      2.000000
 -0.333333  0.333333  0.000000      2.000000
 -0.000000 -0.000000  0.333333      2.000000
  0.333333  0.000000  0.333333      2.000000
 -0.333333 -0.000000  0.333333      2.000000
 -0.000000  0.333333  0.333333      2.000000
  0.333333  0.333333  0.333333      2.000000
 -0.333333  0.333333  0.333333      2.000000
 -0.000000 -0.333333  0.333333      2.000000
  0.333333 -0.333333  0.333333      2.000000
 -0.333333 -0.333333  0.333333      2.000000
 
 Following cartesian coordinates:
            Coordinates               Weight
  0.000000  0.000000  0.000000      1.000000
  0.245296  0.000516  0.000903      2.000000
  0.000364  0.164809 -0.000085      2.000000
  0.245660  0.165324  0.000817      2.000000
 -0.244932  0.164293 -0.000988      2.000000
  0.000607 -0.000092  0.163697      2.000000
  0.245903  0.000424  0.164599      2.000000
 -0.244689 -0.000607  0.162794      2.000000
  0.000971  0.164717  0.163611      2.000000
  0.246267  0.165233  0.164514      2.000000
 -0.244325  0.164201  0.162709      2.000000
  0.000244 -0.164900  0.163782      2.000000
  0.245540 -0.164385  0.164684      2.000000
 -0.245052 -0.165416  0.162879      2.000000
 


--------------------------------------------------------------------------------------------------------




 Dimension of arrays:
   k-points           NKPTS =     14   k-points in BZ     NKDIM =     14   number of bands    NBANDS=    180
   number of dos      NEDOS =    301   number of ions     NIONS =     36
   non local maximal  LDIM  =      6   non local SUM 2l+1 LMDIM =     18
   total plane-waves  NPLWV = 144000
   max r-space proj   IRMAX =   6593   max aug-charges    IRDMAX=  14308
   dimension x,y,z NGX =    40 NGY =   60 NGZ =   60
   dimension x,y,z NGXF=    80 NGYF=  120 NGZF=  120
   support grid    NGXF=    80 NGYF=  120 NGZF=  120
   ions per type =              14   6  10   6
 NGX,Y,Z   is equivalent  to a cutoff of   9.81,  9.89,  9.82 a.u.
 NGXF,Y,Z  is equivalent  to a cutoff of  19.62, 19.77, 19.64 a.u.


 I would recommend the setting:
   dimension x,y,z NGX =    38 NGY =   57 NGZ =   57
 SYSTEM =  automatically generated by mexm         
 POSCAR =  generated by pypospack                  

 Startparameter for this run:
   NWRITE =      2    write-flag & timer
   PREC   = accura    normal or accurate (medium, high low for compatibility)
   ISTART =      0    job   : 0-new  1-cont  2-samecut
   ICHARG =      2    charge: 1-file 2-atom 10-const
   ISPIN  =      1    spin polarized calculation?
   LNONCOLLINEAR =      F non collinear calculations
   LSORBIT =      F    spin-orbit coupling
   INIWAV =      1    electr: 0-lowe 1-rand  2-diag
   LASPH  =      F    aspherical Exc in radial PAW
   METAGGA=      F    non-selfconsistent MetaGGA calc.

 Electronic Relaxation 1
   ENCUT  =  300.0 eV  22.05 Ry    4.70 a.u.   9.57 14.25 14.35*2*pi/ulx,y,z
   ENINI  =  300.0     initial cutoff
   ENAUG  =  461.3 eV  augmentation charge cutoff
   NELM   =     70;   NELMIN=  2; NELMDL= -5     # of ELM steps 
   EDIFF  = 0.1E-04   stopping-criterion for ELM
   LREAL  =      T    real-space projection
   NLSPLINE    = F    spline interpolate recip. space projectors
   LCOMPAT=      F    compatible to vasp.4.4
   GGA_COMPAT  = T    GGA compatible to vasp.4.4-vasp.4.6
   LMAXPAW     = -100 max onsite density
   LMAXMIX     =    2 max onsite mixed and CHGCAR
   VOSKOWN=      0    Vosko Wilk Nusair interpolation
   ROPT   =   -0.00025  -0.00025  -0.00025  -0.00025
 Ionic relaxation
   EDIFFG = -.1E-01   stopping-criterion for IOM
   NSW    =    300    number of steps for IOM
   NBLOCK =      1;   KBLOCK =    300    inner block; outer block 
   IBRION =      2    ionic relax: 0-MD 1-quasi-New 2-CG
   NFREE  =      1    steps in history (QN), initial steepest desc. (CG)
   ISIF   =      3    stress and relaxation
   IWAVPR =     11    prediction:  0-non 1-charg 2-wave 3-comb
   ISYM   =      1    0-nonsym 1-usesym 2-fastsym
   LCORR  =      T    Harris-Foulkes like correction to forces

   POTIM  = 0.1500    time-step for ionic-motion
   TEIN   =    0.0    initial temperature
   TEBEG  =    0.0;   TEEND  =   0.0 temperature during run
   SMASS  =  -3.00    Nose mass-parameter (am)
   estimated Nose-frequenzy (Omega)   =  0.10E-29 period in steps =****** mass=  -0.105E-26a.u.
   SCALEE = 1.0000    scale energy and forces
   NPACO  =    256;   APACO  = 16.0  distance and # of slots for P.C.
   PSTRESS=    0.0 pullay stress

  Mass of Ions in am
   POMASS = 180.95178.49 92.91 91.22
  Ionic Valenz
   ZVAL   =   5.00  4.00 13.00 12.00
  Atomic Wigner-Seitz radii
   RWIGS  =  -1.00 -1.00 -1.00 -1.00
  virtual crystal weights 
   VCA    =   1.00  1.00  1.00  1.00
   NELECT =     296.0000    total number of electrons
   NUPDOWN=      -1.0000    fix difference up-down

 DOS related values:
   EMIN   =  10.00;   EMAX   =-10.00  energy-range for DOS
   EFERMI =   0.00
   ISMEAR =     1;   SIGMA  =   0.15  broadening in eV -4-tet -1-fermi 0-gaus

 Electronic relaxation 2 (details)
   IALGO  =     68    algorithm
   LDIAG  =      T    sub-space diagonalisation (order eigenvalues)
   LSUBROT=      F    optimize rotation matrix (better conditioning)
   TURBO    =      0    0=normal 1=particle mesh
   IRESTART =      0    0=no restart 2=restart with 2 vectors
   NREBOOT  =      0    no. of reboots
   NMIN     =      0    reboot dimension
   EREF     =   0.00    reference energy to select bands
   IMIX   =      4    mixing-type and parameters
     AMIX     =   0.40;   BMIX     =  1.00
     AMIX_MAG =   1.60;   BMIX_MAG =  1.00
     AMIN     =   0.10
     WC   =   100.;   INIMIX=   1;  MIXPRE=   1;  MAXMIX= -45

 Intra band minimization:
   WEIMIN = 0.0010     energy-eigenvalue tresh-hold
   EBREAK =  0.14E-07  absolut break condition
   DEPER  =   0.30     relativ break condition  

   TIME   =   0.40     timestep for ELM

  volume/ion in A,a.u.               =      19.30       130.22
  Fermi-wavevector in a.u.,A,eV,Ry     =   1.231895  2.327945 20.647739  1.517566
  Thomas-Fermi vector in A             =   2.366687
 
 Write flags
   LWAVE  =      F    write WAVECAR
   LCHARG =      F    write CHGCAR
   LVTOT  =      F    write LOCPOT, total local potential
   LVHAR  =      F    write LOCPOT, Hartree potential only
   LELF   =      F    write electronic localiz. function (ELF)
   LORBIT =      0    0 simple, 1 ext, 2 COOP (PROOUT)


 Dipole corrections
   LMONO  =      F    monopole corrections only (constant potential shift)
   LDIPOL =      F    correct potential (dipole corrections)
   IDIPOL =      0    1-x, 2-y, 3-z, 4-all directions 
   EPSILON=  1.0000000 bulk dielectric constant

 Exchange correlation treatment:
   GGA     =    --    GGA type
   LEXCH   =     8    internal setting for exchange type
   VOSKOWN=      0    Vosko Wilk Nusair interpolation
   LHFCALC =     F    Hartree Fock is set to
   LHFONE  =     F    Hartree Fock one center treatment
   AEXX    =    0.0000 exact exchange contribution

 Linear response parameters
   LEPSILON=     F    determine dielectric tensor
   LRPA    =     F    only Hartree local field effects (RPA)
   LNABLA  =     F    use nabla operator in PAW spheres
   LVEL    =     F    velocity operator in full k-point grid
   LINTERFAST=   F  fast interpolation
   KINTER  =     0    interpolate to denser k-point grid
   CSHIFT  =0.1000    complex shift for real part using Kramers Kronig
   OMEGAMAX=  -1.0    maximum frequency
   DEG_THRESHOLD= 0.2000000E-02 threshold for treating states as degnerate
   RTIME   =    0.100 relaxation time in fs

 Orbital magnetization related:
   ORBITALMAG=     F  switch on orbital magnetization
   LCHIMAG   =     F  perturbation theory with respect to B field
   DQ        =  0.001000  dq finite difference perturbation B field



--------------------------------------------------------------------------------------------------------


 conjugate gradient relaxation of ions
 charge density and potential will be updated during run
 non-spin polarized calculation
 RMM-DIIS sequential band-by-band and
  variant of blocked Davidson during initial phase
 perform sub-space diagonalisation
    before iterative eigenvector-optimisation
 modified Broyden-mixing scheme, WC =      100.0
 initial mixing is a Kerker type mixing with AMIX =  0.4000 and BMIX =      1.0000
 Hartree-type preconditioning will be used
 using additional bands           32
 real space projection scheme for non local part
 use partial core corrections
 calculate Harris-corrections to forces 
   (improved forces if not selfconsistent)
 use gradient corrections 
 use of overlap-Matrix (Vanderbilt PP)
 Methfessel and Paxton  Order N= 1 SIGMA  =   0.15


--------------------------------------------------------------------------------------------------------


  energy-cutoff  :      300.00
  volume of cell :      694.70
      direct lattice vectors                 reciprocal lattice vectors
     6.778754132 -0.014969918 -0.025156047     0.147522432  0.000310119  0.000542818
    -0.021230247 10.089146297  0.005721592     0.000218695  0.099116903 -0.000051277
    -0.037387383  0.005337492 10.157775466     0.000365221 -0.000055062  0.098448125

  length of vectors
     6.778817338 10.089170256 10.157845673     0.147523757  0.099117158  0.098448818


 
 k-points in units of 2pi/SCALE and weight: k-points                                
   0.00000000  0.00000000  0.00000000       0.037
   0.24529587  0.00051566  0.00090258       0.074
   0.00036364  0.16480861 -0.00008526       0.074
   0.24565951  0.16532427  0.00081732       0.074
  -0.24493223  0.16429296 -0.00098784       0.074
   0.00060728 -0.00009156  0.16369659       0.074
   0.24590315  0.00042410  0.16459917       0.074
  -0.24468860 -0.00060721  0.16279401       0.074
   0.00097092  0.16471706  0.16361133       0.074
   0.24626679  0.16523271  0.16451391       0.074
  -0.24432496  0.16420140  0.16270875       0.074
   0.00024364 -0.16490017  0.16378185       0.074
   0.24553951 -0.16438451  0.16468443       0.074
  -0.24505224 -0.16541582  0.16287927       0.074
 
 k-points in reciprocal lattice and weights: k-points                                
   0.00000000  0.00000000  0.00000000       0.037
   0.33333333 -0.00000000  0.00000000       0.074
  -0.00000000  0.33333333  0.00000000       0.074
   0.33333333  0.33333333 -0.00000000       0.074
  -0.33333333  0.33333333  0.00000000       0.074
  -0.00000000 -0.00000000  0.33333333       0.074
   0.33333333  0.00000000  0.33333333       0.074
  -0.33333333 -0.00000000  0.33333333       0.074
  -0.00000000  0.33333333  0.33333333       0.074
   0.33333333  0.33333333  0.33333333       0.074
  -0.33333333  0.33333333  0.33333333       0.074
  -0.00000000 -0.33333333  0.33333333       0.074
   0.33333333 -0.33333333  0.33333333       0.074
  -0.33333333 -0.33333333  0.33333333       0.074
 
 position of ions in fractional coordinates (direct lattice) 
   0.52245100  0.99683600  0.00284500
   0.25012700  0.84531200  0.49828100
   0.75465800  0.84179000  0.49848500
   0.25166400  0.50453200  0.17654100
   0.74282100  0.49144000  0.49986700
   0.74902500  0.84121700  0.17014400
   0.97886800  0.00241000  0.00397800
   0.75902900  0.49802200  0.82192000
   0.25782900  0.16149100  0.49754300
   0.26479600  0.14833600  0.82613300
   0.50474700  0.99080400  0.65845300
   0.49696900  0.33045400  0.34149700
   0.74767900  0.16268800  0.17462600
   0.74614100  0.16477400  0.49968800
   0.25329700  0.83368600  0.16694700
   0.01366000  0.33292900  0.66353400
   0.73236400  0.16742400  0.82476600
   0.50441200  0.67170500  0.66235500
   0.47913800  0.33912900  0.99304300
   0.99949400  0.00631900  0.66088800
   0.98883800  0.66606500  0.99767800
   0.50003000  0.66440900  0.34375400
   0.76184700  0.83821200  0.83234700
   0.25770500  0.49534400  0.49603200
   0.50912700  0.00097900  0.33744500
   0.99415000  0.99882900  0.33603500
   0.99495400  0.66350200  0.66156300
   0.00352600  0.33138300  0.34585900
   0.22992400  0.52090500  0.83037300
   0.48882500  0.33892500  0.66276000
   0.00052000  0.66695700  0.34273600
   0.23958600  0.83908000  0.83428200
   0.74934400  0.48963100  0.17622800
   0.01376900  0.33191600  0.99330600
   0.50962500  0.66344800  0.99505700
   0.24905800  0.15913000  0.17301600
 
 position of ions in cartesian coordinates  (Angst):
   3.52029743 10.04941837  0.02145956
   1.65897383  8.52739162  5.05997084
   5.07913258  8.48430595  5.04933087
   1.68865663  5.08747206  1.78981969
   5.00627881  4.94975812  5.06166213
   5.05323583  8.47685668  1.71425514
   6.63530561  0.00968250  0.01579697
   5.10396840  5.01764121  8.33263412
   1.72572907  1.62810228  5.04836811
   1.76095082  1.49702911  8.38586102
   3.37590296  9.99232497  6.68138927
   3.34904736  3.32838190  3.45823880
   5.05834939  1.63112240  1.75593388
   5.03572617  1.65392640  5.05789132
   1.69309701  8.40827926  1.69420820
   0.06072182  3.36230651  6.74159064
   4.93012520  1.68260398  8.36032239
   3.38026075  6.77291432  6.71920758
   3.20363163  3.41964980 10.07699496
   6.75048106  0.05231846  6.68804475
   6.65164838  6.71054950 10.11312481
   3.36262280  6.69766898  3.48299865
   5.11545877  8.44988135  8.44042478
   1.71785722  4.99638783  5.03493300
   3.43860978  0.00405679  3.41488852
   6.70532956 10.06424315  3.39407409
   6.70572812  6.68280545  6.69877559
   0.00393578  3.34516480  3.51496540
   1.51649385  5.25647692  8.43193891
   3.28165016  3.41568371  6.72180955
  -0.02344871  6.73084831  3.48523831
   1.57508909  8.46646727  8.47322307
   5.06263504  4.92968179  1.77403539
   0.04915289  3.35384472 10.09133203
   3.40333483  6.69130600 10.09854141
   1.67845596  1.60268094  1.75210284
 


--------------------------------------------------------------------------------------------------------


 k-point  1 :   0.0000 0.0000 0.0000  plane waves:    8197
 k-point  2 :   0.3333-0.0000 0.0000  plane waves:    8189
 k-point  3 :  -0.0000 0.3333 0.0000  plane waves:    8207
 k-point  4 :   0.3333 0.3333-0.0000  plane waves:    8213
 k-point  5 :  -0.3333 0.3333 0.0000  plane waves:    8199
 k-point  6 :  -0.0000-0.0000 0.3333  plane waves:    8205
 k-point  7 :   0.3333 0.0000 0.3333  plane waves:    8203
 k-point  8 :  -0.3333-0.0000 0.3333  plane waves:    8200
 k-point  9 :  -0.0000 0.3333 0.3333  plane waves:    8219
 k-point 10 :   0.3333 0.3333 0.3333  plane waves:    8182
 k-point 11 :  -0.3333 0.3333 0.3333  plane waves:    8180
 k-point 12 :  -0.0000-0.3333 0.3333  plane waves:    8215
 k-point 13 :   0.3333-0.3333 0.3333  plane waves:    8187
 k-point 14 :  -0.3333-0.3333 0.3333  plane waves:    8176

 maximum and minimum number of plane-waves per node :      1665     1618

 maximum number of plane-waves:      8219
 maximum index in each direction: 
   IXMAX=    9   IYMAX=   14   IZMAX=   14
   IXMIN=   -9   IYMIN=  -14   IZMIN=  -14

 NGX is ok and might be reduce to  38
 NGY is ok and might be reduce to  58
 NGZ is ok and might be reduce to  58

 real space projection operators:
  total allocation   :      29031.61 KBytes
  max/ min on nodes  :       5828.34       5781.66


 parallel 3D FFT for wavefunctions:
    minimum data exchange during FFTs selected (reduces bandwidth)
 parallel 3D FFT for charge:
    minimum data exchange during FFTs selected (reduces bandwidth)


 total amount of memory used by VASP on root node    67653. kBytes
========================================================================

   base      :      30000. kBytes
   nonlr-proj:      11171. kBytes
   fftplans  :       2814. kBytes
   grid      :       5360. kBytes
   one-center:        124. kBytes
   wavefun   :      18184. kBytes
 
     INWAV:  cpu time    0.0000: real time    0.0002
 Broyden mixing: mesh for mixing (old mesh)
   NGX = 19   NGY = 29   NGZ = 29
  (NGX  = 80   NGY  =120   NGZ  =120)
  gives a total of  15979 points

 initial charge density was supplied:
 charge density of overlapping atoms calculated
 number of electron     296.0000000 magnetization 
 keeping initial charge density in first step


--------------------------------------------------------------------------------------------------------


 Maximum index for non-local projection operator         1291
 Maximum index for augmentation-charges          698 (set IRDMAX)


--------------------------------------------------------------------------------------------------------


 First call to EWALD:  gamma=   0.200
 Maximum number of real-space cells 3x 2x 2
 Maximum number of reciprocal cells 2x 3x 3

 FEWALD executed in parallel
    FEWALD:  cpu time    0.0445: real time    0.0451


----------------------------------------- Iteration    1(   1)  ---------------------------------------


    POTLOK:  cpu time    0.0479: real time    0.0758
    SETDIJ:  cpu time    0.1807: real time    0.2542
     EDDAV:  cpu time    1.2552: real time    1.3277
       DOS:  cpu time    0.0025: real time    0.0025
    --------------------------------------------
      LOOP:  cpu time    1.4940: real time    1.8841

 eigenvalue-minimisations  :  5512
 total energy-change (2. order) : 0.1875301E+04  (-0.1115859E+05)
 number of electron     296.0000000 magnetization 
 augmentation part      296.0000000 magnetization 

 Free energy of the ion-electron system (eV)
  ---------------------------------------------------
  alpha Z        PSCENC =      1644.21828414
  Ewald energy   TEWEN  =    -20071.39766302
  -Hartree energ DENC   =     -6615.26439950
  -exchange      EXHF   =         0.00000000
  -V(xc)+E(xc)   XCENC  =      -382.71142330
  PAW double counting   =     21753.48753423   -20058.44501918
  entropy T*S    EENTRO =         0.00387005
  eigenvalues    EBANDS =        64.80732183
  atomic energy  EATOM  =     25540.60277421
  Solvation  Ediel_sol  =         0.00000000
  ---------------------------------------------------
  free energy    TOTEN  =      1875.30127946 eV

  energy without entropy =     1875.29740941  energy(sigma->0) =     1875.29998944


--------------------------------------------------------------------------------------------------------




----------------------------------------- Iteration    1(   2)  ---------------------------------------


     EDDAV:  cpu time    1.2730: real time    1.2783
       DOS:  cpu time    0.0012: real time    0.0012
    --------------------------------------------
      LOOP:  cpu time    1.2749: real time    1.3757

 eigenvalue-minimisations  :  5844
 total energy-change (2. order) :-0.1991161E+04  (-0.1921993E+04)
 number of electron     296.0000000 magnetization 
 augmentation part      296.0000000 magnetization 

 Free energy of the ion-electron system (eV)
  ---------------------------------------------------
  alpha Z        PSCENC =      1644.21828414
  Ewald energy   TEWEN  =    -20071.39766302
  -Hartree energ DENC   =     -6615.26439950
  -exchange      EXHF   =         0.00000000
  -V(xc)+E(xc)   XCENC  =      -382.71142330
  PAW double counting   =     21753.48753423   -20058.44501918
  entropy T*S    EENTRO =        -0.00347896
  eigenvalues    EBANDS =     -1926.34678361
  atomic energy  EATOM  =     25540.60277421
  Solvation  Ediel_sol  =         0.00000000
  ---------------------------------------------------
  free energy    TOTEN  =      -115.86017499 eV

  energy without entropy =     -115.85669603  energy(sigma->0) =     -115.85901534


--------------------------------------------------------------------------------------------------------




----------------------------------------- Iteration    1(   3)  ---------------------------------------


     EDDAV:  cpu time    1.6143: real time    1.6214
       DOS:  cpu time    0.0012: real time    0.0012
    --------------------------------------------
      LOOP:  cpu time    1.6158: real time    1.6453

 eigenvalue-minimisations  :  8520
 total energy-change (2. order) :-0.2452392E+03  (-0.2328123E+03)
 number of electron     296.0000000 magnetization 
 augmentation part      296.0000000 magnetization 

 Free energy of the ion-electron system (eV)
  ---------------------------------------------------
  alpha Z        PSCENC =      1644.21828414
  Ewald energy   TEWEN  =    -20071.39766302
  -Hartree energ DENC   =     -6615.26439950
  -exchange      EXHF   =         0.00000000
  -V(xc)+E(xc)   XCENC  =      -382.71142330
  PAW double counting   =     21753.48753423   -20058.44501918
  entropy T*S    EENTRO =         0.00173148
  eigenvalues    EBANDS =     -2171.59116117
  atomic energy  EATOM  =     25540.60277421
  Solvation  Ediel_sol  =         0.00000000
  ---------------------------------------------------
  free energy    TOTEN  =      -361.09934211 eV

  energy without entropy =     -361.10107359  energy(sigma->0) =     -361.09991927


--------------------------------------------------------------------------------------------------------




----------------------------------------- Iteration    1(   4)  ---------------------------------------


     EDDAV:  cpu time    1.5616: real time    1.5977
       DOS:  cpu time    0.0012: real time    0.0047
    --------------------------------------------
      LOOP:  cpu time    1.5710: real time    1.6333

 eigenvalue-minimisations  :  8384
 total energy-change (2. order) :-0.2699387E+02  (-0.2564870E+02)
 number of electron     296.0000000 magnetization 
 augmentation part      296.0000000 magnetization 

 Free energy of the ion-electron system (eV)
  ---------------------------------------------------
  alpha Z        PSCENC =      1644.21828414
  Ewald energy   TEWEN  =    -20071.39766302
  -Hartree energ DENC   =     -6615.26439950
  -exchange      EXHF   =         0.00000000
  -V(xc)+E(xc)   XCENC  =      -382.71142330
  PAW double counting   =     21753.48753423   -20058.44501918
  entropy T*S    EENTRO =         0.00141841
  eigenvalues    EBANDS =     -2198.58471716
  atomic energy  EATOM  =     25540.60277421
  Solvation  Ediel_sol  =         0.00000000
  ---------------------------------------------------
  free energy    TOTEN  =      -388.09321117 eV

  energy without entropy =     -388.09462957  energy(sigma->0) =     -388.09368397


--------------------------------------------------------------------------------------------------------




----------------------------------------- Iteration    1(   5)  ---------------------------------------


     EDDAV:  cpu time    1.3846: real time    1.4938
       DOS:  cpu time    0.0010: real time    0.0010
    CHARGE:  cpu time    0.0306: real time    0.0309
    MIXING:  cpu time    0.0015: real time    0.0016
    --------------------------------------------
      LOOP:  cpu time    1.4183: real time    1.5480

 eigenvalue-minimisations  :  8040
 total energy-change (2. order) :-0.2658896E+01  (-0.2617981E+01)
 number of electron     296.0000013 magnetization 
 augmentation part       19.3272410 magnetization 

 Broyden mixing:
  rms(total) = 0.68176E+01    rms(broyden)= 0.68172E+01
  rms(prec ) = 0.70790E+01
  weight for this iteration     100.00

 Free energy of the ion-electron system (eV)
  ---------------------------------------------------
  alpha Z        PSCENC =      1644.21828414
  Ewald energy   TEWEN  =    -20071.39766302
  -Hartree energ DENC   =     -6615.26439950
  -exchange      EXHF   =         0.00000000
  -V(xc)+E(xc)   XCENC  =      -382.71142330
  PAW double counting   =     21753.48753423   -20058.44501918
  entropy T*S    EENTRO =         0.00359727
  eigenvalues    EBANDS =     -2201.24579194
  atomic energy  EATOM  =     25540.60277421
  Solvation  Ediel_sol  =         0.00000000
  ---------------------------------------------------
  free energy    TOTEN  =      -390.75210709 eV

  energy without entropy =     -390.75570436  energy(sigma->0) =     -390.75330618


--------------------------------------------------------------------------------------------------------




----------------------------------------- Iteration    1(   6)  ---------------------------------------


    POTLOK:  cpu time    0.0305: real time    0.0306
    SETDIJ:  cpu time    0.0038: real time    0.0038
    EDDIAG:  cpu time    0.0758: real time    0.0764
  RMM-DIIS:  cpu time    0.7416: real time    0.7473
    ORTHCH:  cpu time    0.0120: real time    0.0121
       DOS:  cpu time    0.0010: real time    0.0010
    CHARGE:  cpu time    0.0318: real time    0.0320
    MIXING:  cpu time    0.0019: real time    0.0027
    --------------------------------------------
      LOOP:  cpu time    0.8991: real time    0.9277

 eigenvalue-minimisations  :  7030
 total energy-change (2. order) : 0.1058516E+02  (-0.2261276E+01)
 number of electron     296.0000013 magnetization 
 augmentation part       20.1201169 magnetization 

 Broyden mixing:
  rms(total) = 0.32575E+01    rms(broyden)= 0.32575E+01
  rms(prec ) = 0.35821E+01
  weight for this iteration     100.00

 eigenvalues of (default mixing * dielectric matrix)
  average eigenvalue GAMMA=   1.8356
  1.8356

 Free energy of the ion-electron system (eV)
  ---------------------------------------------------
  alpha Z        PSCENC =      1644.21828414
  Ewald energy   TEWEN  =    -20071.39766302
  -Hartree energ DENC   =     -6428.47256895
  -exchange      EXHF   =         0.00000000
  -V(xc)+E(xc)   XCENC  =      -386.11570150
  PAW double counting   =     27241.53458279   -25554.63301034
  entropy T*S    EENTRO =         0.00906023
  eigenvalues    EBANDS =     -2365.91270049
  atomic energy  EATOM  =     25540.60277421
  Solvation  Ediel_sol  =         0.00000000
  ---------------------------------------------------
  free energy    TOTEN  =      -380.16694293 eV

  energy without entropy =     -380.17600316  energy(sigma->0) =     -380.16996301


--------------------------------------------------------------------------------------------------------




----------------------------------------- Iteration    1(   7)  ---------------------------------------


    POTLOK:  cpu time    0.0297: real time    0.0299
    SETDIJ:  cpu time    0.0039: real time    0.0039
    EDDIAG:  cpu time    0.0755: real time    0.0758
  RMM-DIIS:  cpu time    0.8226: real time    0.8263
    ORTHCH:  cpu time    0.0119: real time    0.0119
       DOS:  cpu time    0.0217: real time    0.0218
    CHARGE:  cpu time    0.0483: real time    0.0485
    MIXING:  cpu time    0.0013: real time    0.0013
    --------------------------------------------
      LOOP:  cpu time    1.0155: real time    1.0419

 eigenvalue-minimisations  :  7399
 total energy-change (2. order) :-0.3568545E+01  (-0.2971532E+01)
 number of electron     296.0000014 magnetization 
 augmentation part       20.6032565 magnetization 

 Broyden mixing:
  rms(total) = 0.13274E+01    rms(broyden)= 0.13272E+01
  rms(prec ) = 0.40026E+01
  weight for this iteration     100.00

 eigenvalues of (default mixing * dielectric matrix)
  average eigenvalue GAMMA=   1.1631
  1.8542  0.4720

 Free energy of the ion-electron system (eV)
  ---------------------------------------------------
  alpha Z        PSCENC =      1644.21828414
  Ewald energy   TEWEN  =    -20071.39766302
  -Hartree energ DENC   =     -6391.78480031
  -exchange      EXHF   =         0.00000000
  -V(xc)+E(xc)   XCENC  =      -383.83585081
  PAW double counting   =     32633.68749467   -30940.19560536
  entropy T*S    EENTRO =        -0.00116825
  eigenvalues    EBANDS =     -2415.02895298
  atomic energy  EATOM  =     25540.60277421
  Solvation  Ediel_sol  =         0.00000000
  ---------------------------------------------------
  free energy    TOTEN  =      -383.73548771 eV

  energy without entropy =     -383.73431946  energy(sigma->0) =     -383.73509829


--------------------------------------------------------------------------------------------------------




----------------------------------------- Iteration    1(   8)  ---------------------------------------


    POTLOK:  cpu time    0.0345: real time    0.0346
    SETDIJ:  cpu time    0.0045: real time    0.0045
    EDDIAG:  cpu time    0.0898: real time    0.0904
  RMM-DIIS:  cpu time    0.8506: real time    0.8712
    ORTHCH:  cpu time    0.0119: real time    0.0120
       DOS:  cpu time    0.0083: real time    0.0084
    CHARGE:  cpu time    0.0575: real time    0.0579
    MIXING:  cpu time    0.0012: real time    0.0012
    --------------------------------------------
      LOOP:  cpu time    1.0591: real time    1.1233

 eigenvalue-minimisations  :  7388
 total energy-change (2. order) : 0.7871431E+01  (-0.7890898E+00)
 number of electron     296.0000014 magnetization 
 augmentation part       20.4606382 magnetization 

 Broyden mixing:
  rms(total) = 0.44164E+00    rms(broyden)= 0.44124E+00
  rms(prec ) = 0.69100E+00
  weight for this iteration     100.00

 eigenvalues of (default mixing * dielectric matrix)
  average eigenvalue GAMMA=   1.1262
  1.8807  1.1233  0.3747

 Free energy of the ion-electron system (eV)
  ---------------------------------------------------
  alpha Z        PSCENC =      1644.21828414
  Ewald energy   TEWEN  =    -20071.39766302
  -Hartree energ DENC   =     -6357.78230605
  -exchange      EXHF   =         0.00000000
  -V(xc)+E(xc)   XCENC  =      -383.80072553
  PAW double counting   =     33767.79907378   -32072.60816799
  entropy T*S    EENTRO =         0.00109484
  eigenvalues    EBANDS =     -2442.89642147
  atomic energy  EATOM  =     25540.60277421
  Solvation  Ediel_sol  =         0.00000000
  ---------------------------------------------------
  free energy    TOTEN  =      -375.86405709 eV

  energy without entropy =     -375.86515193  energy(sigma->0) =     -375.86442204


--------------------------------------------------------------------------------------------------------




----------------------------------------- Iteration    1(   9)  ---------------------------------------


    POTLOK:  cpu time    0.0285: real time    0.0294
    SETDIJ:  cpu time    0.0038: real time    0.0038
    EDDIAG:  cpu time    0.0797: real time    0.0803
  RMM-DIIS:  cpu time    0.8866: real time    0.8905
    ORTHCH:  cpu time    0.0119: real time    0.0119
       DOS:  cpu time    0.0011: real time    0.0011
    CHARGE:  cpu time    0.0345: real time    0.0346
    MIXING:  cpu time    0.0014: real time    0.0014
    --------------------------------------------
      LOOP:  cpu time    1.0482: real time    1.0749

 eigenvalue-minimisations  :  7717
 total energy-change (2. order) : 0.2778582E+00  (-0.2296951E+00)
 number of electron     296.0000014 magnetization 
 augmentation part       20.3570251 magnetization 

 Broyden mixing:
  rms(total) = 0.30896E+00    rms(broyden)= 0.30891E+00
  rms(prec ) = 0.41688E+00
  weight for this iteration     100.00

 eigenvalues of (default mixing * dielectric matrix)
  average eigenvalue GAMMA=   1.1584
  1.8908  1.8908  0.4749  0.3769

 Free energy of the ion-electron system (eV)
  ---------------------------------------------------
  alpha Z        PSCENC =      1644.21828414
  Ewald energy   TEWEN  =    -20071.39766302
  -Hartree energ DENC   =     -6350.01611283
  -exchange      EXHF   =         0.00000000
  -V(xc)+E(xc)   XCENC  =      -383.70400874
  PAW double counting   =     34001.60013201   -32302.83780555
  entropy T*S    EENTRO =         0.00387350
  eigenvalues    EBANDS =     -2454.05567257
  atomic energy  EATOM  =     25540.60277421
  Solvation  Ediel_sol  =         0.00000000
  ---------------------------------------------------
  free energy    TOTEN  =      -375.58619885 eV

  energy without entropy =     -375.59007234  energy(sigma->0) =     -375.58749001


--------------------------------------------------------------------------------------------------------




----------------------------------------- Iteration    1(  10)  ---------------------------------------


    POTLOK:  cpu time    0.0295: real time    0.0297
    SETDIJ:  cpu time    0.0038: real time    0.0038
    EDDIAG:  cpu time    0.0762: real time    0.0764
  RMM-DIIS:  cpu time    0.8210: real time    0.8243
    ORTHCH:  cpu time    0.0119: real time    0.0119
       DOS:  cpu time    0.0014: real time    0.0014
    CHARGE:  cpu time    0.0317: real time    0.0318
    MIXING:  cpu time    0.0014: real time    0.0014
    --------------------------------------------
      LOOP:  cpu time    0.9775: real time    1.0068

 eigenvalue-minimisations  :  7751
 total energy-change (2. order) : 0.3221001E-01  (-0.5465456E-01)
 number of electron     296.0000014 magnetization 
 augmentation part       20.2474631 magnetization 

 Broyden mixing:
  rms(total) = 0.15522E+00    rms(broyden)= 0.15517E+00
  rms(prec ) = 0.25753E+00
  weight for this iteration     100.00

 eigenvalues of (default mixing * dielectric matrix)
  average eigenvalue GAMMA=   1.0964
  2.1071  1.8767  0.6657  0.4057  0.4267

 Free energy of the ion-electron system (eV)
  ---------------------------------------------------
  alpha Z        PSCENC =      1644.21828414
  Ewald energy   TEWEN  =    -20071.39766302
  -Hartree energ DENC   =     -6361.67599623
  -exchange      EXHF   =         0.00000000
  -V(xc)+E(xc)   XCENC  =      -382.80388423
  PAW double counting   =     34264.26244151   -32558.68273087
  entropy T*S    EENTRO =         0.00641370
  eigenvalues    EBANDS =     -2450.08362804
  atomic energy  EATOM  =     25540.60277421
  Solvation  Ediel_sol  =         0.00000000
  ---------------------------------------------------
  free energy    TOTEN  =      -375.55398884 eV

  energy without entropy =     -375.56040254  energy(sigma->0) =     -375.55612674


--------------------------------------------------------------------------------------------------------




----------------------------------------- Iteration    1(  11)  ---------------------------------------


    POTLOK:  cpu time    0.0293: real time    0.0294
    SETDIJ:  cpu time    0.0255: real time    0.0256
    EDDIAG:  cpu time    0.0816: real time    0.0819
  RMM-DIIS:  cpu time    0.8154: real time    0.8189
    ORTHCH:  cpu time    0.0119: real time    0.0119
       DOS:  cpu time    0.0014: real time    0.0014
    CHARGE:  cpu time    0.0296: real time    0.0297
    MIXING:  cpu time    0.0014: real time    0.0014
    --------------------------------------------
      LOOP:  cpu time    0.9966: real time    1.0257

 eigenvalue-minimisations  :  7654
 total energy-change (2. order) : 0.3144598E-01  (-0.1674794E-01)
 number of electron     296.0000014 magnetization 
 augmentation part       20.2027335 magnetization 

 Broyden mixing:
  rms(total) = 0.69048E-01    rms(broyden)= 0.68990E-01
  rms(prec ) = 0.15705E+00
  weight for this iteration     100.00

 eigenvalues of (default mixing * dielectric matrix)
  average eigenvalue GAMMA=   1.0685
  2.1689  1.7558  1.1487  0.5379  0.3997  0.3997

 Free energy of the ion-electron system (eV)
  ---------------------------------------------------
  alpha Z        PSCENC =      1644.21828414
  Ewald energy   TEWEN  =    -20071.39766302
  -Hartree energ DENC   =     -6372.99896017
  -exchange      EXHF   =         0.00000000
  -V(xc)+E(xc)   XCENC  =      -382.07419746
  PAW double counting   =     34487.47189711   -32777.25983904
  entropy T*S    EENTRO =         0.00378656
  eigenvalues    EBANDS =     -2444.08862518
  atomic energy  EATOM  =     25540.60277421
  Solvation  Ediel_sol  =         0.00000000
  ---------------------------------------------------
  free energy    TOTEN  =      -375.52254286 eV

  energy without entropy =     -375.52632941  energy(sigma->0) =     -375.52380504


--------------------------------------------------------------------------------------------------------




----------------------------------------- Iteration    1(  12)  ---------------------------------------


    POTLOK:  cpu time    0.0285: real time    0.0286
    SETDIJ:  cpu time    0.0208: real time    0.0209
    EDDIAG:  cpu time    0.0813: real time    0.0815
  RMM-DIIS:  cpu time    0.9102: real time    0.9139
    ORTHCH:  cpu time    0.0118: real time    0.0119
       DOS:  cpu time    0.0012: real time    0.0012
    CHARGE:  cpu time    0.0319: real time    0.0320
    MIXING:  cpu time    0.0014: real time    0.0014
    --------------------------------------------
      LOOP:  cpu time    1.0878: real time    1.1344

 eigenvalue-minimisations  :  7866
 total energy-change (2. order) : 0.5521154E-02  (-0.5725628E-02)
 number of electron     296.0000014 magnetization 
 augmentation part       20.1984825 magnetization 

 Broyden mixing:
  rms(total) = 0.43070E-01    rms(broyden)= 0.43046E-01
  rms(prec ) = 0.83487E-01
  weight for this iteration     100.00

 eigenvalues of (default mixing * dielectric matrix)
  average eigenvalue GAMMA=   1.0239
  2.2131  1.7243  1.4475  0.5200  0.5106  0.3758  0.3758

 Free energy of the ion-electron system (eV)
  ---------------------------------------------------
  alpha Z        PSCENC =      1644.21828414
  Ewald energy   TEWEN  =    -20071.39766302
  -Hartree energ DENC   =     -6374.98717692
  -exchange      EXHF   =         0.00000000
  -V(xc)+E(xc)   XCENC  =      -381.95797138
  PAW double counting   =     34581.17599420   -32869.79625007
  entropy T*S    EENTRO =         0.00406936
  eigenvalues    EBANDS =     -2443.37908222
  atomic energy  EATOM  =     25540.60277421
  Solvation  Ediel_sol  =         0.00000000
  ---------------------------------------------------
  free energy    TOTEN  =      -375.51702170 eV

  energy without entropy =     -375.52109106  energy(sigma->0) =     -375.51837815


--------------------------------------------------------------------------------------------------------




----------------------------------------- Iteration    1(  13)  ---------------------------------------


    POTLOK:  cpu time    0.0289: real time    0.0290
    SETDIJ:  cpu time    0.0038: real time    0.0038
    EDDIAG:  cpu time    0.0752: real time    0.0756
  RMM-DIIS:  cpu time    0.8189: real time    0.8232
    ORTHCH:  cpu time    0.0138: real time    0.0139
       DOS:  cpu time    0.0010: real time    0.0010
    CHARGE:  cpu time    0.0314: real time    0.0315
    MIXING:  cpu time    0.0019: real time    0.0019
    --------------------------------------------
      LOOP:  cpu time    0.9756: real time    1.0054

 eigenvalue-minimisations  :  7723
 total energy-change (2. order) : 0.2643651E-02  (-0.1800680E-02)
 number of electron     296.0000014 magnetization 
 augmentation part       20.2013811 magnetization 

 Broyden mixing:
  rms(total) = 0.25032E-01    rms(broyden)= 0.25026E-01
  rms(prec ) = 0.34633E-01
  weight for this iteration     100.00

 eigenvalues of (default mixing * dielectric matrix)
  average eigenvalue GAMMA=   1.0478
  2.3441  1.9423  1.5226  0.8447  0.5851  0.4108  0.3931  0.3397

 Free energy of the ion-electron system (eV)
  ---------------------------------------------------
  alpha Z        PSCENC =      1644.21828414
  Ewald energy   TEWEN  =    -20071.39766302
  -Hartree energ DENC   =     -6374.78414059
  -exchange      EXHF   =         0.00000000
  -V(xc)+E(xc)   XCENC  =      -381.96350258
  PAW double counting   =     34656.63626750   -32944.47059945
  entropy T*S    EENTRO =         0.00388490
  eigenvalues    EBANDS =     -2444.35968316
  atomic energy  EATOM  =     25540.60277421
  Solvation  Ediel_sol  =         0.00000000
  ---------------------------------------------------
  free energy    TOTEN  =      -375.51437805 eV

  energy without entropy =     -375.51826295  energy(sigma->0) =     -375.51567302


--------------------------------------------------------------------------------------------------------




----------------------------------------- Iteration    1(  14)  ---------------------------------------


    POTLOK:  cpu time    0.0305: real time    0.0308
    SETDIJ:  cpu time    0.0038: real time    0.0038
    EDDIAG:  cpu time    0.0760: real time    0.0765
  RMM-DIIS:  cpu time    0.8355: real time    0.8393
    ORTHCH:  cpu time    0.0155: real time    0.0156
       DOS:  cpu time    0.0010: real time    0.0010
    CHARGE:  cpu time    0.0302: real time    0.0303
    MIXING:  cpu time    0.0017: real time    0.0017
    --------------------------------------------
      LOOP:  cpu time    0.9949: real time    1.0198

 eigenvalue-minimisations  :  7863
 total energy-change (2. order) : 0.2089871E-03  (-0.5345987E-03)
 number of electron     296.0000014 magnetization 
 augmentation part       20.2004960 magnetization 

 Broyden mixing:
  rms(total) = 0.12854E-01    rms(broyden)= 0.12852E-01
  rms(prec ) = 0.18012E-01
  weight for this iteration     100.00

 eigenvalues of (default mixing * dielectric matrix)
  average eigenvalue GAMMA=   1.0804
  2.5370  2.0986  1.5812  1.1652  0.6058  0.6058  0.3986  0.3986  0.3330

 Free energy of the ion-electron system (eV)
  ---------------------------------------------------
  alpha Z        PSCENC =      1644.21828414
  Ewald energy   TEWEN  =    -20071.39766302
  -Hartree energ DENC   =     -6375.43749699
  -exchange      EXHF   =         0.00000000
  -V(xc)+E(xc)   XCENC  =      -381.93683445
  PAW double counting   =     34697.41221352   -32984.53914855
  entropy T*S    EENTRO =         0.00394438
  eigenvalues    EBANDS =     -2444.44024229
  atomic energy  EATOM  =     25540.60277421
  Solvation  Ediel_sol  =         0.00000000
  ---------------------------------------------------
  free energy    TOTEN  =      -375.51416906 eV

  energy without entropy =     -375.51811345  energy(sigma->0) =     -375.51548386


--------------------------------------------------------------------------------------------------------




----------------------------------------- Iteration    1(  15)  ---------------------------------------


    POTLOK:  cpu time    0.0310: real time    0.0311
    SETDIJ:  cpu time    0.0038: real time    0.0038
    EDDIAG:  cpu time    0.0761: real time    0.0766
  RMM-DIIS:  cpu time    0.8419: real time    0.8452
    ORTHCH:  cpu time    0.0119: real time    0.0120
       DOS:  cpu time    0.0016: real time    0.0017
    CHARGE:  cpu time    0.0304: real time    0.0305
    MIXING:  cpu time    0.0016: real time    0.0016
    --------------------------------------------
      LOOP:  cpu time    0.9990: real time    1.0272

 eigenvalue-minimisations  :  7951
 total energy-change (2. order) :-0.1231717E-03  (-0.2701755E-03)
 number of electron     296.0000014 magnetization 
 augmentation part       20.2002843 magnetization 

 Broyden mixing:
  rms(total) = 0.63836E-02    rms(broyden)= 0.63811E-02
  rms(prec ) = 0.10915E-01
  weight for this iteration     100.00

 eigenvalues of (default mixing * dielectric matrix)
  average eigenvalue GAMMA=   1.0512
  2.5721  2.0847  1.4430  1.4430  0.6716  0.6716  0.4646  0.4339  0.3938  0.3337

 Free energy of the ion-electron system (eV)
  ---------------------------------------------------
  alpha Z        PSCENC =      1644.21828414
  Ewald energy   TEWEN  =    -20071.39766302
  -Hartree energ DENC   =     -6375.61324940
  -exchange      EXHF   =         0.00000000
  -V(xc)+E(xc)   XCENC  =      -381.93345291
  PAW double counting   =     34726.34908775   -33012.99783110
  entropy T*S    EENTRO =         0.00400882
  eigenvalues    EBANDS =     -2444.74625072
  atomic energy  EATOM  =     25540.60277421
  Solvation  Ediel_sol  =         0.00000000
  ---------------------------------------------------
  free energy    TOTEN  =      -375.51429224 eV

  energy without entropy =     -375.51830105  energy(sigma->0) =     -375.51562851


--------------------------------------------------------------------------------------------------------




----------------------------------------- Iteration    1(  16)  ---------------------------------------


    POTLOK:  cpu time    0.0296: real time    0.0297
    SETDIJ:  cpu time    0.0038: real time    0.0038
    EDDIAG:  cpu time    0.0785: real time    0.0789
  RMM-DIIS:  cpu time    0.7432: real time    0.7464
    ORTHCH:  cpu time    0.0120: real time    0.0120
       DOS:  cpu time    0.0011: real time    0.0011
    CHARGE:  cpu time    0.0306: real time    0.0307
    MIXING:  cpu time    0.0017: real time    0.0017
    --------------------------------------------
      LOOP:  cpu time    0.9011: real time    0.9247

 eigenvalue-minimisations  :  6969
 total energy-change (2. order) :-0.2486216E-04  (-0.1084619E-03)
 number of electron     296.0000014 magnetization 
 augmentation part       20.1995195 magnetization 

 Broyden mixing:
  rms(total) = 0.37206E-02    rms(broyden)= 0.37187E-02
  rms(prec ) = 0.67296E-02
  weight for this iteration     100.00

 eigenvalues of (default mixing * dielectric matrix)
  average eigenvalue GAMMA=   1.0510
  2.5947  2.0672  1.5803  1.5803  0.8025  0.8025  0.3331  0.3962  0.3962  0.5107
  0.4975

 Free energy of the ion-electron system (eV)
  ---------------------------------------------------
  alpha Z        PSCENC =      1644.21828414
  Ewald energy   TEWEN  =    -20071.39766302
  -Hartree energ DENC   =     -6375.74670189
  -exchange      EXHF   =         0.00000000
  -V(xc)+E(xc)   XCENC  =      -381.92959348
  PAW double counting   =     34733.55994684   -33020.08329128
  entropy T*S    EENTRO =         0.00398785
[...]
    102       5.7306      2.00000
    103       5.8220      2.00000
    104       5.8568      2.00000
    105       5.8866      2.00000
    106       6.1201      2.00000
    107       6.1389      2.00000
    108       6.2289      2.00000
    109       6.2440      2.00000
    110       6.2659      2.00000
    111       6.3036      2.00000
    112       6.3237      2.00000
    113       6.3441      2.00000
    114       6.3721      2.00000
    115       6.4184      2.00000
    116       6.4424      2.00000
    117       6.4628      2.00000
    118       6.4884      2.00000
    119       6.5370      2.00000
    120       6.5637      2.00000
    121       6.6172      2.00000
    122       6.6262      2.00000
    123       6.6674      2.00000
    124       6.6958      2.00000
    125       6.7210      2.00000
    126       6.7868      2.00000
    127       6.8049      2.00000
    128       6.9322      2.00000
    129       6.9587      2.00000
    130       7.0031      2.00000
    131       7.0417      2.00000
    132       7.0697      2.00000
    133       7.0791      2.00000
    134       7.1556      2.00001
    135       7.1978      2.00004
    136       7.2436      2.00024
    137       7.2577      2.00040
    138       7.2998      2.00163
    139       7.3358      2.00465
    140       7.3639      2.00957
    141       7.3980      2.02037
    142       7.4175      2.02944
    143       7.4684      2.05932
    144       7.4917      2.06941
    145       7.5072      2.07063
    146       7.5380      2.04795
    147       7.5593      2.00233
    148       7.5740      1.95205
    149       7.6261      1.62329
    150       7.6451      1.44725
    151       7.7075      0.76490
    152       7.7315      0.51560
    153       7.7597      0.27268
    154       7.7988      0.04831
    155       7.8247     -0.03011
    156       7.8683     -0.07087
    157       7.9342     -0.04138
    158       7.9570     -0.02855
    159       7.9735     -0.02090
    160       8.0364     -0.00472
    161       8.1013     -0.00065
    162       8.1304     -0.00023
    163       8.1419     -0.00015
    164       8.2213     -0.00001
    165       8.2752     -0.00000
    166       8.3428     -0.00000
    167       8.4944     -0.00000
    168       8.5414     -0.00000
    169       8.7460     -0.00000
    170       8.8124     -0.00000
    171       8.9005     -0.00000
    172       9.6221     -0.00000
    173       9.6822     -0.00000
    174       9.7042     -0.00000
    175       9.7664     -0.00000
    176       9.8177     -0.00000
    177       9.8624     -0.00000
    178       9.9226     -0.00000
    179      10.0563     -0.00000
    180      10.1611     -0.00000


--------------------------------------------------------------------------------------------------------


 soft charge-density along one line, spin component           1
         0         1         2         3         4         5         6         7         8         9
 total charge-density along one line
 
 pseudopotential strength for first ion, spin component:           1
 -6.355   0.003   0.000  -0.001  -0.001  -7.546   0.004   0.000
  0.003  -6.348  -0.001  -0.003   0.001   0.004  -7.537  -0.001
  0.000  -0.001  -6.356   0.001   0.000   0.000  -0.001  -7.547
 -0.001  -0.003   0.001  -6.349   0.001  -0.001  -0.004   0.001
 -0.001   0.001   0.000   0.001  -6.358  -0.001   0.001   0.000
 -7.546   0.004   0.000  -0.001  -0.001  -8.939   0.005   0.000
  0.004  -7.537  -0.001  -0.004   0.001   0.005  -8.928  -0.001
  0.000  -0.001  -7.547   0.001   0.000   0.000  -0.001  -8.940
 -0.001  -0.004   0.001  -7.539   0.002  -0.001  -0.005   0.001
 -0.001   0.001   0.000   0.002  -7.550  -0.001   0.001   0.000
  0.001   0.000  -0.002  -0.001   0.001   0.001   0.001  -0.002
  0.002   0.001  -0.003  -0.003   0.002   0.002   0.001  -0.004
 -0.003  -0.003  -0.002  -0.003  -0.003  -0.004  -0.003  -0.002
 -0.003   0.001  -0.003  -0.002   0.001  -0.004   0.001  -0.004
  0.001  -0.003   0.006  -0.001  -0.010   0.001  -0.004   0.007
  0.001   0.003   0.002   0.005   0.004   0.001   0.003   0.002
  0.005  -0.001   0.004  -0.000  -0.001   0.006  -0.001   0.005
 -0.000   0.005  -0.007   0.001   0.011  -0.000   0.006  -0.008
 total augmentation occupancy for first ion, spin component:           1
  4.970   0.249  -0.059  -0.110  -0.032  -2.602  -0.140   0.014   0.058   0.008  -0.038   0.022   0.065   0.052  -0.037   0.003
  0.249   5.326  -0.107  -0.224   0.165  -0.141  -2.747   0.063   0.121  -0.105  -0.144   0.023   0.005   0.039   0.049   0.002
 -0.059  -0.107   4.919   0.036  -0.037   0.013   0.062  -2.731  -0.034   0.031   0.028  -0.024   0.037   0.046  -0.079   0.001
 -0.110  -0.224   0.036   5.298   0.051   0.058   0.121  -0.035  -2.760  -0.048   0.146  -0.040   0.057   0.054   0.033   0.004
 -0.032   0.165  -0.037   0.051   4.946   0.008  -0.105   0.031  -0.048  -2.721   0.020   0.002   0.020   0.008   0.142   0.002
 -2.602  -0.141   0.013   0.058   0.008   1.383   0.078   0.002  -0.029   0.000   0.025  -0.012  -0.038  -0.028   0.016  -0.001
 -0.140  -2.747   0.062   0.121  -0.105   0.078   1.440  -0.036  -0.066   0.065   0.090  -0.013  -0.002  -0.021  -0.027  -0.001
  0.014   0.063  -2.731  -0.035   0.031   0.002  -0.036   1.528   0.026  -0.023  -0.021   0.014  -0.018  -0.022   0.046  -0.001
  0.058   0.121  -0.034  -2.760  -0.048  -0.029  -0.066   0.026   1.462   0.036  -0.092   0.022  -0.030  -0.033  -0.017  -0.002
  0.008  -0.105   0.031  -0.048  -2.721   0.000   0.065  -0.023   0.036   1.510  -0.018  -0.000  -0.008  -0.005  -0.081  -0.001
 -0.038  -0.144   0.028   0.146   0.020   0.025   0.090  -0.021  -0.092  -0.018   2.257  -0.237  -0.011   0.009   0.054  -0.000
  0.022   0.023  -0.024  -0.040   0.002  -0.012  -0.013   0.014   0.022  -0.000  -0.237   0.027  -0.001   0.001   0.000  -0.000
  0.065   0.005   0.037   0.057   0.020  -0.038  -0.002  -0.018  -0.030  -0.008  -0.011  -0.001   0.292  -0.005  -0.009   0.007
  0.052   0.039   0.046   0.054   0.008  -0.028  -0.021  -0.022  -0.033  -0.005   0.009   0.001  -0.005   0.304   0.014   0.000
 -0.037   0.049  -0.079   0.033   0.142   0.016  -0.027   0.046  -0.017  -0.081   0.054   0.000  -0.009   0.014   0.310  -0.000
  0.003   0.002   0.001   0.004   0.002  -0.001  -0.001  -0.001  -0.002  -0.001  -0.000  -0.000   0.007   0.000  -0.000   0.000
  0.003  -0.000   0.003   0.002  -0.000  -0.002   0.000  -0.002  -0.001   0.000   0.001  -0.000   0.000   0.008   0.000   0.000
 -0.001   0.004  -0.005   0.001   0.009   0.000  -0.002   0.003  -0.001  -0.005   0.002  -0.000  -0.000   0.000   0.008  -0.000


------------------------ aborting loop because EDIFF is reached ----------------------------------------


    CHARGE:  cpu time    0.0294: real time    0.0297
    FORLOC:  cpu time    0.0134: real time    0.0134
    FORNL :  cpu time    0.3476: real time    0.3618
    STRESS:  cpu time    0.9438: real time    0.9538
    FORCOR:  cpu time    0.0425: real time    0.0427
    FORHAR:  cpu time    0.0181: real time    0.0182
    MIXING:  cpu time    0.0013: real time    0.0013
    OFIELD:  cpu time    0.0000: real time    0.0000

  FORCE on cell =-STRESS in cart. coord.  units (eV):
  Direction    XX          YY          ZZ          XY          YZ          ZX
  --------------------------------------------------------------------------------------
  Alpha Z  1634.22725  1634.22725  1634.22725
  Ewald   -6002.81558 -7408.36555 -6561.62995  -404.97285  -203.49476     3.20285
  Hartree  2759.13939  1419.00180  2269.46273  -360.88169  -141.57333   -28.26335
  E(xc)   -1307.83505 -1308.20101 -1308.09184    -0.36123    -0.85769     0.19501
  Local   -1987.32049   755.60720  -940.17462   764.84197   346.88521    24.47872
  n-local  -307.91307  -311.15637  -310.62706    -2.24787     4.18100    -3.58697
  augment   248.35973   248.87140   248.60035     0.39944    -0.74265     0.57161
  Kinetic  4964.06468  4970.00273  4968.14813     3.20833    -4.40630     3.38396
  Fock        0.00000     0.00000     0.00000     0.00000     0.00000     0.00000
  -------------------------------------------------------------------------------------
  Total      -0.09315    -0.01256    -0.08501    -0.01391    -0.00852    -0.01817
  in kB      -0.21354    -0.02879    -0.19487    -0.03188    -0.01952    -0.04165
  external pressure =       -0.15 kB  Pullay stress =        0.00 kB


 VOLUME and BASIS-vectors are now :
 -----------------------------------------------------------------------------
  energy-cutoff  :      300.00
  volume of cell :      698.94
      direct lattice vectors                 reciprocal lattice vectors
     6.815346490 -0.027445827 -0.020349570     0.146731326  0.000580194  0.000437672
    -0.039881077 10.084300501  0.002167921     0.000399297  0.099165625 -0.000016612
    -0.030342271  0.001825807 10.169952914     0.000293517 -0.000019978  0.098329751

  length of vectors
     6.815432133 10.084379594 10.169998342     0.146733126  0.099166430  0.098330192


 FORCES acting on ions
    electron-ion (+dipol)            ewald-force                    non-local-force                 convergence-correction
 -----------------------------------------------------------------------------------------------
   -.333E+00 -.101E+03 0.369E+02   0.116E+01 0.101E+03 -.365E+02   -.825E+00 0.225E+00 -.359E+00   0.810E-03 0.645E-02 0.236E-02
   -.127E+02 -.856E+02 -.836E+02   0.133E+02 0.862E+02 0.833E+02   -.594E+00 -.662E+00 0.329E+00   -.350E-03 0.114E-01 0.161E-02
   0.132E+02 -.693E+02 -.894E+02   -.138E+02 0.700E+02 0.890E+02   0.567E+00 -.675E+00 0.352E+00   0.456E-03 0.115E-01 0.166E-02
   -.493E+02 0.523E+02 0.366E+02   0.494E+02 -.524E+02 -.360E+02   -.657E-01 0.111E+00 -.518E+00   -.844E-03 -.931E-02 0.494E-03
   0.145E+02 0.531E+02 -.597E+02   -.149E+02 -.536E+02 0.595E+02   0.355E+00 0.449E+00 0.210E+00   0.970E-03 -.108E-01 0.375E-02
   0.846E+01 -.804E+02 0.318E+02   -.834E+01 0.810E+02 -.318E+02   -.128E+00 -.592E+00 -.721E-01   0.157E-02 0.135E-01 -.160E-03
   0.645E+01 -.895E+02 0.425E+02   -.755E+01 0.894E+02 -.424E+02   0.110E+01 0.110E+00 -.130E+00   -.336E-03 0.508E-02 0.283E-02
   0.521E+02 0.120E+03 0.277E+02   -.516E+02 -.120E+03 -.280E+02   -.439E+00 -.342E-01 0.342E+00   0.713E-03 -.448E-02 -.449E-02
   0.540E+01 0.552E+02 -.114E+03   -.473E+01 -.552E+02 0.113E+03   -.659E+00 0.597E-01 0.551E+00   -.145E-02 -.795E-04 -.303E-02
   0.488E+01 0.404E+02 0.161E+02   -.404E+01 -.409E+02 -.161E+02   -.836E+00 0.568E+00 0.108E-01   -.127E-02 -.190E-03 -.259E-02
   -.532E+01 -.708E+02 -.235E+02   0.536E+01 0.706E+02 0.228E+02   -.453E-01 0.229E+00 0.713E+00   -.371E-03 0.698E-02 -.350E-02
   -.314E+02 0.716E+02 0.158E+02   0.313E+02 -.717E+02 -.153E+02   0.114E+00 0.106E+00 -.467E+00   -.595E-03 -.135E-01 0.449E-02
   0.443E+02 0.515E+01 0.959E+02   -.443E+02 -.549E+01 -.956E+02   0.383E-01 0.340E+00 -.317E+00   0.579E-03 -.350E-02 0.518E-02
   -.888E+01 0.216E+02 -.113E+03   0.824E+01 -.217E+02 0.113E+03   0.635E+00 0.325E-01 0.251E+00   0.131E-02 -.701E-03 -.300E-02
   -.679E+01 -.539E+02 0.277E+02   0.679E+01 0.543E+02 -.277E+02   -.266E-02 -.449E+00 -.825E-02   -.135E-02 0.995E-02 -.406E-04
   0.520E+02 0.126E+03 -.360E+02   -.518E+02 -.126E+03 0.357E+02   -.165E+00 -.399E-01 0.336E+00   0.974E-03 -.516E-02 -.385E-02
   -.115E+02 0.274E+02 0.705E+01   0.105E+02 -.277E+02 -.731E+01   0.947E+00 0.363E+00 0.256E+00   0.913E-03 -.144E-02 -.177E-02
   -.332E+02 -.458E+02 0.171E+02   0.336E+02 0.457E+02 -.173E+02   -.397E+00 0.865E-01 0.262E+00   -.836E-03 -.995E-04 0.771E-03
   -.341E+02 0.915E+02 0.246E+02   0.337E+02 -.912E+02 -.248E+02   0.395E+00 -.305E+00 0.184E+00   -.508E-03 -.719E-02 -.272E-03
   0.407E+01 -.818E+02 -.154E+02   -.423E+01 0.820E+02 0.149E+02   0.159E+00 -.184E+00 0.542E+00   0.107E-03 0.563E-02 -.303E-02
   0.280E+01 -.896E+02 -.133E+03   -.311E+01 0.892E+02 0.132E+03   0.304E+00 0.329E+00 0.232E+00   0.544E-02 0.559E-02 -.126E-01
   -.300E+02 -.125E+03 -.204E+02   0.298E+02 0.125E+03 0.213E+02   0.183E+00 0.186E+00 -.918E+00   -.252E-02 0.599E-02 0.974E-02
   0.112E+03 -.391E+03 0.133E+03   -.111E+03 0.392E+03 -.132E+03   -.368E+00 -.540E+00 -.458E+00   0.298E-02 0.132E-01 -.197E-02
   -.549E+02 0.106E+03 -.748E+02   0.556E+02 -.107E+03 0.743E+02   -.660E+00 0.706E+00 0.527E+00   0.779E-04 -.318E-01 0.140E-01
   -.253E+02 -.585E+02 -.575E+02   0.260E+02 0.585E+02 0.582E+02   -.737E+00 -.771E-01 -.714E+00   0.471E-02 0.293E-01 0.623E-05
   0.258E+02 -.220E+02 -.972E+02   -.266E+02 0.215E+02 0.980E+02   0.753E+00 0.420E+00 -.699E+00   0.119E-02 0.325E-01 -.449E-02
   0.131E+03 -.120E+03 0.126E+03   -.132E+03 0.119E+03 -.126E+03   0.593E+00 0.686E+00 0.701E-01   0.218E-03 -.529E-02 0.610E-02
   0.810E+02 0.207E+03 -.809E+02   -.809E+02 -.206E+03 0.818E+02   -.987E-01 -.333E+00 -.954E+00   0.194E-02 -.345E-01 0.171E-01
   -.129E+03 0.272E+03 0.159E+02   0.128E+03 -.271E+03 -.161E+02   0.842E+00 -.890E+00 0.201E+00   -.991E-03 -.739E-02 -.663E-02
   -.155E+03 0.320E+03 -.141E+03   0.155E+03 -.320E+03 0.141E+03   0.222E+00 -.451E+00 0.448E+00   -.664E-02 -.173E-01 -.704E-02
   0.235E+02 -.163E+03 0.634E+01   -.235E+02 0.163E+03 -.587E+01   -.717E-01 0.239E-01 -.469E+00   0.113E-02 0.665E-02 0.725E-02
   -.102E+03 -.405E+03 0.818E+02   0.101E+03 0.405E+03 -.814E+02   0.403E+00 -.261E+00 -.399E+00   -.232E-02 0.140E-01 -.376E-02
   0.128E+03 0.184E+03 0.676E+02   -.128E+03 -.184E+03 -.669E+02   -.794E-01 0.282E+00 -.699E+00   0.986E-03 -.265E-01 0.234E-02
   0.768E+02 0.299E+03 0.154E+03   -.762E+02 -.299E+03 -.154E+03   -.558E+00 -.271E+00 0.547E+00   0.799E-03 -.209E-01 -.263E-02
   0.819E+01 -.282E+02 -.380E+02   -.785E+01 0.279E+02 0.375E+02   -.331E+00 0.248E+00 0.462E+00   -.138E-02 0.729E-02 -.130E-01
   -.106E+03 0.284E+02 0.213E+03   0.106E+03 -.290E+02 -.213E+03   -.109E+00 0.531E+00 -.486E+00   -.137E-02 -.726E-02 0.148E-01
 -----------------------------------------------------------------------------------------------
   -.446E+00 -.307E+00 0.823E+00   -.995E-13 -.142E-13 -.568E-13   0.441E+00 0.328E+00 -.840E+00   0.475E-02 -.223E-01 0.165E-01
 
 
 POSITION                                       TOTAL-FORCE (eV/Angst)
 -----------------------------------------------------------------------------------
      3.54014      9.99283      0.03401        -0.000380     -0.002048     -0.005644
      1.73599      8.50885      5.00709        -0.000338      0.002687      0.001591
      5.01160      8.44902      4.99376        -0.000729      0.000698      0.006556
      1.64521      5.09026      1.80344         0.002087      0.002229     -0.002786
      5.02514      4.93169      5.10153         0.002749     -0.002858     -0.001896
      5.09627      8.45579      1.72214        -0.005456     -0.000817     -0.000075
      6.67990     -0.00281     -0.01579        -0.001633     -0.002283      0.005611
      5.12346      5.00430      8.32880        -0.003548     -0.004222      0.002839
      1.78534      1.65236      5.01374         0.000015     -0.000135     -0.006051
      1.86646      1.52645      8.43700        -0.001157      0.002248      0.002518
      3.39401      9.98341      6.68666        -0.004450      0.002650      0.004338
      3.36646      3.33815      3.42630         0.004203     -0.001027      0.000364
      5.10106      1.61558      1.75408         0.002563     -0.001248     -0.002423
      4.99976      1.67978      5.01109        -0.000474      0.003845     -0.001441
      1.66362      8.41082      1.69784         0.002282     -0.004203      0.001310
      0.04323      3.31634      6.75147         0.004194     -0.005536      0.004227
      4.88171      1.71009      8.42931         0.001245      0.003777     -0.000491
      3.38435      6.75057      6.73198         0.003221      0.005491      0.000156
      3.22815      3.46175     10.14406         0.000308     -0.002432      0.000776
      6.78362      0.06273      6.70639        -0.000690      0.002612     -0.006790
      6.68661      6.68359     10.13156        -0.003044      0.004338      0.001116
      3.36081      6.68039      3.47338         0.000887     -0.000931      0.002143
      5.12912      8.38564      8.49750        -0.000918      0.007235      0.000609
      1.70116      4.97886      5.05555        -0.000955      0.000764     -0.000425
      3.46432     -0.00075      3.39314        -0.002068      0.002474      0.001238
      6.72552     10.04794      3.42119        -0.000598     -0.002682      0.007137
      6.72381      6.67623      6.71226         0.002139      0.003163     -0.004799
     -0.00405      3.34202      3.51603         0.000371     -0.001998     -0.002577
      1.51862      5.22873      8.41814        -0.001105     -0.003665     -0.006137
      3.28225      3.41457      6.72222         0.002262      0.003111     -0.005537
     -0.02541      6.73424      3.52423         0.000030     -0.000857      0.006146
      1.59030      8.42215      8.51550        -0.002326     -0.000231     -0.000312
      5.13020      4.93206      1.77925         0.003531      0.001615     -0.001560
      0.05963      3.33542     10.08395        -0.002951     -0.003351      0.002162
      3.40406      6.66571     10.14264         0.001596     -0.002073      0.000152
      1.68710      1.57975      1.74028        -0.000866     -0.006339     -0.002046
 -----------------------------------------------------------------------------------
    total drift:                               -0.000010     -0.001454      0.000028


--------------------------------------------------------------------------------------------------------



  FREE ENERGIE OF THE ION-ELECTRON SYSTEM (eV)
  ---------------------------------------------------
  free  energy   TOTEN  =      -375.72729726 eV

  energy  without entropy=     -375.73949331  energy(sigma->0) =     -375.73136261
 
 d Force = 0.7546099E-04[ 0.592E-04, 0.917E-04]  d Energy = 0.8046590E-04-0.500E-05
 d Force = 0.4428767E+00[ 0.442E+00, 0.443E+00]  d Ewald  =-0.1241619E+01 0.168E+01


--------------------------------------------------------------------------------------------------------


    POTLOK:  cpu time    0.0340: real time    0.0342


--------------------------------------------------------------------------------------------------------


 Conjugate gradient step on ions:
 trial-energy change:   -0.000080  1 .order   -0.000084   -0.000123   -0.000046
  (g-gl).g = 0.406E-05      g.g   = 0.422E-04  gl.gl    = 0.998E-04
 g(Force)  = 0.314E-04   g(Stress)= 0.108E-04 ortho     = 0.830E-05
 gamma     =   0.04064
 trial     =   2.88293
 opt step  =   4.60392  (harmonic =   4.60392) maximal distance =0.00093551
 next E    =  -375.727315   (d E  =  -0.00010)


--------------------------------------------------------------------------------------------------------


  
 reached required accuracy - stopping structural energy minimisation
     LOOP+:  cpu time    5.8440: real time    6.2776
    4ORBIT:  cpu time    0.0000: real time    0.0000

 total amount of memory used by VASP on root node    67653. kBytes
========================================================================

   base      :      30000. kBytes
   nonlr-proj:      11171. kBytes
   fftplans  :       2814. kBytes
   grid      :       5360. kBytes
   one-center:        124. kBytes
   wavefun   :      18184. kBytes
 
  
  
 General timing and accounting informations for this job:
 ========================================================
  
                  Total CPU time used (sec):      286.172
                            User time (sec):      283.981
                          System time (sec):        2.191
                         Elapsed time (sec):      310.470
  
                   Maximum memory used (kb):      284868.
                   Average memory used (kb):           0.
  
                          Minor page faults:       101154
                          Major page faults:           35
                 Voluntary context switches:        10403
