<?xml version="1.0" encoding="ISO-8859-1"?>
<modeling>
 <generator>
  <i name="program" type="string">vasp </i>
  <i name="version" type="string">5.4.1  </i>
  <i name="subversion" type="string">05Feb16 (build Jan 29 2020 16:04:39) complex                          parallel </i>
  <i name="platform" type="string">IFC91_ompi </i>
  <i name="date" type="string">2020 06 15 </i>
  <i name="time" type="string">03:33:20 </i>
 </generator>
 <incar>
  <i type="string" name="SYSTEM"> automatically generated by mexm</i>
  <i type="int" name="ISTART">     0</i>
  <i type="string" name="PREC">accurate               ! avoid wrap aro</i>
  <i type="string" name="ALGO"> Fast                   ! blocked Davids</i>
  <i type="int" name="ISPIN">     1</i>
  <i type="int" name="ICHARG">     2</i>
  <i type="int" name="NELM">    70</i>
  <i type="int" name="IBRION">     2</i>
  <i name="EDIFF">      0.00001000</i>
  <i name="EDIFFG">     -0.01000000</i>
  <i type="int" name="NSW">   300</i>
  <i type="int" name="ISIF">     3</i>
  <i type="int" name="ISYM">     1</i>
  <i name="ENCUT">    300.00000000</i>
  <i name="POTIM">      0.15000000</i>
  <i type="string" name="LREAL"> Auto                  ! unpublished met</i>
  <i type="int" name="ISMEAR">     1</i>
  <i name="SIGMA">      0.15000000</i>
  <i type="logical" name="LWAVE"> F  </i>
  <i type="logical" name="LCHARG"> F  </i>
  <i type="logical" name="LVTOT"> F  </i>
  <v type="int" name="KPOINT_BSE">    -1     0     0     0</v>
  <i type="int" name="NELM">    70</i>
 </incar>
 <kpoints>
  <generation param="Gamma">
   <v type="int" name="divisions">       3        3        3 </v>
   <v name="usershift">      0.00000000       0.00000000       0.00000000 </v>
   <v name="genvec1">      0.33333333       0.00000000       0.00000000 </v>
   <v name="genvec2">      0.00000000       0.33333333       0.00000000 </v>
   <v name="genvec3">      0.00000000       0.00000000       0.33333333 </v>
   <v name="shift">      0.00000000       0.00000000       0.00000000 </v>
  </generation>
  <varray name="kpointlist" >
   <v>       0.00000000       0.00000000       0.00000000 </v>
   <v>       0.33333333      -0.00000000       0.00000000 </v>
   <v>       0.00000000       0.33333333      -0.00000000 </v>
   <v>       0.33333333       0.33333333      -0.00000000 </v>
   <v>      -0.33333333       0.33333333      -0.00000000 </v>
   <v>       0.00000000       0.00000000       0.33333333 </v>
   <v>       0.33333333       0.00000000       0.33333333 </v>
   <v>      -0.33333333       0.00000000       0.33333333 </v>
   <v>      -0.00000000       0.33333333       0.33333333 </v>
   <v>       0.33333333       0.33333333       0.33333333 </v>
   <v>      -0.33333333       0.33333333       0.33333333 </v>
   <v>       0.00000000      -0.33333333       0.33333333 </v>
   <v>       0.33333333      -0.33333333       0.33333333 </v>
   <v>      -0.33333333      -0.33333333       0.33333333 </v>
  </varray>
  <varray name="weights" >
   <v>       0.03703704 </v>
   <v>       0.07407407 </v>
   <v>       0.07407407 </v>
   <v>       0.07407407 </v>
   <v>       0.07407407 </v>
   <v>       0.07407407 </v>
   <v>       0.07407407 </v>
   <v>       0.07407407 </v>
   <v>       0.07407407 </v>
   <v>       0.07407407 </v>
   <v>       0.07407407 </v>
   <v>       0.07407407 </v>
   <v>       0.07407407 </v>
   <v>       0.07407407 </v>
  </varray>
 </kpoints>
 <parameters>
  <separator name="general" >
   <i type="string" name="SYSTEM">automatically generated by mexm</i>
   <i type="logical" name="LCOMPAT"> F  </i>
  </separator>
  <separator name="electronic" >
   <i type="string" name="PREC">accura</i>
   <i name="ENMAX">    300.00000000</i>
   <i name="ENAUG">    461.25700000</i>
   <i name="EDIFF">      0.00001000</i>
   <i type="int" name="IALGO">    68</i>
   <i type="int" name="IWAVPR">    11</i>
   <i type="int" name="NBANDS">   192</i>
   <i name="NELECT">    321.00000000</i>
   <i type="int" name="TURBO">     0</i>
   <i type="int" name="IRESTART">     0</i>
   <i type="int" name="NREBOOT">     0</i>
   <i type="int" name="NMIN">     0</i>
   <i name="EREF">      0.00000000</i>
   <separator name="electronic smearing" >
    <i type="int" name="ISMEAR">     1</i>
    <i name="SIGMA">      0.15000000</i>
    <i name="KSPACING">      0.50000000</i>
    <i type="logical" name="KGAMMA"> T  </i>
   </separator>
   <separator name="electronic projectors" >
    <i type="logical" name="LREAL"> T  </i>
    <v name="ROPT">     -0.00025000     -0.00025000     -0.00025000     -0.00025000</v>
    <i type="int" name="LMAXPAW">  -100</i>
    <i type="int" name="LMAXMIX">     2</i>
    <i type="logical" name="NLSPLINE"> F  </i>
   </separator>
   <separator name="electronic startup" >
    <i type="int" name="ISTART">     0</i>
    <i type="int" name="ICHARG">     2</i>
    <i type="int" name="INIWAV">     1</i>
   </separator>
   <separator name="electronic spin" >
    <i type="int" name="ISPIN">     1</i>
    <i type="logical" name="LNONCOLLINEAR"> F  </i>
    <v name="MAGMOM">      1.00000000      1.00000000      1.00000000      1.00000000      1.00000000      1.00000000      1.00000000      1.00000000      1.00000000      1.00000000      1.00000000      1.00000000      1.00000000      1.00000000      1.00000000      1.00000000      1.00000000      1.00000000      1.00000000      1.00000000
      1.00000000      1.00000000      1.00000000      1.00000000      1.00000000      1.00000000      1.00000000      1.00000000      1.00000000      1.00000000      1.00000000      1.00000000      1.00000000      1.00000000      1.00000000      1.00000000</v>
    <i name="NUPDOWN">     -1.00000000</i>
    <i type="logical" name="LSORBIT"> F  </i>
    <v name="SAXIS">      0.00000000      0.00000000      1.00000000</v>
    <i type="logical" name="LSPIRAL"> F  </i>
    <v name="QSPIRAL">      0.00000000      0.00000000      0.00000000</v>
    <i type="logical" name="LZEROZ"> F  </i>
   </separator>
   <separator name="electronic exchange-correlation" >
    <i type="logical" name="LASPH"> F  </i>
    <i type="logical" name="LMETAGGA"> F  </i>
   </separator>
   <separator name="electronic convergence" >
    <i type="int" name="NELM">    70</i>
    <i type="int" name="NELMDL">    -5</i>
    <i type="int" name="NELMIN">     2</i>
    <i name="ENINI">    300.00000000</i>
    <separator name="electronic convergence detail" >
     <i type="logical" name="LDIAG"> T  </i>
     <i type="logical" name="LSUBROT"> F  </i>
     <i name="WEIMIN">      0.00100000</i>
     <i name="EBREAK">      0.00000001</i>
     <i name="DEPER">      0.30000000</i>
     <i type="int" name="NRMM">     4</i>
     <i name="TIME">      0.40000000</i>
    </separator>
   </separator>
   <separator name="electronic mixer" >
    <i name="AMIX">      0.40000000</i>
    <i name="BMIX">      1.00000000</i>
    <i name="AMIN">      0.10000000</i>
    <i name="AMIX_MAG">      1.60000000</i>
    <i name="BMIX_MAG">      1.00000000</i>
    <separator name="electronic mixer details" >
     <i type="int" name="IMIX">     4</i>
     <i type="logical" name="MIXFIRST"> F  </i>
     <i type="int" name="MAXMIX">   -45</i>
     <i name="WC">    100.00000000</i>
     <i type="int" name="INIMIX">     1</i>
     <i type="int" name="MIXPRE">     1</i>
     <i type="int" name="MREMOVE">     5</i>
    </separator>
   </separator>
   <separator name="electronic dipolcorrection" >
    <i type="logical" name="LDIPOL"> F  </i>
    <i type="logical" name="LMONO"> F  </i>
    <i type="int" name="IDIPOL">     0</i>
    <i name="EPSILON">      1.00000000</i>
    <v name="DIPOL">   -100.00000000   -100.00000000   -100.00000000</v>
    <i name="EFIELD">      0.00000000</i>
   </separator>
  </separator>
  <separator name="grids" >
   <i type="int" name="NGX">    40</i>
   <i type="int" name="NGY">    60</i>
   <i type="int" name="NGZ">    60</i>
   <i type="int" name="NGXF">    80</i>
   <i type="int" name="NGYF">   120</i>
   <i type="int" name="NGZF">   120</i>
   <i type="logical" name="ADDGRID"> F  </i>
  </separator>
  <separator name="ionic" >
   <i type="int" name="NSW">   300</i>
   <i type="int" name="IBRION">     2</i>
   <i type="int" name="ISIF">     3</i>
   <i name="PSTRESS">      0.00000000</i>
   <i name="EDIFFG">     -0.01000000</i>
   <i type="int" name="NFREE">     1</i>
   <i name="POTIM">      0.15000000</i>
   <i name="SMASS">     -3.00000000</i>
   <i name="SCALEE">      1.00000000</i>
  </separator>
  <separator name="ionic md" >
   <i name="TEBEG">      0.00010000</i>
   <i name="TEEND">      0.00010000</i>
   <i type="int" name="NBLOCK">     1</i>
   <i type="int" name="KBLOCK">   300</i>
   <i type="int" name="NPACO">   256</i>
   <i name="APACO">     16.00000000</i>
  </separator>
  <separator name="symmetry" >
   <i type="int" name="ISYM">     1</i>
   <i name="SYMPREC">      0.00001000</i>
  </separator>
  <separator name="dos" >
   <i type="logical" name="LORBIT"> F  </i>
   <v name="RWIGS">     -1.00000000     -1.00000000     -1.00000000     -1.00000000</v>
   <i type="int" name="NEDOS">   301</i>
   <i name="EMIN">     10.00000000</i>
   <i name="EMAX">    -10.00000000</i>
   <i name="EFERMI">      0.00000000</i>
  </separator>
  <separator name="writing" >
   <i type="int" name="NWRITE">     2</i>
   <i type="logical" name="LWAVE"> F  </i>
   <i type="logical" name="LCHARG"> F  </i>
   <i type="logical" name="LPARD"> F  </i>
   <i type="logical" name="LVTOT"> F  </i>
   <i type="logical" name="LVHAR"> F  </i>
   <i type="logical" name="LELF"> F  </i>
   <i type="logical" name="LOPTICS"> F  </i>
   <v name="STM">      0.00000000      0.00000000      0.00000000      0.00000000      0.00000000      0.00000000      0.00000000</v>
  </separator>
  <separator name="performance" >
   <i type="int" name="NPAR">     4</i>
   <i type="int" name="NSIM">     4</i>
   <i type="int" name="NBLK">    -1</i>
   <i type="logical" name="LPLANE"> T  </i>
   <i type="logical" name="LSCALAPACK"> T  </i>
   <i type="logical" name="LSCAAWARE"> F  </i>
   <i type="logical" name="LSCALU"> F  </i>
   <i type="logical" name="LASYNC"> F  </i>
   <i type="logical" name="LORBITALREAL"> F  </i>
  </separator>
  <separator name="miscellaneous" >
   <i type="int" name="IDIOT">     3</i>
   <i type="logical" name="LMUSIC"> F  </i>
   <v name="POMASS">    180.94800000     91.22400000     92.91000000    178.49000000</v>
   <v name="DARWINR">      0.00000000      0.00000000      0.00000000      0.00000000</v>
   <v name="DARWINV">      1.00000000      1.00000000      1.00000000      1.00000000</v>
   <i type="logical" name="LCORR"> T  </i>
  </separator>
  <i type="logical" name="GGA_COMPAT"> T  </i>
  <i type="logical" name="LBERRY"> F  </i>
  <i type="int" name="ICORELEVEL">     0</i>
  <i type="logical" name="LDAU"> F  </i>
  <i type="int" name="I_CONSTRAINED_M">     0</i>
  <separator name="electronic exchange-correlation" >
   <i type="string" name="GGA">--</i>
   <i type="int" name="VOSKOWN">     0</i>
   <i type="logical" name="LHFCALC"> F  </i>
   <i type="string" name="PRECFOCK"></i>
   <i type="logical" name="LSYMGRAD"> F  </i>
   <i type="logical" name="LHFONE"> F  </i>
   <i type="logical" name="LRHFCALC"> F  </i>
   <i type="logical" name="LTHOMAS"> F  </i>
   <i type="logical" name="LMODELHF"> F  </i>
   <i name="ENCUT4O">     -1.00000000</i>
   <i type="int" name="EXXOEP">     0</i>
   <i type="int" name="FOURORBIT">     0</i>
   <i name="AEXX">      0.00000000</i>
   <i name="HFALPHA">      0.00000000</i>
   <i name="MCALPHA">      0.00000000</i>
   <i name="ALDAX">      1.00000000</i>
   <i name="AGGAX">      1.00000000</i>
   <i name="ALDAC">      1.00000000</i>
   <i name="AGGAC">      1.00000000</i>
   <i type="int" name="NKREDX">     1</i>
   <i type="int" name="NKREDY">     1</i>
   <i type="int" name="NKREDZ">     1</i>
   <i type="logical" name="SHIFTRED"> F  </i>
   <i type="logical" name="ODDONLY"> F  </i>
   <i type="logical" name="EVENONLY"> F  </i>
   <i type="int" name="LMAXFOCK">     0</i>
   <i type="int" name="NMAXFOCKAE">     0</i>
   <i type="logical" name="LFOCKAEDFT"> F  </i>
   <i name="HFSCREEN">      0.00000000</i>
   <i name="HFSCREENC">      0.00000000</i>
   <i type="int" name="NBANDSGWLOW">     0</i>
  </separator>
  <separator name="vdW DFT" >
   <i type="logical" name="LUSE_VDW"> F  </i>
   <i name="Zab_VDW">     -0.84910000</i>
   <i name="PARAM1">      0.12340000</i>
   <i name="PARAM2">      1.00000000</i>
   <i name="PARAM3">      0.00000000</i>
  </separator>
  <separator name="model GW" >
   <i type="int" name="MODEL_GW">     0</i>
   <i name="MODEL_EPS0">     12.16455799</i>
   <i name="MODEL_ALPHA">      1.00000000</i>
  </separator>
  <separator name="linear response parameters" >
   <i type="logical" name="LEPSILON"> F  </i>
   <i type="logical" name="LRPA"> F  </i>
   <i type="logical" name="LNABLA"> F  </i>
   <i type="logical" name="LVEL"> F  </i>
   <i type="int" name="KINTER">     0</i>
   <i name="CSHIFT">      0.10000000</i>
   <i name="OMEGAMAX">     -1.00000000</i>
   <i name="DEG_THRESHOLD">      0.00200000</i>
  </separator>
  <separator name="orbital magnetization" >
   <i type="logical" name="NUCIND"> F  </i>
   <v name="MAGPOS">      0.00000000      0.00000000      0.00000000</v>
   <i type="logical" name="LNICSALL"> T  </i>
   <i type="logical" name="ORBITALMAG"> F  </i>
   <i type="logical" name="LMAGBLOCH"> F  </i>
   <i type="logical" name="LCHIMAG"> F  </i>
   <i type="logical" name="LGAUGE"> T  </i>
   <i type="int" name="MAGATOM">     0</i>
   <v name="MAGDIPOL">      0.00000000      0.00000000      0.00000000</v>
   <v name="AVECCONST">      0.00000000      0.00000000      0.00000000</v>
  </separator>
  <separator name="response functions" >
   <i type="logical" name="LADDER"> F  </i>
   <i type="logical" name="LFXC"> F  </i>
   <i type="logical" name="LHARTREE"> T  </i>
   <i type="int" name="IBSE">     0</i>
   <v type="int" name="KPOINT">    -1     0     0     0</v>
   <i type="logical" name="LTCTE"> F  </i>
   <i type="logical" name="LTETE"> F  </i>
   <i type="logical" name="LTRIPLET"> F  </i>
   <i type="logical" name="LFXCEPS"> F  </i>
   <i type="logical" name="LFXHEG"> F  </i>
   <i type="int" name="NATURALO">     0</i>
   <i type="logical" name="L2ORDER"> F  </i>
   <i type="logical" name="LUSEW"> F  </i>
   <i name="ENCUTGW">     -2.00000000</i>
   <i name="ENCUTGWSOFT">     -2.00000000</i>
   <i name="ENCUTLF">     -1.00000000</i>
   <i type="int" name="LMAXMP2">    -1</i>
   <i name="SCISSOR">      0.00000000</i>
   <i type="int" name="NOMEGA">     0</i>
   <i type="int" name="NOMEGAR">     0</i>
   <i type="int" name="NBANDSGW">    -1</i>
   <i type="int" name="NBANDSO">    -1</i>
   <i type="int" name="NBANDSV">    -1</i>
   <i type="int" name="NELM">    70</i>
   <i type="int" name="NELMHF">     1</i>
   <i type="int" name="DIM">     3</i>
   <i type="int" name="ANTIRES">     0</i>
   <i name="OMEGAMAX">    -30.00000000</i>
   <i name="OMEGAMIN">    -30.00000000</i>
   <i name="OMEGATL">   -200.00000000</i>
   <i type="int" name="OMEGAGRID">     0</i>
   <i name="CSHIFT">     -0.10000000</i>
   <i type="logical" name="SELFENERGY"> F  </i>
   <i type="logical" name="LSPECTRAL"> F  </i>
   <i type="logical" name="LSPECTRALGW"> F  </i>
   <i type="logical" name="LSINGLES"> F  </i>
   <i type="logical" name="LFERMIGW"> F  </i>
   <i type="logical" name="ODDONLYGW"> F  </i>
   <i type="logical" name="EVENONLYGW"> F  </i>
   <i type="int" name="NKREDLFX">     1</i>
   <i type="int" name="NKREDLFY">     1</i>
   <i type="int" name="NKREDLFZ">     1</i>
   <i type="int" name="MAXMEM">  1800</i>
   <i type="int" name="TELESCOPE">     0</i>
   <i type="int" name="TAUPAR">     1</i>
   <i type="int" name="OMEGAPAR">    -1</i>
   <i name="LAMBDA">      1.00000000</i>
  </separator>
  <separator name="External order field" >
   <i name="OFIELD_KAPPA">      0.00000000</i>
   <v name="OFIELD_K">      0.00000000      0.00000000      0.00000000</v>
   <i name="OFIELD_Q6_NEAR">      0.00000000</i>
   <i name="OFIELD_Q6_FAR">      0.00000000</i>
   <i name="OFIELD_A">      0.00000000</i>
  </separator>
 </parameters>
 <atominfo>
  <atoms>      36 </atoms>
  <types>       4 </types>
  <array name="atoms" >
   <dimension dim="1">ion</dimension>
   <field type="string">element</field>
   <field type="int">atomtype</field>
   <set>
    <rc><c>Ta</c><c>   1</c></rc>
    <rc><c>Ta</c><c>   1</c></rc>
    <rc><c>Ta</c><c>   1</c></rc>
    <rc><c>Ta</c><c>   1</c></rc>
    <rc><c>Ta</c><c>   1</c></rc>
    <rc><c>Ta</c><c>   1</c></rc>
    <rc><c>Ta</c><c>   1</c></rc>
    <rc><c>Ta</c><c>   1</c></rc>
    <rc><c>Zr</c><c>   2</c></rc>
    <rc><c>Zr</c><c>   2</c></rc>
    <rc><c>Zr</c><c>   2</c></rc>
    <rc><c>Zr</c><c>   2</c></rc>
    <rc><c>Zr</c><c>   2</c></rc>
    <rc><c>Zr</c><c>   2</c></rc>
    <rc><c>Zr</c><c>   2</c></rc>
    <rc><c>Zr</c><c>   2</c></rc>
    <rc><c>Zr</c><c>   2</c></rc>
    <rc><c>Zr</c><c>   2</c></rc>
    <rc><c>Zr</c><c>   2</c></rc>
    <rc><c>Nb</c><c>   3</c></rc>
    <rc><c>Nb</c><c>   3</c></rc>
    <rc><c>Nb</c><c>   3</c></rc>
    <rc><c>Nb</c><c>   3</c></rc>
    <rc><c>Nb</c><c>   3</c></rc>
    <rc><c>Nb</c><c>   3</c></rc>
    <rc><c>Nb</c><c>   3</c></rc>
    <rc><c>Nb</c><c>   3</c></rc>
    <rc><c>Nb</c><c>   3</c></rc>
    <rc><c>Hf</c><c>   4</c></rc>
    <rc><c>Hf</c><c>   4</c></rc>
    <rc><c>Hf</c><c>   4</c></rc>
    <rc><c>Hf</c><c>   4</c></rc>
    <rc><c>Hf</c><c>   4</c></rc>
    <rc><c>Hf</c><c>   4</c></rc>
    <rc><c>Hf</c><c>   4</c></rc>
    <rc><c>Hf</c><c>   4</c></rc>
   </set>
  </array>
  <array name="atomtypes" >
   <dimension dim="1">type</dimension>
   <field type="int">atomspertype</field>
   <field type="string">element</field>
   <field>mass</field>
   <field>valence</field>
   <field type="string">pseudopotential</field>
   <set>
    <rc><c>   8</c><c>Ta</c><c>    180.94800000</c><c>      5.00000000</c><c>  PAW_PBE Ta 17Jan2003                  </c></rc>
    <rc><c>  11</c><c>Zr</c><c>     91.22400000</c><c>     12.00000000</c><c>  PAW_PBE Zr_sv 04Jan2005               </c></rc>
    <rc><c>   9</c><c>Nb</c><c>     92.91000000</c><c>     13.00000000</c><c>  PAW_PBE Nb_sv 25May2007               </c></rc>
    <rc><c>   8</c><c>Hf</c><c>    178.49000000</c><c>      4.00000000</c><c>  PAW_PBE Hf 20Jan2003                  </c></rc>
   </set>
  </array>
 </atominfo>
 <structure name="initialpos" >
  <crystal>
   <varray name="basis" >
    <v>       6.94574280       0.00399564      -0.00263882 </v>
    <v>       0.00563679      10.30253622       0.01062011 </v>
    <v>      -0.00324240       0.01009135      10.19965233 </v>
   </varray>
   <i name="volume">    729.87347944 </i>
   <varray name="rec_basis" >
    <v>       0.14397315      -0.00007882       0.00004585 </v>
    <v>      -0.00005587       0.09706361      -0.00009605 </v>
    <v>       0.00003731      -0.00010109       0.09804267 </v>
   </varray>
  </crystal>
  <varray name="positions" >
   <v>       0.73459400       0.50527600       0.17268800 </v>
   <v>       0.51012300       0.66838400       0.98958900 </v>
   <v>       0.26430800       0.17931500       0.17180900 </v>
   <v>       0.02837900       0.00396700       0.32238900 </v>
   <v>       0.02416900       0.97764100       0.67992000 </v>
   <v>       0.75089600       0.49366200       0.49147800 </v>
   <v>       0.49811700       0.34268700       0.65441600 </v>
   <v>       0.51224000       0.66748400       0.34961600 </v>
   <v>       0.76587700       0.17041900       0.50232800 </v>
   <v>       0.24921800       0.17943500       0.82637600 </v>
   <v>       0.75467700       0.17060900       0.81976500 </v>
   <v>       0.00561200       0.00094900       0.00245200 </v>
   <v>       0.22893400       0.17743900       0.50385500 </v>
   <v>       0.26293400       0.50579300       0.17320500 </v>
   <v>       0.50295900       0.99529100       0.99454800 </v>
   <v>       0.73783300       0.16915200       0.17743900 </v>
   <v>       0.47481500       0.99823800       0.34213400 </v>
   <v>       0.73212300       0.48597300       0.83378200 </v>
   <v>       0.49552600       0.66872500       0.66269000 </v>
   <v>       0.50502100       0.33422100       0.33622700 </v>
   <v>       0.26359800       0.49147100       0.83175400 </v>
   <v>       0.99162200       0.33515500       0.31564300 </v>
   <v>       0.99807800       0.35740200       0.66809200 </v>
   <v>       0.98490800       0.66135700       0.33965000 </v>
   <v>       0.22424600       0.82820600       0.49184800 </v>
   <v>       0.25516700       0.82674500       0.84671700 </v>
   <v>       0.49344700       0.33552900       0.00497900 </v>
   <v>       0.75081300       0.83619600       0.82783900 </v>
   <v>       0.00341400       0.33800100       0.01118800 </v>
   <v>       0.99178200       0.65967300       0.98769100 </v>
   <v>       0.25356600       0.81518700       0.16850700 </v>
   <v>       0.48102700       0.98923900       0.66815300 </v>
   <v>       0.75297000       0.82345500       0.17646400 </v>
   <v>       0.77287300       0.84641200       0.49418800 </v>
   <v>       0.24175000       0.49549700       0.48871400 </v>
   <v>       0.00239300       0.66581800       0.67187100 </v>
  </varray>
 </structure>
 <calculation>
  <scstep>
   <time name="dav">    1.30    1.33</time>
   <time name="total">    1.36    1.82</time>
   <energy>
    <i name="alphaZ">   1670.12387979 </i>
    <i name="ewald"> -23234.04875718 </i>
    <i name="hartreedc">  -7264.17561894 </i>
    <i name="XCdc">    103.40654099 </i>
    <i name="pawpsdc">  24651.46935598 </i>
    <i name="pawaedc"> -23209.54018080 </i>
    <i name="eentropy">     -0.00118576 </i>
    <i name="bandstr">   -250.85618488 </i>
    <i name="atom">  29774.30176097 </i>
    <i name="e_fr_energy">   2240.67961018 </i>
    <i name="e_wo_entrp">   2240.68079594 </i>
    <i name="e_0_energy">   2240.68000543 </i>
   </energy>
  </scstep>
  <scstep>
   <time name="dav">    1.08    1.09</time>
   <time name="total">    1.08    1.30</time>
   <energy>
    <i name="e_fr_energy">    -44.74933807 </i>
    <i name="e_wo_entrp">    -44.75094677 </i>
    <i name="e_0_energy">    -44.74987430 </i>
   </energy>
  </scstep>
  <scstep>
   <time name="dav">    1.46    1.47</time>
   <time name="total">    1.47    1.52</time>
   <energy>
    <i name="e_fr_energy">   -332.81243304 </i>
    <i name="e_wo_entrp">   -332.81424671 </i>
    <i name="e_0_energy">   -332.81303760 </i>
   </energy>
  </scstep>
  <scstep>
   <time name="dav">    1.60    1.60</time>
   <time name="total">    1.60    1.64</time>
   <energy>
    <i name="e_fr_energy">   -367.29062091 </i>
    <i name="e_wo_entrp">   -367.30829778 </i>
    <i name="e_0_energy">   -367.29651320 </i>
   </energy>
  </scstep>
  <scstep>
   <time name="dav">    1.47    1.50</time>
   <time name="total">    1.51    1.57</time>
   <energy>
    <i name="e_fr_energy">   -370.92206572 </i>
    <i name="e_wo_entrp">   -370.94093854 </i>
    <i name="e_0_energy">   -370.92835666 </i>
   </energy>
  </scstep>
  <scstep>
   <time name="diag">    0.09    0.09</time>
   <time name="diis">    0.74    0.75</time>
   <time name="orth">    0.01    0.01</time>
   <time name="total">    0.91    0.98</time>
   <energy>
    <i name="e_fr_energy">   -360.53157688 </i>
    <i name="e_wo_entrp">   -360.54411979 </i>
    <i name="e_0_energy">   -360.53575785 </i>
   </energy>
  </scstep>
  <scstep>
   <time name="diag">    0.11    0.11</time>
   <time name="diis">    0.85    0.86</time>
   <time name="orth">    0.01    0.01</time>
   <time name="total">    1.05    1.09</time>
   <energy>
    <i name="e_fr_energy">   -362.10754583 </i>
    <i name="e_wo_entrp">   -362.09939141 </i>
    <i name="e_0_energy">   -362.10482769 </i>
   </energy>
  </scstep>
  <scstep>
   <time name="diag">    0.08    0.09</time>
   <time name="diis">    0.88    0.88</time>
   <time name="orth">    0.05    0.05</time>
   <time name="total">    1.14    1.18</time>
   <energy>
    <i name="e_fr_energy">   -356.59225547 </i>
    <i name="e_wo_entrp">   -356.60390893 </i>
    <i name="e_0_energy">   -356.59613996 </i>
   </energy>
  </scstep>
  <scstep>
   <time name="diag">    0.09    0.10</time>
   <time name="diis">    0.79    0.89</time>
   <time name="orth">    0.04    0.04</time>
   <time name="total">    1.04    1.20</time>
   <energy>
    <i name="e_fr_energy">   -356.51309367 </i>
    <i name="e_wo_entrp">   -356.52881138 </i>
    <i name="e_0_energy">   -356.51833290 </i>
   </energy>
  </scstep>
  <scstep>
   <time name="diag">    0.09    0.09</time>
   <time name="diis">    0.88    0.88</time>
   <time name="orth">    0.01    0.01</time>
   <time name="total">    1.05    1.12</time>
   <energy>
    <i name="e_fr_energy">   -356.45512249 </i>
    <i name="e_wo_entrp">   -356.46774791 </i>
    <i name="e_0_energy">   -356.45933096 </i>
   </energy>
  </scstep>
  <scstep>
   <time name="diag">    0.08    0.08</time>
   <time name="diis">    0.82    0.82</time>
   <time name="orth">    0.01    0.01</time>
   <time name="total">    0.98    1.03</time>
   <energy>
    <i name="e_fr_energy">   -356.42273901 </i>
    <i name="e_wo_entrp">   -356.43659153 </i>
    <i name="e_0_energy">   -356.42735651 </i>
   </energy>
  </scstep>
  <scstep>
   <time name="diag">    0.08    0.08</time>
   <time name="diis">    0.87    0.87</time>
   <time name="orth">    0.01    0.01</time>
   <time name="total">    1.04    1.09</time>
   <energy>
    <i name="e_fr_energy">   -356.41632170 </i>
    <i name="e_wo_entrp">   -356.43030276 </i>
    <i name="e_0_energy">   -356.42098206 </i>
   </energy>
  </scstep>
  <scstep>
   <time name="diag">    0.09    0.09</time>
   <time name="diis">    0.83    0.84</time>
   <time name="orth">    0.01    0.01</time>
   <time name="total">    1.03    1.10</time>
   <energy>
    <i name="e_fr_energy">   -356.41456206 </i>
    <i name="e_wo_entrp">   -356.42833477 </i>
    <i name="e_0_energy">   -356.41915297 </i>
   </energy>
  </scstep>
  <scstep>
   <time name="diag">    0.09    0.09</time>
   <time name="diis">    0.83    0.84</time>
   <time name="orth">    0.01    0.01</time>
   <time name="total">    1.00    1.05</time>
   <energy>
    <i name="e_fr_energy">   -356.41436848 </i>
    <i name="e_wo_entrp">   -356.42818748 </i>
    <i name="e_0_energy">   -356.41897481 </i>
   </energy>
  </scstep>
  <scstep>
   <time name="diag">    0.09    0.09</time>
   <time name="diis">    0.90    0.91</time>
   <time name="orth">    0.01    0.01</time>
   <time name="total">    1.07    1.12</time>
   <energy>
    <i name="e_fr_energy">   -356.41455370 </i>
    <i name="e_wo_entrp">   -356.42836468 </i>
    <i name="e_0_energy">   -356.41915736 </i>
   </energy>
  </scstep>
  <scstep>
   <time name="diag">    0.09    0.09</time>
   <time name="diis">    0.74    0.75</time>
   <time name="orth">    0.01    0.01</time>
   <time name="total">    0.92    0.96</time>
   <energy>
    <i name="e_fr_energy">   -356.41459559 </i>
    <i name="e_wo_entrp">   -356.42846676 </i>
    <i name="e_0_energy">   -356.41921931 </i>
   </energy>
  </scstep>
  <scstep>
   <time name="diag">    0.08    0.08</time>
   <time name="diis">    0.69    0.70</time>
   <time name="orth">    0.01    0.01</time>
   <time name="total">    0.89    0.93</time>
   <energy>
    <i name="e_fr_energy">   -356.41462354 </i>
    <i name="e_wo_entrp">   -356.42847944 </i>
    <i name="e_0_energy">   -356.41924217 </i>
   </energy>
  </scstep>
  <scstep>
   <time name="diag">    0.08    0.08</time>
   <time name="diis">    0.61    0.61</time>
   <time name="orth">    0.01    0.01</time>
   <time name="total">    0.77    0.82</time>
   <energy>
    <i name="e_fr_energy">   -356.41463704 </i>
    <i name="e_wo_entrp">   -356.42849905 </i>
    <i name="e_0_energy">   -356.41925771 </i>
   </energy>
  </scstep>
  <scstep>
   <time name="diag">    0.09    0.09</time>
   <time name="diis">    0.53    0.56</time>
   <time name="orth">    0.01    0.01</time>
   <time name="total">    0.81    0.89</time>
   <energy>
    <i name="e_fr_energy">   -356.41464127 </i>
    <i name="e_wo_entrp">   -356.42850295 </i>
    <i name="e_0_energy">   -356.41926183 </i>
   </energy>
  </scstep>
  <scstep>
   <time name="diag">    0.08    0.09</time>
   <time name="diis">    0.50    0.55</time>
   <time name="orth">    0.01    0.01</time>
   <time name="total">    0.63    0.76</time>
   <energy>
    <i name="alphaZ">   1670.12387979 </i>
    <i name="ewald"> -23234.04875718 </i>
    <i name="hartreedc">  -6988.10738533 </i>
    <i name="XCdc">     98.62077681 </i>
    <i name="pawpsdc">  37759.01703251 </i>
    <i name="pawaedc"> -36290.15731189 </i>
    <i name="eentropy">      0.01386080 </i>
    <i name="bandstr">  -3146.17849905 </i>
    <i name="atom">  29774.30176097 </i>
    <i name="e_fr_energy">   -356.41464256 </i>
    <i name="e_wo_entrp">   -356.42850337 </i>
    <i name="e_0_energy">   -356.41926283 </i>
   </energy>
  </scstep>
  <structure>
   <crystal>
    <varray name="basis" >
     <v>       6.94574280       0.00399564      -0.00263882 </v>
     <v>       0.00563679      10.30253622       0.01062011 </v>
     <v>      -0.00324240       0.01009135      10.19965233 </v>
    </varray>
    <i name="volume">    729.87347944 </i>
    <varray name="rec_basis" >
     <v>       0.14397315      -0.00007882       0.00004585 </v>
     <v>      -0.00005587       0.09706361      -0.00009605 </v>
     <v>       0.00003731      -0.00010109       0.09804267 </v>
    </varray>
   </crystal>
   <varray name="positions" >
    <v>       0.73459400       0.50527600       0.17268800 </v>
    <v>       0.51012300       0.66838400       0.98958900 </v>
    <v>       0.26430800       0.17931500       0.17180900 </v>
    <v>       0.02837900       0.00396700       0.32238900 </v>
    <v>       0.02416900       0.97764100       0.67992000 </v>
    <v>       0.75089600       0.49366200       0.49147800 </v>
    <v>       0.49811700       0.34268700       0.65441600 </v>
    <v>       0.51224000       0.66748400       0.34961600 </v>
    <v>       0.76587700       0.17041900       0.50232800 </v>
    <v>       0.24921800       0.17943500       0.82637600 </v>
    <v>       0.75467700       0.17060900       0.81976500 </v>
    <v>       0.00561200       0.00094900       0.00245200 </v>
    <v>       0.22893400       0.17743900       0.50385500 </v>
    <v>       0.26293400       0.50579300       0.17320500 </v>
    <v>       0.50295900       0.99529100       0.99454800 </v>
    <v>       0.73783300       0.16915200       0.17743900 </v>
    <v>       0.47481500       0.99823800       0.34213400 </v>
    <v>       0.73212300       0.48597300       0.83378200 </v>
    <v>       0.49552600       0.66872500       0.66269000 </v>
    <v>       0.50502100       0.33422100       0.33622700 </v>
    <v>       0.26359800       0.49147100       0.83175400 </v>
    <v>       0.99162200       0.33515500       0.31564300 </v>
    <v>       0.99807800       0.35740200       0.66809200 </v>
    <v>       0.98490800       0.66135700       0.33965000 </v>
    <v>       0.22424600       0.82820600       0.49184800 </v>
    <v>       0.25516700       0.82674500       0.84671700 </v>
    <v>       0.49344700       0.33552900       0.00497900 </v>
    <v>       0.75081300       0.83619600       0.82783900 </v>
    <v>       0.00341400       0.33800100       0.01118800 </v>
    <v>       0.99178200       0.65967300       0.98769100 </v>
    <v>       0.25356600       0.81518700       0.16850700 </v>
    <v>       0.48102700       0.98923900       0.66815300 </v>
    <v>       0.75297000       0.82345500       0.17646400 </v>
    <v>       0.77287300       0.84641200       0.49418800 </v>
    <v>       0.24175000       0.49549700       0.48871400 </v>
    <v>       0.00239300       0.66581800       0.67187100 </v>
   </varray>
  </structure>
  <varray name="forces" >
   <v>      -0.00103864      -0.00804612       0.01514300 </v>
   <v>       0.00838053       0.00131299      -0.00816003 </v>
   <v>       0.00882148       0.00527075       0.01514725 </v>
   <v>       0.02538063      -0.04563835      -0.05643499 </v>
   <v>       0.03734591      -0.04513431       0.03588275 </v>
   <v>      -0.00160090       0.10926931       0.00107087 </v>
   <v>      -0.02987009       0.04859273       0.03236840 </v>
   <v>      -0.01166558       0.00883374       0.00313843 </v>
   <v>      -0.06459824      -0.02640229       0.02538739 </v>
   <v>       0.01022396       0.00289335      -0.01415184 </v>
   <v>       0.00111502      -0.00050733       0.09189136 </v>
   <v>      -0.00425313      -0.00581995      -0.00818155 </v>
   <v>       0.05335220      -0.00676341      -0.00151662 </v>
   <v>       0.00229616      -0.01880333       0.01580807 </v>
   <v>       0.00906054      -0.00649062       0.00279231 </v>
   <v>      -0.00600554       0.00957665      -0.08569323 </v>
   <v>      -0.01275576      -0.01424933      -0.02087336 </v>
   <v>       0.00464000      -0.00908179      -0.00504804 </v>
   <v>      -0.00445478       0.00474099       0.00745505 </v>
   <v>      -0.03567972       0.02186455      -0.02852748 </v>
   <v>       0.00184000      -0.01220356      -0.01776774 </v>
   <v>       0.02377978       0.03714829      -0.04297962 </v>
   <v>       0.01856297       0.03803724       0.02544566 </v>
   <v>       0.00094913       0.00861081      -0.01328766 </v>
   <v>      -0.00580552       0.00843618       0.00100267 </v>
   <v>      -0.00571578      -0.00629622       0.00104403 </v>
   <v>      -0.00753234       0.00110959      -0.00425072 </v>
   <v>       0.00261321       0.01832666      -0.01692721 </v>
   <v>       0.00263997       0.00750706      -0.00156881 </v>
   <v>       0.00078490      -0.00171060       0.00133966 </v>
   <v>       0.00651003       0.01022915       0.00804381 </v>
   <v>      -0.03349902      -0.02550251       0.01992882 </v>
   <v>      -0.00622049       0.00248551       0.00840564 </v>
   <v>       0.00935701      -0.09464235       0.00487699 </v>
   <v>      -0.00276428      -0.02067442       0.00312110 </v>
   <v>       0.00580638       0.00372093       0.00607563 </v>
  </varray>
  <varray name="stress" >
   <v>       1.62713109      -0.19229494      -0.16145185 </v>
   <v>      -0.19229497       2.28560758      -0.13619380 </v>
   <v>      -0.16145188      -0.13619381       1.74737236 </v>
  </varray>
  <energy>
   <i name="e_fr_energy">   -356.41464256 </i>
   <i name="e_wo_entrp">   -356.41926283 </i>
   <i name="e_0_energy">      0.01386080 </i>
  </energy>
  <time name="totalsc">   23.16   25.15</time>
 </calculation>
 <calculation>
  <scstep>
   <time name="dav">    1.21    1.22</time>
   <time name="total">    1.30    1.50</time>
   <energy>
    <i name="alphaZ">   1668.39383378 </i>
    <i name="ewald"> -23226.30719888 </i>
    <i name="hartreedc">  -6985.40600019 </i>
    <i name="XCdc">     98.26370560 </i>
    <i name="pawpsdc">  37759.00526452 </i>
    <i name="pawaedc"> -36290.14221896 </i>
    <i name="eentropy">      0.01399304 </i>
    <i name="bandstr">  -3154.54207613 </i>
    <i name="atom">  29774.30176097 </i>
    <i name="e_fr_energy">   -356.41893625 </i>
    <i name="e_wo_entrp">   -356.43292929 </i>
    <i name="e_0_energy">   -356.42360060 </i>
   </energy>
  </scstep>
  <scstep>
   <time name="diag">    0.08    0.08</time>
   <time name="diis">    0.81    0.81</time>
   <time name="orth">    0.01    0.01</time>
   <time name="total">    0.97    1.01</time>
   <energy>
    <i name="e_fr_energy">   -356.41739226 </i>
    <i name="e_wo_entrp">   -356.43148213 </i>
    <i name="e_0_energy">   -356.42208888 </i>
   </energy>
  </scstep>
  <scstep>
   <time name="diag">    0.08    0.09</time>
   <time name="diis">    0.83    0.83</time>
   <time name="orth">    0.01    0.01</time>
   <time name="total">    1.00    1.05</time>
   <energy>
    <i name="e_fr_energy">   -356.41673021 </i>
    <i name="e_wo_entrp">   -356.43087503 </i>
    <i name="e_0_energy">   -356.42144515 </i>
   </energy>
  </scstep>
  <scstep>
   <time name="diag">    0.08    0.08</time>
   <time name="diis">    0.80    0.82</time>
   <time name="orth">    0.01    0.01</time>
   <time name="total">    0.96    1.03</time>
   <energy>
    <i name="e_fr_energy">   -356.41641124 </i>
    <i name="e_wo_entrp">   -356.43052737 </i>
    <i name="e_0_energy">   -356.42111662 </i>
   </energy>
  </scstep>
  <scstep>
   <time name="diag">    0.08    0.08</time>
   <time name="diis">    0.85    0.85</time>
   <time name="orth">    0.01    0.01</time>
   <time name="total">    1.01    1.05</time>
   <energy>
    <i name="e_fr_energy">   -356.41633377 </i>
    <i name="e_wo_entrp">   -356.43044019 </i>
    <i name="e_0_energy">   -356.42103591 </i>
   </energy>
  </scstep>
  <scstep>
   <time name="diag">    0.08    0.08</time>
   <time name="diis">    0.71    0.71</time>
   <time name="orth">    0.01    0.01</time>
   <time name="total">    0.87    0.91</time>
   <energy>
    <i name="e_fr_energy">   -356.41632646 </i>
    <i name="e_wo_entrp">   -356.43043643 </i>
    <i name="e_0_energy">   -356.42102978 </i>
   </energy>
  </scstep>
  <scstep>
   <time name="diag">    0.08    0.08</time>
   <time name="diis">    0.47    0.47</time>
   <time name="orth">    0.01    0.01</time>
   <time name="total">    0.60    0.64</time>
   <energy>
    <i name="alphaZ">   1668.39383378 </i>
    <i name="ewald"> -23226.30719888 </i>
    <i name="hartreedc">  -6990.55608856 </i>
    <i name="XCdc">     98.49668432 </i>
    <i name="pawpsdc">  37707.59569866 </i>
    <i name="pawaedc"> -36238.60934683 </i>
    <i name="eentropy">      0.01411448 </i>
    <i name="bandstr">  -3149.74577748 </i>
    <i name="atom">  29774.30176097 </i>
    <i name="e_fr_energy">   -356.41631954 </i>
    <i name="e_wo_entrp">   -356.43043402 </i>
    <i name="e_0_energy">   -356.42102437 </i>
   </energy>
  </scstep>
  <structure>
   <crystal>
    <varray name="basis" >
     <v>       6.94781253       0.00375277      -0.00284514 </v>
     <v>       0.00527533      10.30684830       0.01036637 </v>
     <v>      -0.00354531       0.00984128      10.20291623 </v>
    </varray>
    <i name="volume">    730.63032395 </i>
    <varray name="rec_basis" >
     <v>       0.14393025      -0.00007372       0.00005008 </v>
     <v>      -0.00005244       0.09702299      -0.00009360 </v>
     <v>       0.00004019      -0.00009860       0.09801130 </v>
    </varray>
   </crystal>
   <varray name="positions" >
    <v>       0.73459186       0.50526468       0.17270950 </v>
    <v>       0.51014046       0.66838585       0.98957742 </v>
    <v>       0.26432639       0.17932238       0.17183049 </v>
    <v>       0.02843190       0.00390295       0.32230900 </v>
    <v>       0.02424689       0.97757752       0.67997100 </v>
    <v>       0.75089254       0.49381550       0.49147936 </v>
    <v>       0.49805473       0.34275524       0.65446184 </v>
    <v>       0.51221568       0.66749641       0.34962043 </v>
    <v>       0.76574244       0.17038193       0.50236403 </v>
    <v>       0.24923929       0.17943908       0.82635592 </v>
    <v>       0.75467938       0.17060816       0.81989539 </v>
    <v>       0.00560314       0.00094084       0.00244040 </v>
    <v>       0.22904518       0.17742946       0.50385289 </v>
    <v>       0.26293882       0.50576656       0.17322746 </v>
    <v>       0.50297789       0.99528187       0.99455198 </v>
    <v>       0.73782042       0.16916558       0.17731739 </v>
    <v>       0.47478842       0.99821802       0.34210440 </v>
    <v>       0.73213268       0.48596025       0.83377485 </v>
    <v>       0.49551672       0.66873165       0.66270057 </v>
    <v>       0.50494661       0.33425178       0.33618647 </v>
    <v>       0.26360184       0.49145388       0.83172881 </v>
    <v>       0.99167148       0.33520723       0.31558197 </v>
    <v>       0.99811665       0.35745538       0.66812806 </v>
    <v>       0.98490996       0.66136911       0.33963113 </v>
    <v>       0.22423389       0.82821785       0.49184941 </v>
    <v>       0.25515510       0.82673616       0.84671849 </v>
    <v>       0.49343130       0.33553057       0.00497296 </v>
    <v>       0.75081841       0.83622177       0.82781496 </v>
    <v>       0.00341949       0.33801155       0.01118576 </v>
    <v>       0.99178364       0.65967059       0.98769290 </v>
    <v>       0.25357956       0.81520135       0.16851840 </v>
    <v>       0.48095724       0.98920317       0.66818130 </v>
    <v>       0.75295704       0.82345848       0.17647592 </v>
    <v>       0.77289261       0.84627903       0.49419506 </v>
    <v>       0.24174427       0.49546795       0.48871846 </v>
    <v>       0.00240510       0.66582321       0.67187962 </v>
   </varray>
  </structure>
  <varray name="forces" >
   <v>      -0.00278659      -0.00562638       0.01425704 </v>
   <v>       0.00863240       0.00282330      -0.00838935 </v>
   <v>       0.00815789       0.00561183       0.01435402 </v>
   <v>       0.02400611      -0.04172951      -0.05032539 </v>
   <v>       0.03490575      -0.04397309       0.03390381 </v>
   <v>      -0.00249496       0.09849167       0.00023654 </v>
   <v>      -0.02486947       0.04749064       0.02866955 </v>
   <v>      -0.01039671       0.00656676       0.00440242 </v>
   <v>      -0.05732108      -0.02142083       0.02245345 </v>
   <v>       0.00858301       0.00353019      -0.01415245 </v>
   <v>       0.00041161       0.00075536       0.08390579 </v>
   <v>      -0.00316951      -0.00652053      -0.00674516 </v>
   <v>       0.04584443      -0.00546696      -0.00342358 </v>
   <v>       0.00387877      -0.01573774       0.01489658 </v>
   <v>       0.00780886      -0.00751092       0.00135182 </v>
   <v>      -0.00632145       0.01125994      -0.07917689 </v>
   <v>      -0.01140411      -0.01324816      -0.01875454 </v>
   <v>       0.00319929      -0.00946131      -0.00552513 </v>
   <v>      -0.00428989       0.00376385       0.00712660 </v>
   <v>      -0.02864188       0.02024512      -0.02523494 </v>
   <v>       0.00248976      -0.01229821      -0.01497836 </v>
   <v>       0.01868528       0.03333727      -0.04203894 </v>
   <v>       0.01663236       0.03622491       0.02326575 </v>
   <v>       0.00095564       0.00656083      -0.01187799 </v>
   <v>      -0.00849184       0.01017972      -0.00092472 </v>
   <v>      -0.00459254      -0.00768776       0.00413698 </v>
   <v>      -0.00849214       0.00078171      -0.00302988 </v>
   <v>       0.00283020       0.01693631      -0.01702733 </v>
   <v>       0.00456054       0.00707189       0.00095631 </v>
   <v>      -0.00042967      -0.00062497       0.00057142 </v>
   <v>       0.00694394       0.00587532       0.00463659 </v>
   <v>      -0.03062966      -0.02655537       0.01959660 </v>
   <v>      -0.00658393       0.00162554       0.00867584 </v>
   <v>       0.01032266      -0.08622864       0.00547638 </v>
   <v>      -0.00501967      -0.01833535       0.00266805 </v>
   <v>       0.00708662       0.00329357       0.00606306 </v>
  </varray>
  <varray name="stress" >
   <v>       0.52066944      -0.18447721      -0.12557192 </v>
   <v>      -0.18447715       1.08663741      -0.11791484 </v>
   <v>      -0.12557192      -0.11791483       0.57903992 </v>
  </varray>
  <energy>
   <i name="e_fr_energy">   -356.41631954 </i>
   <i name="e_wo_entrp">   -356.42102437 </i>
   <i name="e_0_energy">      0.01411448 </i>
  </energy>
  <time name="totalsc">    8.42    9.07</time>
 </calculation>
 <calculation>
  <scstep>
   <time name="dav">    1.25    1.26</time>
   <time name="total">    1.32    1.57</time>
   <energy>
    <i name="alphaZ">   1664.69246770 </i>
    <i name="ewald"> -23209.70202059 </i>
    <i name="hartreedc">  -6984.71274076 </i>
    <i name="XCdc">     97.72933923 </i>
    <i name="pawpsdc">  37709.59026763 </i>
    <i name="pawaedc"> -36240.64719215 </i>
    <i name="eentropy">      0.01437797 </i>
    <i name="bandstr">  -3167.69572631 </i>
    <i name="atom">  29774.30176097 </i>
    <i name="e_fr_energy">   -356.42946630 </i>
    <i name="e_wo_entrp">   -356.44384427 </i>
    <i name="e_0_energy">   -356.43425896 </i>
   </energy>
  </scstep>
  <scstep>
   <time name="diag">    0.09    0.09</time>
   <time name="diis">    0.80    0.80</time>
   <time name="orth">    0.01    0.01</time>
   <time name="total">    0.97    1.01</time>
   <energy>
    <i name="e_fr_energy">   -356.42210231 </i>
    <i name="e_wo_entrp">   -356.43667186 </i>
    <i name="e_0_energy">   -356.42695882 </i>
   </energy>
  </scstep>
  <scstep>
   <time name="diag">    0.09    0.09</time>
   <time name="diis">    0.83    0.83</time>
   <time name="orth">    0.01    0.01</time>
   <time name="total">    1.00    1.05</time>
   <energy>
    <i name="e_fr_energy">   -356.41903076 </i>
    <i name="e_wo_entrp">   -356.43373460 </i>
    <i name="e_0_energy">   -356.42393204 </i>
   </energy>
  </scstep>
  <scstep>
   <time name="diag">    0.08    0.08</time>
   <time name="diis">    0.83    0.84</time>
   <time name="orth">    0.01    0.01</time>
   <time name="total">    1.05    1.08</time>
   <energy>
    <i name="e_fr_energy">   -356.41762536 </i>
    <i name="e_wo_entrp">   -356.43226348 </i>
    <i name="e_0_energy">   -356.42250473 </i>
   </energy>
  </scstep>
  <scstep>
   <time name="diag">    0.09    0.09</time>
   <time name="diis">    0.81    0.82</time>
   <time name="orth">    0.01    0.01</time>
   <time name="total">    0.99    1.04</time>
   <energy>
    <i name="e_fr_energy">   -356.41730345 </i>
    <i name="e_wo_entrp">   -356.43191662 </i>
    <i name="e_0_energy">   -356.42217451 </i>
   </energy>
  </scstep>
  <scstep>
   <time name="diag">    0.09    0.09</time>
   <time name="diis">    0.88    0.88</time>
   <time name="orth">    0.01    0.01</time>
   <time name="total">    1.04    1.09</time>
   <energy>
    <i name="e_fr_energy">   -356.41731227 </i>
    <i name="e_wo_entrp">   -356.43193563 </i>
    <i name="e_0_energy">   -356.42218673 </i>
   </energy>
  </scstep>
  <scstep>
   <time name="diag">    0.09    0.09</time>
   <time name="diis">    0.72    0.73</time>
   <time name="orth">    0.01    0.01</time>
   <time name="total">    0.89    0.95</time>
   <energy>
    <i name="e_fr_energy">   -356.41732023 </i>
    <i name="e_wo_entrp">   -356.43195181 </i>
    <i name="e_0_energy">   -356.42219743 </i>
   </energy>
  </scstep>
  <scstep>
   <time name="diag">    0.14    0.14</time>
   <time name="diis">    0.68    0.69</time>
   <time name="orth">    0.01    0.01</time>
   <time name="total">    0.91    0.96</time>
   <energy>
    <i name="e_fr_energy">   -356.41732055 </i>
    <i name="e_wo_entrp">   -356.43195692 </i>
    <i name="e_0_energy">   -356.42219934 </i>
   </energy>
  </scstep>
  <scstep>
   <time name="diag">    0.08    0.09</time>
   <time name="diis">    0.47    0.48</time>
   <time name="orth">    0.02    0.02</time>
   <time name="total">    0.61    0.65</time>
   <energy>
    <i name="alphaZ">   1664.69246770 </i>
    <i name="ewald"> -23209.70202059 </i>
    <i name="hartreedc">  -6995.40795621 </i>
    <i name="XCdc">     98.21493654 </i>
    <i name="pawpsdc">  37604.25002024 </i>
    <i name="pawaedc"> -36135.40472564 </i>
    <i name="eentropy">      0.01461414 </i>
    <i name="bandstr">  -3157.37642207 </i>
    <i name="atom">  29774.30176097 </i>
    <i name="e_fr_energy">   -356.41732490 </i>
    <i name="e_wo_entrp">   -356.43193904 </i>
    <i name="e_0_energy">   -356.42219628 </i>
   </energy>
  </scstep>
  <structure>
   <crystal>
    <varray name="basis" >
     <v>       6.95225037       0.00323201      -0.00328752 </v>
     <v>       0.00450030      10.31609405       0.00982231 </v>
     <v>      -0.00419480       0.00930509      10.20991455 </v>
    </varray>
    <i name="volume">    732.25484640 </i>
    <varray name="rec_basis" >
     <v>       0.14383838      -0.00006280       0.00005915 </v>
     <v>      -0.00004511       0.09693602      -0.00008836 </v>
     <v>       0.00004636      -0.00009328       0.09794412 </v>
    </varray>
   </crystal>
   <varray name="positions" >
    <v>       0.73458726       0.50524041       0.17275558 </v>
    <v>       0.51017787       0.66838981       0.98955261 </v>
    <v>       0.26436580       0.17933819       0.17187656 </v>
    <v>       0.02854528       0.00376566       0.32213753 </v>
    <v>       0.02441385       0.97744146       0.68008032 </v>
    <v>       0.75088514       0.49414449       0.49148228 </v>
    <v>       0.49792125       0.34290150       0.65456010 </v>
    <v>       0.51216357       0.66752302       0.34962994 </v>
    <v>       0.76545402       0.17030247       0.50244124 </v>
    <v>       0.24928493       0.17944781       0.82631288 </v>
    <v>       0.75468451       0.17060636       0.82017488 </v>
    <v>       0.00558414       0.00092335       0.00241553 </v>
    <v>       0.22928348       0.17740901       0.50384836 </v>
    <v>       0.26294914       0.50570990       0.17327560 </v>
    <v>       0.50301838       0.99526231       0.99456050 </v>
    <v>       0.73779344       0.16919467       0.17705672 </v>
    <v>       0.47473145       0.99817520       0.34204094 </v>
    <v>       0.73215341       0.48593291       0.83375953 </v>
    <v>       0.49549682       0.66874591       0.66272322 </v>
    <v>       0.50478716       0.33431775       0.33609959 </v>
    <v>       0.26361005       0.49141719       0.83167481 </v>
    <v>       0.99177754       0.33531916       0.31545117 </v>
    <v>       0.99819952       0.35756980       0.66820536 </v>
    <v>       0.98491416       0.66139508       0.33959069 </v>
    <v>       0.22420795       0.82824326       0.49185242 </v>
    <v>       0.25512958       0.82671721       0.84672168 </v>
    <v>       0.49339765       0.33553394       0.00496002 </v>
    <v>       0.75083002       0.83627699       0.82776342 </v>
    <v>       0.00343126       0.33803415       0.01118097 </v>
    <v>       0.99178715       0.65966544       0.98769698 </v>
    <v>       0.25360862       0.81523212       0.16854284 </v>
    <v>       0.48080771       0.98912639       0.66824195 </v>
    <v>       0.75292927       0.82346595       0.17650147 </v>
    <v>       0.77293462       0.84599405       0.49421020 </v>
    <v>       0.24173197       0.49540570       0.48872801 </v>
    <v>       0.00243103       0.66583439       0.67189809 </v>
   </varray>
  </structure>
  <varray name="forces" >
   <v>      -0.00462882      -0.00283755       0.01486827 </v>
   <v>       0.00856398       0.00440206      -0.00927028 </v>
   <v>       0.00569658       0.01031615       0.01648185 </v>
   <v>       0.02232720      -0.03334099      -0.03739399 </v>
   <v>       0.03122198      -0.04120065       0.03020724 </v>
   <v>      -0.00658490       0.07629299      -0.00475356 </v>
   <v>      -0.01432998       0.04686364       0.02309502 </v>
   <v>      -0.00872568       0.00082882       0.00583053 </v>
   <v>      -0.04209585      -0.00900423       0.01546882 </v>
   <v>       0.00514228       0.00704995      -0.01537723 </v>
   <v>      -0.00140285       0.00523470       0.06396852 </v>
   <v>      -0.00009998      -0.00956323      -0.00292069 </v>
   <v>       0.03056280      -0.00126831      -0.00841862 </v>
   <v>       0.00642281      -0.00884929       0.01289428 </v>
   <v>       0.00457666      -0.01161103      -0.00174377 </v>
   <v>      -0.00605272       0.01771655      -0.06327907 </v>
   <v>      -0.01068493      -0.01177617      -0.01437723 </v>
   <v>      -0.00021942      -0.01030485      -0.00602295 </v>
   <v>      -0.00493185       0.00061306       0.00669846 </v>
   <v>      -0.01404721       0.01732910      -0.01754524 </v>
   <v>       0.00397968      -0.01231993      -0.00932865 </v>
   <v>       0.00846971       0.02336040      -0.03699588 </v>
   <v>       0.01218549       0.03319927       0.01756647 </v>
   <v>       0.00273526       0.00405040      -0.00914365 </v>
   <v>      -0.01506187       0.01300219      -0.00707929 </v>
   <v>      -0.00178969      -0.01141747       0.01248425 </v>
   <v>      -0.01028272       0.00227844      -0.00201911 </v>
   <v>       0.00399156       0.01368606      -0.01638854 </v>
   <v>       0.00889863       0.00865141       0.00662428 </v>
   <v>      -0.00249560      -0.00071730      -0.00103528 </v>
   <v>       0.00772883      -0.00571380      -0.00033871 </v>
   <v>      -0.02624799      -0.02859562       0.01816531 </v>
   <v>      -0.00743902      -0.00241762       0.01118655 </v>
   <v>       0.01274164      -0.07090702       0.00466040 </v>
   <v>      -0.00769756      -0.01446936      -0.00324549 </v>
   <v>       0.00957357       0.00143921       0.00647697 </v>
  </varray>
  <varray name="stress" >
   <v>      -2.22051872      -0.12500888      -0.02925634 </v>
   <v>      -0.12500886      -1.81874960      -0.06404168 </v>
   <v>      -0.02925630      -0.06404168      -2.22367748 </v>
  </varray>
  <energy>
   <i name="e_fr_energy">   -356.41732490 </i>
   <i name="e_wo_entrp">   -356.42219628 </i>
   <i name="e_0_energy">      0.01461414 </i>
  </energy>
  <time name="totalsc">   10.51   11.30</time>
 </calculation>
 <calculation>
  <scstep>
   <time name="dav">    1.05    1.12</time>
   <time name="total">    1.14    1.42</time>
   <energy>
    <i name="alphaZ">   1664.97260832 </i>
    <i name="ewald"> -23211.34879745 </i>
    <i name="hartreedc">  -6995.32670983 </i>
    <i name="XCdc">     98.26895977 </i>
    <i name="pawpsdc">  37604.41174595 </i>
    <i name="pawaedc"> -36135.71743324 </i>
    <i name="eentropy">      0.01476841 </i>
    <i name="bandstr">  -3155.99539107 </i>
    <i name="atom">  29774.30176097 </i>
    <i name="e_fr_energy">   -356.41848817 </i>
    <i name="e_wo_entrp">   -356.43325658 </i>
    <i name="e_0_energy">   -356.42341097 </i>
   </energy>
  </scstep>
  <scstep>
   <time name="diag">    0.08    0.09</time>
   <time name="diis">    0.79    0.80</time>
   <time name="orth">    0.02    0.02</time>
   <time name="total">    0.96    1.02</time>
   <energy>
    <i name="e_fr_energy">   -356.41878138 </i>
    <i name="e_wo_entrp">   -356.43346484 </i>
    <i name="e_0_energy">   -356.42367587 </i>
   </energy>
  </scstep>
  <scstep>
   <time name="diag">    0.08    0.09</time>
   <time name="diis">    0.82    0.83</time>
   <time name="orth">    0.01    0.02</time>
   <time name="total">    0.99    1.04</time>
   <energy>
    <i name="e_fr_energy">   -356.41868679 </i>
    <i name="e_wo_entrp">   -356.43338985 </i>
    <i name="e_0_energy">   -356.42358781 </i>
   </energy>
  </scstep>
  <scstep>
   <time name="diag">    0.08    0.08</time>
   <time name="diis">    0.72    0.73</time>
   <time name="orth">    0.01    0.01</time>
   <time name="total">    0.89    0.94</time>
   <energy>
    <i name="e_fr_energy">   -356.41866385 </i>
    <i name="e_wo_entrp">   -356.43335101 </i>
    <i name="e_0_energy">   -356.42355957 </i>
   </energy>
  </scstep>
  <scstep>
   <time name="diag">    0.08    0.09</time>
   <time name="diis">    0.72    0.73</time>
   <time name="orth">    0.01    0.01</time>
   <time name="total">    0.85    0.90</time>
   <energy>
    <i name="alphaZ">   1664.97260832 </i>
    <i name="ewald"> -23211.34879745 </i>
    <i name="hartreedc">  -6994.39622115 </i>
    <i name="XCdc">     98.22704464 </i>
    <i name="pawpsdc">  37612.41244247 </i>
    <i name="pawaedc"> -36143.86710007 </i>
    <i name="eentropy">      0.01466715 </i>
    <i name="bandstr">  -3156.73506159 </i>
    <i name="atom">  29774.30176097 </i>
    <i name="e_fr_energy">   -356.41865671 </i>
    <i name="e_wo_entrp">   -356.43332386 </i>
    <i name="e_0_energy">   -356.42354576 </i>
   </energy>
  </scstep>
  <structure>
   <crystal>
    <varray name="basis" >
     <v>       6.95142715       0.00288052      -0.00349489 </v>
     <v>       0.00397751      10.31661419       0.00949364 </v>
     <v>      -0.00449965       0.00898160      10.20889009 </v>
    </varray>
    <i name="volume">    732.13164058 </i>
    <varray name="rec_basis" >
     <v>       0.14385541      -0.00005552       0.00006345 </v>
     <v>      -0.00004021       0.09693112      -0.00008530 </v>
     <v>       0.00004928      -0.00009016       0.09795394 </v>
    </varray>
   </crystal>
   <varray name="positions" >
    <v>       0.73457672       0.50522723       0.17279285 </v>
    <v>       0.51020877       0.66839698       0.98953092 </v>
    <v>       0.26439208       0.17935752       0.17191589 </v>
    <v>       0.02863209       0.00366920       0.32202196 </v>
    <v>       0.02453864       0.97733540       0.68016229 </v>
    <v>       0.75086974       0.49437114       0.49147723 </v>
    <v>       0.49784161       0.34301872       0.65462844 </v>
    <v>       0.51212656       0.66753455       0.34964117 </v>
    <v>       0.76526094       0.17025972       0.50249152 </v>
    <v>       0.24931259       0.17946024       0.82627615 </v>
    <v>       0.75468393       0.17061225       0.82036721 </v>
    <v>       0.00557648       0.00090429       0.00240199 </v>
    <v>       0.22943505       0.17739934       0.50383578 </v>
    <v>       0.26296535       0.50567631       0.17331116 </v>
    <v>       0.50304297       0.99523982       0.99456163 </v>
    <v>       0.73777131       0.16922875       0.17687265 </v>
    <v>       0.47468883       0.99814337       0.34199746 </v>
    <v>       0.73216117       0.48590904       0.83374577 </v>
    <v>       0.49547968       0.66875230       0.66274076 </v>
    <v>       0.50469780       0.33436581       0.33604278 </v>
    <v>       0.26362081       0.49138706       0.83164156 </v>
    <v>       0.99183526       0.33539300       0.31535205 </v>
    <v>       0.99825516       0.35765709       0.66825836 </v>
    <v>       0.98492097       0.66141046       0.33956301 </v>
    <v>       0.22416926       0.82826983       0.49184448 </v>
    <v>       0.25511618       0.82669520       0.84673900 </v>
    <v>       0.49336497       0.33553817       0.00495232 </v>
    <v>       0.75084210       0.83631617       0.82772203 </v>
    <v>       0.00345271       0.33805405       0.01118760 </v>
    <v>       0.99178382       0.65966250       0.98769726 </v>
    <v>       0.25363468       0.81523695       0.16855205 </v>
    <v>       0.48069928       0.98905975       0.66828921 </v>
    <v>       0.75290429       0.82346581       0.17652592 </v>
    <v>       0.77297529       0.84579158       0.49422224 </v>
    <v>       0.24171260       0.49536278       0.48872761 </v>
    <v>       0.00245933       0.66584061       0.67191370 </v>
   </varray>
  </structure>
  <varray name="forces" >
   <v>      -0.00322961      -0.00006860       0.01068215 </v>
   <v>       0.00875734       0.00316161      -0.00643185 </v>
   <v>       0.00399849       0.00865067       0.01410570 </v>
   <v>       0.01388785      -0.02682773      -0.02845457 </v>
   <v>       0.02393966      -0.03156820       0.02427188 </v>
   <v>      -0.00528682       0.06275242      -0.00325108 </v>
   <v>      -0.00857617       0.04178709       0.01954417 </v>
   <v>      -0.01137027       0.00063663       0.00560399 </v>
   <v>      -0.03208334      -0.00414533       0.01166260 </v>
   <v>       0.00256374       0.00616011      -0.01359208 </v>
   <v>      -0.00213522       0.00551879       0.05247905 </v>
   <v>       0.00048849      -0.01019639      -0.00128038 </v>
   <v>       0.02119602      -0.00123691      -0.01134003 </v>
   <v>       0.00470381      -0.00361064       0.00952923 </v>
   <v>       0.00364713      -0.01212849      -0.00270537 </v>
   <v>      -0.00537464       0.01755358      -0.05363580 </v>
   <v>      -0.00427970      -0.00940464      -0.00982045 </v>
   <v>       0.00261408      -0.00692555      -0.00505000 </v>
   <v>      -0.00395276      -0.00060158       0.00681540 </v>
   <v>      -0.00685920       0.01291873      -0.01327944 </v>
   <v>       0.00123672      -0.00800383      -0.00460574 </v>
   <v>       0.00360139       0.01737457      -0.03064347 </v>
   <v>       0.00936960       0.02576100       0.01479098 </v>
   <v>       0.00628234       0.00296929      -0.00980799 </v>
   <v>      -0.01352687       0.01274379      -0.00798505 </v>
   <v>       0.00019725      -0.01481588       0.01618397 </v>
   <v>      -0.00922667       0.00174846      -0.00385624 </v>
   <v>       0.00418247       0.01105161      -0.01466617 </v>
   <v>       0.00939229       0.00951750       0.00642187 </v>
   <v>      -0.00303582      -0.00142642       0.00053315 </v>
   <v>       0.00831285      -0.01124564      -0.00441322 </v>
   <v>      -0.01911923      -0.02570813       0.01414488 </v>
   <v>      -0.00721789      -0.00214232       0.00903576 </v>
   <v>       0.00862429      -0.05898619       0.00596824 </v>
   <v>      -0.01114435      -0.01001417      -0.00326029 </v>
   <v>       0.00942272      -0.00124922       0.00630620 </v>
  </varray>
  <varray name="stress" >
   <v>      -2.28213666      -0.11225404       0.01183505 </v>
   <v>      -0.11225400      -1.91211580      -0.04772929 </v>
   <v>       0.01183503      -0.04772933      -2.30683886 </v>
  </varray>
  <energy>
   <i name="e_fr_energy">   -356.41865671 </i>
   <i name="e_wo_entrp">   -356.42354576 </i>
   <i name="e_0_energy">      0.01466715 </i>
  </energy>
  <time name="totalsc">    6.50    7.17</time>
 </calculation>
 <calculation>
  <scstep>
   <time name="dav">    1.00    1.09</time>
   <time name="total">    1.07    1.43</time>
   <energy>
    <i name="alphaZ">   1665.81366852 </i>
    <i name="ewald"> -23216.19970865 </i>
    <i name="hartreedc">  -6994.46651130 </i>
    <i name="XCdc">     98.39920041 </i>
    <i name="pawpsdc">  37612.04178012 </i>
    <i name="pawaedc"> -36143.53606593 </i>
    <i name="eentropy">      0.01509588 </i>
    <i name="bandstr">  -3152.78881718 </i>
    <i name="atom">  29774.30176097 </i>
    <i name="e_fr_energy">   -356.41959718 </i>
    <i name="e_wo_entrp">   -356.43469305 </i>
    <i name="e_0_energy">   -356.42462914 </i>
   </energy>
  </scstep>
  <scstep>
   <time name="diag">    0.08    0.08</time>
   <time name="diis">    0.75    0.87</time>
   <time name="orth">    0.02    0.03</time>
   <time name="total">    0.92    1.10</time>
   <energy>
    <i name="e_fr_energy">   -356.42224170 </i>
    <i name="e_wo_entrp">   -356.43705362 </i>
    <i name="e_0_energy">   -356.42717901 </i>
   </energy>
  </scstep>
  <scstep>
   <time name="diag">    0.08    0.09</time>
   <time name="diis">    0.79    0.81</time>
   <time name="orth">    0.01    0.01</time>
   <time name="total">    0.95    1.01</time>
   <energy>
    <i name="e_fr_energy">   -356.42134736 </i>
    <i name="e_wo_entrp">   -356.43621984 </i>
    <i name="e_0_energy">   -356.42630485 </i>
   </energy>
  </scstep>
  <scstep>
   <time name="diag">    0.08    0.08</time>
   <time name="diis">    0.86    0.89</time>
   <time name="orth">    0.01    0.01</time>
   <time name="total">    1.03    1.10</time>
   <energy>
    <i name="e_fr_energy">   -356.42116559 </i>
    <i name="e_wo_entrp">   -356.43600301 </i>
    <i name="e_0_energy">   -356.42611140 </i>
   </energy>
  </scstep>
  <scstep>
   <time name="diag">    0.08    0.08</time>
   <time name="diis">    0.84    0.85</time>
   <time name="orth">    0.01    0.01</time>
   <time name="total">    1.00    1.07</time>
   <energy>
    <i name="e_fr_energy">   -356.42113105 </i>
    <i name="e_wo_entrp">   -356.43590269 </i>
    <i name="e_0_energy">   -356.42605493 </i>
   </energy>
  </scstep>
  <scstep>
   <time name="diag">    0.08    0.08</time>
   <time name="diis">    0.77    0.79</time>
   <time name="orth">    0.01    0.01</time>
   <time name="total">    0.93    0.99</time>
   <energy>
    <i name="e_fr_energy">   -356.42112456 </i>
    <i name="e_wo_entrp">   -356.43592875 </i>
    <i name="e_0_energy">   -356.42605929 </i>
   </energy>
  </scstep>
  <scstep>
   <time name="diag">    0.08    0.09</time>
   <time name="diis">    0.55    0.58</time>
   <time name="orth">    0.01    0.01</time>
   <time name="total">    0.69    0.79</time>
   <energy>
    <i name="alphaZ">   1665.81366852 </i>
    <i name="ewald"> -23216.19970865 </i>
    <i name="hartreedc">  -6992.00102053 </i>
    <i name="XCdc">     98.28687229 </i>
    <i name="pawpsdc">  37635.58662735 </i>
    <i name="pawaedc"> -36167.15092528 </i>
    <i name="eentropy">      0.01477824 </i>
    <i name="bandstr">  -3155.07318426 </i>
    <i name="atom">  29774.30176097 </i>
    <i name="e_fr_energy">   -356.42113135 </i>
    <i name="e_wo_entrp">   -356.43590959 </i>
    <i name="e_0_energy">   -356.42605743 </i>
   </energy>
  </scstep>
  <structure>
   <crystal>
    <varray name="basis" >
     <v>       6.94895747       0.00182603      -0.00411701 </v>
     <v>       0.00240915      10.31817461       0.00850762 </v>
     <v>      -0.00541421       0.00801110      10.20581674 </v>
    </varray>
    <i name="volume">    731.76199132 </i>
    <varray name="rec_basis" >
     <v>       0.14390653      -0.00003366       0.00007637 </v>
     <v>      -0.00002551       0.09691644      -0.00007609 </v>
     <v>       0.00005807      -0.00008080       0.09798343 </v>
    </varray>
   </crystal>
   <varray name="positions" >
    <v>       0.73454510       0.50518769       0.17290467 </v>
    <v>       0.51030148       0.66841849       0.98946583 </v>
    <v>       0.26447097       0.17941553       0.17203389 </v>
    <v>       0.02889250       0.00337982       0.32167522 </v>
    <v>       0.02491301       0.97701726       0.68040823 </v>
    <v>       0.75082357       0.49505106       0.49146208 </v>
    <v>       0.49760269       0.34337035       0.65483347 </v>
    <v>       0.51201555       0.66756913       0.34967488 </v>
    <v>       0.76468163       0.17013148       0.50264237 </v>
    <v>       0.24939560       0.17949752       0.82616595 </v>
    <v>       0.75468223       0.17062993       0.82094425 </v>
    <v>       0.00555347       0.00084712       0.00236136 </v>
    <v>       0.22988981       0.17737036       0.50379802 </v>
    <v>       0.26301400       0.50557555       0.17341783 </v>
    <v>       0.50311677       0.99517238       0.99456502 </v>
    <v>       0.73770490       0.16933095       0.17632041 </v>
    <v>       0.47456093       0.99804788       0.34186702 </v>
    <v>       0.73218442       0.48583742       0.83370446 </v>
    <v>       0.49542824       0.66877147       0.66279336 </v>
    <v>       0.50442970       0.33450996       0.33587234 </v>
    <v>       0.26365306       0.49129670       0.83154181 </v>
    <v>       0.99200843       0.33561451       0.31505470 </v>
    <v>       0.99842213       0.35791894       0.66841740 </v>
    <v>       0.98494140       0.66145662       0.33947994 </v>
    <v>       0.22405321       0.82834953       0.49182065 </v>
    <v>       0.25507594       0.82662918       0.84679097 </v>
    <v>       0.49326692       0.33555086       0.00492921 </v>
    <v>       0.75087837       0.83643370       0.82759787 </v>
    <v>       0.00351705       0.33811374       0.01120749 </v>
    <v>       0.99177382       0.65965368       0.98769808 </v>
    <v>       0.25371284       0.81525146       0.16857966 </v>
    <v>       0.48037394       0.98885983       0.66843100 </v>
    <v>       0.75282935       0.82346537       0.17659927 </v>
    <v>       0.77309725       0.84518421       0.49425836 </v>
    <v>       0.24165446       0.49523403       0.48872640 </v>
    <v>       0.00254425       0.66585927       0.67196054 </v>
   </varray>
  </structure>
  <varray name="forces" >
   <v>      -0.00119452       0.00718756       0.00134251 </v>
   <v>       0.01028873       0.00200858      -0.00171751 </v>
   <v>      -0.00130962       0.00207404       0.00414108 </v>
   <v>      -0.00978108      -0.00621573      -0.00450794 </v>
   <v>       0.00452317      -0.00356970       0.00990274 </v>
   <v>      -0.00950649       0.02465315       0.00220829 </v>
   <v>       0.00797364       0.02727179       0.01157958 </v>
   <v>      -0.01874731      -0.00152830       0.00613844 </v>
   <v>      -0.00668799       0.00957878       0.00355394 </v>
   <v>      -0.00184590       0.00164148      -0.00739672 </v>
   <v>      -0.00715681       0.00661976       0.02199793 </v>
   <v>       0.00372316      -0.00840609       0.00428344 </v>
   <v>      -0.00191934      -0.00016144      -0.01734595 </v>
   <v>       0.00226551       0.01335471      -0.00028073 </v>
   <v>      -0.00018939      -0.00984243      -0.00556419 </v>
   <v>      -0.00386642       0.01567836      -0.03205384 </v>
   <v>       0.01393605      -0.00226811       0.00039706 </v>
   <v>       0.00768271      -0.00317906      -0.00659278 </v>
   <v>      -0.00294412      -0.00565149       0.00338306 </v>
   <v>       0.01613734      -0.00074954       0.00102652 </v>
   <v>      -0.00484743       0.00376816       0.00996013 </v>
   <v>      -0.01269475      -0.00461482      -0.01052197 </v>
   <v>       0.00030340       0.00370583       0.00477478 </v>
   <v>       0.01797883      -0.00121476      -0.01171574 </v>
   <v>      -0.00641143       0.01074287      -0.00910252 </v>
   <v>       0.00576449      -0.02128890       0.02615351 </v>
   <v>      -0.00667194      -0.00110236      -0.00895815 </v>
   <v>       0.00454617       0.00552668      -0.00913113 </v>
   <v>       0.01189629       0.00753894       0.00556169 </v>
   <v>      -0.00520755      -0.00279850       0.00338129 </v>
   <v>       0.01128159      -0.02391652      -0.01557389 </v>
   <v>       0.00015016      -0.01649785       0.00560461 </v>
   <v>      -0.00828493       0.00213265       0.00362406 </v>
   <v>      -0.00555252      -0.02528530       0.00991888 </v>
   <v>      -0.01334359       0.00325281      -0.00336927 </v>
   <v>       0.00971188      -0.00844523       0.00489875 </v>
  </varray>
  <varray name="stress" >
   <v>      -1.42170390       0.03653067       0.16924536 </v>
   <v>       0.03653064      -1.37614327      -0.00565827 </v>
   <v>       0.16924529      -0.00565825      -1.48036898 </v>
  </varray>
  <energy>
   <i name="e_fr_energy">   -356.42113135 </i>
   <i name="e_wo_entrp">   -356.42605743 </i>
   <i name="e_0_energy">      0.01477824 </i>
  </energy>
  <time name="totalsc">    8.29    9.33</time>
 </calculation>
 <calculation>
  <scstep>
   <time name="dav">    0.95    0.97</time>
   <time name="total">    1.03    1.22</time>
   <energy>
    <i name="alphaZ">   1667.49866614 </i>
    <i name="ewald"> -23225.49978840 </i>
    <i name="hartreedc">  -6992.69506566 </i>
    <i name="XCdc">     98.64171752 </i>
    <i name="pawpsdc">  37634.98431930 </i>
    <i name="pawaedc"> -36166.52239821 </i>
    <i name="eentropy">      0.01553541 </i>
    <i name="bandstr">  -3147.13782241 </i>
    <i name="atom">  29774.30176097 </i>
    <i name="e_fr_energy">   -356.41307534 </i>
    <i name="e_wo_entrp">   -356.42861075 </i>
    <i name="e_0_energy">   -356.41825381 </i>
   </energy>
  </scstep>
  <scstep>
   <time name="diag">    0.08    0.08</time>
   <time name="diis">    0.79    0.80</time>
   <time name="orth">    0.01    0.01</time>
   <time name="total">    0.96    1.01</time>
   <energy>
    <i name="e_fr_energy">   -356.42369793 </i>
    <i name="e_wo_entrp">   -356.43864669 </i>
    <i name="e_0_energy">   -356.42868085 </i>
   </energy>
  </scstep>
  <scstep>
   <time name="diag">    0.08    0.08</time>
   <time name="diis">    0.73    0.87</time>
   <time name="orth">    0.01    0.01</time>
   <time name="total">    0.90    1.07</time>
   <energy>
    <i name="e_fr_energy">   -356.42001517 </i>
    <i name="e_wo_entrp">   -356.43509495 </i>
    <i name="e_0_energy">   -356.42504176 </i>
   </energy>
  </scstep>
  <scstep>
   <time name="diag">    0.08    0.08</time>
   <time name="diis">    0.89    0.90</time>
   <time name="orth">    0.01    0.01</time>
   <time name="total">    1.05    1.12</time>
   <energy>
    <i name="e_fr_energy">   -356.41929570 </i>
    <i name="e_wo_entrp">   -356.43430557 </i>
    <i name="e_0_energy">   -356.42429899 </i>
   </energy>
  </scstep>
  <scstep>
   <time name="diag">    0.09    0.09</time>
   <time name="diis">    0.91    0.92</time>
   <time name="orth">    0.01    0.01</time>
   <time name="total">    1.08    1.12</time>
   <energy>
    <i name="e_fr_energy">   -356.41914914 </i>
    <i name="e_wo_entrp">   -356.43403001 </i>
    <i name="e_0_energy">   -356.42410943 </i>
   </energy>
  </scstep>
  <scstep>
   <time name="diag">    0.08    0.08</time>
   <time name="diis">    0.89    0.89</time>
   <time name="orth">    0.01    0.01</time>
   <time name="total">    1.05    1.11</time>
   <energy>
    <i name="e_fr_energy">   -356.41912661 </i>
    <i name="e_wo_entrp">   -356.43407185 </i>
    <i name="e_0_energy">   -356.42410836 </i>
   </energy>
  </scstep>
  <scstep>
   <time name="diag">    0.08    0.08</time>
   <time name="diis">    0.85    0.85</time>
   <time name="orth">    0.01    0.01</time>
   <time name="total">    1.01    1.05</time>
   <energy>
    <i name="e_fr_energy">   -356.41914746 </i>
    <i name="e_wo_entrp">   -356.43404339 </i>
    <i name="e_0_energy">   -356.42411277 </i>
   </energy>
  </scstep>
  <scstep>
   <time name="diag">    0.08    0.08</time>
   <time name="diis">    0.70    0.71</time>
   <time name="orth">    0.01    0.01</time>
   <time name="total">    0.91    0.95</time>
   <energy>
    <i name="e_fr_energy">   -356.41915968 </i>
    <i name="e_wo_entrp">   -356.43407480 </i>
    <i name="e_0_energy">   -356.42413138 </i>
   </energy>
  </scstep>
  <scstep>
   <time name="diag">    0.08    0.08</time>
   <time name="diis">    0.58    0.59</time>
   <time name="orth">    0.01    0.01</time>
   <time name="total">    0.75    0.80</time>
   <energy>
    <i name="e_fr_energy">   -356.41917176 </i>
    <i name="e_wo_entrp">   -356.43409755 </i>
    <i name="e_0_energy">   -356.42414702 </i>
   </energy>
  </scstep>
  <scstep>
   <time name="diag">    0.17    0.17</time>
   <time name="diis">    0.50    0.51</time>
   <time name="orth">    0.01    0.01</time>
   <time name="total">    0.73    0.80</time>
   <energy>
    <i name="alphaZ">   1667.49866614 </i>
    <i name="ewald"> -23225.49978840 </i>
    <i name="hartreedc">  -6988.02331106 </i>
    <i name="XCdc">     98.42840634 </i>
    <i name="pawpsdc">  37685.74726491 </i>
    <i name="pawaedc"> -36217.17762525 </i>
    <i name="eentropy">      0.01492190 </i>
    <i name="bandstr">  -3151.70947258 </i>
    <i name="atom">  29774.30176097 </i>
    <i name="e_fr_energy">   -356.41917702 </i>
    <i name="e_wo_entrp">   -356.43409893 </i>
    <i name="e_0_energy">   -356.42415099 </i>
   </energy>
  </scstep>
  <structure>
   <crystal>
    <varray name="basis" >
     <v>       6.94401811      -0.00028293      -0.00536125 </v>
     <v>      -0.00072758      10.32129545       0.00653559 </v>
     <v>      -0.00724332       0.00607010      10.19967003 </v>
    </varray>
    <i name="volume">    731.02255012 </i>
    <varray name="rec_basis" >
     <v>       0.14400892       0.00001009       0.00010226 </v>
     <v>       0.00000390       0.09688710      -0.00005766 </v>
     <v>       0.00007569      -0.00006208       0.09804248 </v>
    </varray>
   </crystal>
   <varray name="positions" >
    <v>       0.73448185       0.50510865       0.17312836 </v>
    <v>       0.51048695       0.66846151       0.98933564 </v>
    <v>       0.26462884       0.17953158       0.17227000 </v>
    <v>       0.02941330       0.00280114       0.32098150 </v>
    <v>       0.02566194       0.97638119       0.68090023 </v>
    <v>       0.75073151       0.49641068       0.49143191 </v>
    <v>       0.49712490       0.34407351       0.65524369 </v>
    <v>       0.51179347       0.66763826       0.34974231 </v>
    <v>       0.76352259       0.16987495       0.50294405 </v>
    <v>       0.24956166       0.17957207       0.82594550 </v>
    <v>       0.75467898       0.17066540       0.82209869 </v>
    <v>       0.00550741       0.00073278       0.00228007 </v>
    <v>       0.23079963       0.17731248       0.50372254 </v>
    <v>       0.26311130       0.50537408       0.17363123 </v>
    <v>       0.50326438       0.99503753       0.99457181 </v>
    <v>       0.73757193       0.16953522       0.17521560 </v>
    <v>       0.47430495       0.99785688       0.34160602 </v>
    <v>       0.73223091       0.48569421       0.83362181 </v>
    <v>       0.49532535       0.66880980       0.66289859 </v>
    <v>       0.50389333       0.33479812       0.33553134 </v>
    <v>       0.26371752       0.49111599       0.83134223 </v>
    <v>       0.99235493       0.33605745       0.31445987 </v>
    <v>       0.99875636       0.35844262       0.66873565 </v>
    <v>       0.98498227       0.66154890       0.33931376 </v>
    <v>       0.22382104       0.82850889       0.49177298 </v>
    <v>       0.25499542       0.82649715       0.84689494 </v>
    <v>       0.49307076       0.33557622       0.00488296 </v>
    <v>       0.75095094       0.83666870       0.82734949 </v>
    <v>       0.00364581       0.33823313       0.01124731 </v>
    <v>       0.99175382       0.65963604       0.98769973 </v>
    <v>       0.25386924       0.81528050       0.16863491 </v>
    <v>       0.47972299       0.98846003       0.66871458 </v>
    <v>       0.75267944       0.82346450       0.17674600 </v>
    <v>       0.77334099       0.84396967       0.49433051 </v>
    <v>       0.24153808       0.49497655       0.48872395 </v>
    <v>       0.00271417       0.66589662       0.67205426 </v>
   </varray>
  </structure>
  <varray name="forces" >
   <v>       0.00464305       0.01972840      -0.01871118 </v>
   <v>       0.01292371      -0.00275786       0.01148068 </v>
   <v>      -0.01217275      -0.00707796      -0.01340051 </v>
   <v>      -0.05745180       0.03423329       0.04421307 </v>
   <v>      -0.03635051       0.05463923      -0.02274860 </v>
   <v>      -0.01320157      -0.05184749       0.01082182 </v>
   <v>       0.04061021      -0.00350577      -0.00503928 </v>
   <v>      -0.03465934      -0.00496453       0.00419447 </v>
   <v>       0.04482800       0.03700652      -0.01130855 </v>
   <v>      -0.01262296      -0.00367549       0.00470492 </v>
   <v>      -0.01604452       0.01024195      -0.04260607 </v>
   <v>       0.00961856      -0.00488416       0.01739777 </v>
   <v>      -0.05022101       0.00304865      -0.03088613 </v>
   <v>      -0.00462686       0.04602664      -0.02028954 </v>
   <v>      -0.00805411      -0.00538359      -0.00946271 </v>
   <v>      -0.00027241       0.01534856       0.01606196 </v>
   <v>       0.05183788       0.01219168       0.02174072 </v>
   <v>       0.01971366       0.00707574      -0.00545060 </v>
   <v>      -0.00033678      -0.01570050      -0.00285697 </v>
   <v>       0.05997591      -0.02769801       0.02915662 </v>
   <v>      -0.01866292       0.02861003       0.03981345 </v>
   <v>      -0.04296054      -0.04668688       0.02881530 </v>
   <v>      -0.01648339      -0.04321447      -0.01646359 </v>
   <v>       0.04232589      -0.00922032      -0.01671701 </v>
   <v>       0.00633935       0.00666157      -0.01435629 </v>
   <v>       0.01793744      -0.03697159       0.04867925 </v>
   <v>       0.00040780      -0.00669302      -0.01922941 </v>
   <v>       0.00534599      -0.00847802       0.00364019 </v>
   <v>       0.01574281       0.00636489       0.00424960 </v>
   <v>      -0.00971495      -0.00810503       0.01160870 </v>
[...]
       <r>    7.2653    1.0000 </r>
       <r>    7.2899    1.0000 </r>
       <r>    7.3679    1.0000 </r>
       <r>    7.4065    1.0000 </r>
       <r>    7.4363    1.0000 </r>
       <r>    7.4961    1.0002 </r>
       <r>    7.5240    1.0005 </r>
       <r>    7.5610    1.0015 </r>
       <r>    7.5985    1.0041 </r>
       <r>    7.6314    1.0088 </r>
       <r>    7.6652    1.0166 </r>
       <r>    7.6942    1.0253 </r>
       <r>    7.7392    1.0353 </r>
       <r>    7.7718    1.0284 </r>
       <r>    7.7940    1.0090 </r>
       <r>    7.8310    0.9373 </r>
       <r>    7.8492    0.8805 </r>
       <r>    7.8851    0.7267 </r>
       <r>    7.9181    0.5507 </r>
       <r>    7.9509    0.3671 </r>
       <r>    8.0131    0.0921 </r>
       <r>    8.0400    0.0229 </r>
       <r>    8.0635   -0.0130 </r>
       <r>    8.0932   -0.0330 </r>
       <r>    8.1279   -0.0337 </r>
       <r>    8.1600   -0.0253 </r>
       <r>    8.1901   -0.0163 </r>
       <r>    8.2259   -0.0082 </r>
       <r>    8.2669   -0.0031 </r>
       <r>    8.2960   -0.0014 </r>
       <r>    8.3349   -0.0004 </r>
       <r>    8.3599   -0.0002 </r>
       <r>    8.4024   -0.0000 </r>
       <r>    8.4283   -0.0000 </r>
       <r>    8.4773   -0.0000 </r>
       <r>    8.5549   -0.0000 </r>
       <r>    8.6168   -0.0000 </r>
       <r>    8.6430   -0.0000 </r>
       <r>    8.7473   -0.0000 </r>
       <r>    8.8038   -0.0000 </r>
       <r>    8.8644   -0.0000 </r>
       <r>    9.1102   -0.0000 </r>
       <r>    9.1932   -0.0000 </r>
       <r>    9.2332   -0.0000 </r>
       <r>    9.8254   -0.0000 </r>
       <r>    9.8685   -0.0000 </r>
       <r>    9.9379   -0.0000 </r>
       <r>    9.9736   -0.0000 </r>
       <r>    9.9925   -0.0000 </r>
      </set>
     </set>
    </set>
   </array>
  </eigenvalues>
  <separator name="orbital magnetization" >
   <v name="MAGDIPOLOUT">      0.00000000      0.00000000      0.00000000</v>
  </separator>
  <dos>
   <i name="efermi">      7.92704706 </i>
   <total>
    <array>
     <dimension dim="1">gridpoints</dimension>
     <dimension dim="2">spin</dimension>
     <field>energy</field>
     <field>total</field>
     <field>integrated</field>
     <set>
      <set comment="spin 1">
       <r>   -49.1352     0.0000     0.0000 </r>
       <r>   -48.9285     0.0000     0.0000 </r>
       <r>   -48.7219     0.0000     0.0000 </r>
       <r>   -48.5152     0.0000     0.0000 </r>
       <r>   -48.3086     0.0000     0.0000 </r>
       <r>   -48.1020     0.0000     0.0000 </r>
       <r>   -47.8953     0.0000     0.0000 </r>
       <r>   -47.6887    -0.0000    -0.0000 </r>
       <r>   -47.4820    -0.0000    -0.0000 </r>
       <r>   -47.2754    -0.0000    -0.0000 </r>
       <r>   -47.0687    -0.0000    -0.0000 </r>
       <r>   -46.8621    -0.0000    -0.0000 </r>
       <r>   -46.6555    -0.0572    -0.0118 </r>
       <r>   -46.4488    -1.6729    -0.3575 </r>
       <r>   -46.2422    36.6298     7.2118 </r>
       <r>   -46.0355    52.2608    18.0111 </r>
       <r>   -45.8289     0.1691    18.0460 </r>
       <r>   -45.6222    -0.2224    18.0001 </r>
       <r>   -45.4156    -0.0003    18.0000 </r>
       <r>   -45.2090    -0.0000    18.0000 </r>
       <r>   -45.0023    -0.0000    18.0000 </r>
       <r>   -44.7957     0.0000    18.0000 </r>
       <r>   -44.5890     0.0000    18.0000 </r>
       <r>   -44.3824     0.0000    18.0000 </r>
       <r>   -44.1757     0.0000    18.0000 </r>
       <r>   -43.9691     0.0000    18.0000 </r>
       <r>   -43.7625     0.0000    18.0000 </r>
       <r>   -43.5558     0.0000    18.0000 </r>
       <r>   -43.3492     0.0000    18.0000 </r>
       <r>   -43.1425     0.0000    18.0000 </r>
       <r>   -42.9359     0.0000    18.0000 </r>
       <r>   -42.7292     0.0000    18.0000 </r>
       <r>   -42.5226     0.0000    18.0000 </r>
       <r>   -42.3160     0.0000    18.0000 </r>
       <r>   -42.1093     0.0000    18.0000 </r>
       <r>   -41.9027     0.0000    18.0000 </r>
       <r>   -41.6960    -0.0000    18.0000 </r>
       <r>   -41.4894    -0.0000    18.0000 </r>
       <r>   -41.2827    -0.0000    18.0000 </r>
       <r>   -41.0761    -0.0000    18.0000 </r>
       <r>   -40.8695    -0.0003    17.9999 </r>
       <r>   -40.6628    -0.2096    17.9566 </r>
       <r>   -40.4562     0.2232    18.0027 </r>
       <r>   -40.2495    47.2073    27.7578 </r>
       <r>   -40.0429    52.9837    38.7065 </r>
       <r>   -39.8362     6.7274    40.0966 </r>
       <r>   -39.6296    -0.4540    40.0028 </r>
       <r>   -39.4230    -0.0137    40.0000 </r>
       <r>   -39.2163    -0.0000    40.0000 </r>
       <r>   -39.0097    -0.0000    40.0000 </r>
       <r>   -38.8030     0.0000    40.0000 </r>
       <r>   -38.5964     0.0000    40.0000 </r>
       <r>   -38.3897     0.0000    40.0000 </r>
       <r>   -38.1831     0.0000    40.0000 </r>
       <r>   -37.9765     0.0000    40.0000 </r>
       <r>   -37.7698     0.0000    40.0000 </r>
       <r>   -37.5632     0.0000    40.0000 </r>
       <r>   -37.3565     0.0000    40.0000 </r>
       <r>   -37.1499     0.0000    40.0000 </r>
       <r>   -36.9432     0.0000    40.0000 </r>
       <r>   -36.7366     0.0000    40.0000 </r>
       <r>   -36.5300     0.0000    40.0000 </r>
       <r>   -36.3233     0.0000    40.0000 </r>
       <r>   -36.1167     0.0000    40.0000 </r>
       <r>   -35.9100     0.0000    40.0000 </r>
       <r>   -35.7034     0.0000    40.0000 </r>
       <r>   -35.4968     0.0000    40.0000 </r>
       <r>   -35.2901     0.0000    40.0000 </r>
       <r>   -35.0835     0.0000    40.0000 </r>
       <r>   -34.8768     0.0000    40.0000 </r>
       <r>   -34.6702     0.0000    40.0000 </r>
       <r>   -34.4635     0.0000    40.0000 </r>
       <r>   -34.2569     0.0000    40.0000 </r>
       <r>   -34.0503     0.0000    40.0000 </r>
       <r>   -33.8436     0.0000    40.0000 </r>
       <r>   -33.6370     0.0000    40.0000 </r>
       <r>   -33.4303     0.0000    40.0000 </r>
       <r>   -33.2237     0.0000    40.0000 </r>
       <r>   -33.0170     0.0000    40.0000 </r>
       <r>   -32.8104     0.0000    40.0000 </r>
       <r>   -32.6038     0.0000    40.0000 </r>
       <r>   -32.3971     0.0000    40.0000 </r>
       <r>   -32.1905     0.0000    40.0000 </r>
       <r>   -31.9838     0.0000    40.0000 </r>
       <r>   -31.7772     0.0000    40.0000 </r>
       <r>   -31.5705     0.0000    40.0000 </r>
       <r>   -31.3639     0.0000    40.0000 </r>
       <r>   -31.1573     0.0000    40.0000 </r>
       <r>   -30.9506     0.0000    40.0000 </r>
       <r>   -30.7440     0.0000    40.0000 </r>
       <r>   -30.5373     0.0000    40.0000 </r>
       <r>   -30.3307     0.0000    40.0000 </r>
       <r>   -30.1240     0.0000    40.0000 </r>
       <r>   -29.9174     0.0000    40.0000 </r>
       <r>   -29.7108     0.0000    40.0000 </r>
       <r>   -29.5041     0.0000    40.0000 </r>
       <r>   -29.2975     0.0000    40.0000 </r>
       <r>   -29.0908     0.0000    40.0000 </r>
       <r>   -28.8842     0.0000    40.0000 </r>
       <r>   -28.6775     0.0000    40.0000 </r>
       <r>   -28.4709     0.0000    40.0000 </r>
       <r>   -28.2643     0.0000    40.0000 </r>
       <r>   -28.0576     0.0000    40.0000 </r>
       <r>   -27.8510     0.0000    40.0000 </r>
       <r>   -27.6443     0.0000    40.0000 </r>
       <r>   -27.4377     0.0000    40.0000 </r>
       <r>   -27.2310     0.0000    40.0000 </r>
       <r>   -27.0244     0.0000    40.0000 </r>
       <r>   -26.8178     0.0000    40.0000 </r>
       <r>   -26.6111     0.0000    40.0000 </r>
       <r>   -26.4045     0.0000    40.0000 </r>
       <r>   -26.1978     0.0000    40.0000 </r>
       <r>   -25.9912     0.0000    40.0000 </r>
       <r>   -25.7845     0.0000    40.0000 </r>
       <r>   -25.5779     0.0000    40.0000 </r>
       <r>   -25.3713     0.0000    40.0000 </r>
       <r>   -25.1646     0.0000    40.0000 </r>
       <r>   -24.9580     0.0000    40.0000 </r>
       <r>   -24.7513     0.0000    40.0000 </r>
       <r>   -24.5447     0.0000    40.0000 </r>
       <r>   -24.3380     0.0000    40.0000 </r>
       <r>   -24.1314     0.0000    40.0000 </r>
       <r>   -23.9248    -0.0000    40.0000 </r>
       <r>   -23.7181    -0.0000    40.0000 </r>
       <r>   -23.5115    -0.0000    40.0000 </r>
       <r>   -23.3048    -0.0000    40.0000 </r>
       <r>   -23.0982    -0.0012    39.9997 </r>
       <r>   -22.8915    -0.3556    39.9263 </r>
       <r>   -22.6849     2.5495    40.4531 </r>
       <r>   -22.4783    43.9617    49.5375 </r>
       <r>   -22.2716   147.4124    79.9992 </r>
       <r>   -22.0650    62.8480    92.9863 </r>
       <r>   -21.8583     5.5102    94.1249 </r>
       <r>   -21.6517    -0.6013    94.0006 </r>
       <r>   -21.4450    -0.0031    94.0000 </r>
       <r>   -21.2384    -0.0000    94.0000 </r>
       <r>   -21.0318    -0.0000    94.0000 </r>
       <r>   -20.8251     0.0000    94.0000 </r>
       <r>   -20.6185     0.0000    94.0000 </r>
       <r>   -20.4118     0.0000    94.0000 </r>
       <r>   -20.2052     0.0000    94.0000 </r>
       <r>   -19.9985    -0.0000    94.0000 </r>
       <r>   -19.7919    -0.0000    94.0000 </r>
       <r>   -19.5853    -0.0000    94.0000 </r>
       <r>   -19.3786    -0.0000    94.0000 </r>
       <r>   -19.1720    -0.0003    93.9999 </r>
       <r>   -18.9653    -0.2170    93.9551 </r>
       <r>   -18.7587     0.1004    93.9758 </r>
       <r>   -18.5521    48.0029   103.8953 </r>
       <r>   -18.3454    96.3741   123.8103 </r>
       <r>   -18.1388   118.1742   148.2301 </r>
       <r>   -17.9321    58.8308   160.3871 </r>
       <r>   -17.7255    -1.7144   160.0328 </r>
       <r>   -17.5188    -0.1587   160.0000 </r>
       <r>   -17.3122    -0.0001   160.0000 </r>
       <r>   -17.1056    -0.0000   160.0000 </r>
       <r>   -16.8989     0.0000   160.0000 </r>
       <r>   -16.6923     0.0000   160.0000 </r>
       <r>   -16.4856     0.0000   160.0000 </r>
       <r>   -16.2790     0.0000   160.0000 </r>
       <r>   -16.0723     0.0000   160.0000 </r>
       <r>   -15.8657     0.0000   160.0000 </r>
       <r>   -15.6591     0.0000   160.0000 </r>
       <r>   -15.4524     0.0000   160.0000 </r>
       <r>   -15.2458     0.0000   160.0000 </r>
       <r>   -15.0391     0.0000   160.0000 </r>
       <r>   -14.8325     0.0000   160.0000 </r>
       <r>   -14.6258     0.0000   160.0000 </r>
       <r>   -14.4192     0.0000   160.0000 </r>
       <r>   -14.2126     0.0000   160.0000 </r>
       <r>   -14.0059     0.0000   160.0000 </r>
       <r>   -13.7993     0.0000   160.0000 </r>
       <r>   -13.5926     0.0000   160.0000 </r>
       <r>   -13.3860     0.0000   160.0000 </r>
       <r>   -13.1793     0.0000   160.0000 </r>
       <r>   -12.9727     0.0000   160.0000 </r>
       <r>   -12.7661     0.0000   160.0000 </r>
       <r>   -12.5594     0.0000   160.0000 </r>
       <r>   -12.3528     0.0000   160.0000 </r>
       <r>   -12.1461     0.0000   160.0000 </r>
       <r>   -11.9395     0.0000   160.0000 </r>
       <r>   -11.7328     0.0000   160.0000 </r>
       <r>   -11.5262     0.0000   160.0000 </r>
       <r>   -11.3196     0.0000   160.0000 </r>
       <r>   -11.1129     0.0000   160.0000 </r>
       <r>   -10.9063     0.0000   160.0000 </r>
       <r>   -10.6996     0.0000   160.0000 </r>
       <r>   -10.4930     0.0000   160.0000 </r>
       <r>   -10.2863     0.0000   160.0000 </r>
       <r>   -10.0797     0.0000   160.0000 </r>
       <r>    -9.8731     0.0000   160.0000 </r>
       <r>    -9.6664     0.0000   160.0000 </r>
       <r>    -9.4598     0.0000   160.0000 </r>
       <r>    -9.2531     0.0000   160.0000 </r>
       <r>    -9.0465     0.0000   160.0000 </r>
       <r>    -8.8398     0.0000   160.0000 </r>
       <r>    -8.6332     0.0000   160.0000 </r>
       <r>    -8.4266     0.0000   160.0000 </r>
       <r>    -8.2199     0.0000   160.0000 </r>
       <r>    -8.0133     0.0000   160.0000 </r>
       <r>    -7.8066     0.0000   160.0000 </r>
       <r>    -7.6000     0.0000   160.0000 </r>
       <r>    -7.3933     0.0000   160.0000 </r>
       <r>    -7.1867     0.0000   160.0000 </r>
       <r>    -6.9801     0.0000   160.0000 </r>
       <r>    -6.7734     0.0000   160.0000 </r>
       <r>    -6.5668     0.0000   160.0000 </r>
       <r>    -6.3601     0.0000   160.0000 </r>
       <r>    -6.1535     0.0000   160.0000 </r>
       <r>    -5.9468     0.0000   160.0000 </r>
       <r>    -5.7402     0.0000   160.0000 </r>
       <r>    -5.5336     0.0000   160.0000 </r>
       <r>    -5.3269     0.0000   160.0000 </r>
       <r>    -5.1203     0.0000   160.0000 </r>
       <r>    -4.9136     0.0000   160.0000 </r>
       <r>    -4.7070     0.0000   160.0000 </r>
       <r>    -4.5003     0.0000   160.0000 </r>
       <r>    -4.2937     0.0000   160.0000 </r>
       <r>    -4.0871     0.0000   160.0000 </r>
       <r>    -3.8804     0.0000   160.0000 </r>
       <r>    -3.6738     0.0000   160.0000 </r>
       <r>    -3.4671     0.0000   160.0000 </r>
       <r>    -3.2605     0.0000   160.0000 </r>
       <r>    -3.0538     0.0000   160.0000 </r>
       <r>    -2.8472     0.0000   160.0000 </r>
       <r>    -2.6406     0.0000   160.0000 </r>
       <r>    -2.4339     0.0000   160.0000 </r>
       <r>    -2.2273     0.0000   160.0000 </r>
       <r>    -2.0206     0.0000   160.0000 </r>
       <r>    -1.8140     0.0000   160.0000 </r>
       <r>    -1.6074     0.0000   160.0000 </r>
       <r>    -1.4007     0.0000   160.0000 </r>
       <r>    -1.1941     0.0000   160.0000 </r>
       <r>    -0.9874     0.0000   160.0000 </r>
       <r>    -0.7808     0.0000   160.0000 </r>
       <r>    -0.5741     0.0000   160.0000 </r>
       <r>    -0.3675     0.0000   160.0000 </r>
       <r>    -0.1609     0.0000   160.0000 </r>
       <r>     0.0458    -0.0000   160.0000 </r>
       <r>     0.2524    -0.0000   160.0000 </r>
       <r>     0.4591    -0.0000   160.0000 </r>
       <r>     0.6657    -0.0000   160.0000 </r>
       <r>     0.8724    -0.0000   160.0000 </r>
       <r>     1.0790    -0.0045   159.9991 </r>
       <r>     1.2856     0.0421   160.0078 </r>
       <r>     1.4923     0.4653   160.1039 </r>
       <r>     1.6989     1.4178   160.3969 </r>
       <r>     1.9056     1.7721   160.7631 </r>
       <r>     2.1122     2.5402   161.2880 </r>
       <r>     2.3189     3.8653   162.0867 </r>
       <r>     2.5255     2.8543   162.6766 </r>
       <r>     2.7321     2.7352   163.2418 </r>
       <r>     2.9388     5.3637   164.3501 </r>
       <r>     3.1454     3.7286   165.1206 </r>
       <r>     3.3521     6.0211   166.3649 </r>
       <r>     3.5587     8.3605   168.0925 </r>
       <r>     3.7654     7.6530   169.6739 </r>
       <r>     3.9720     8.4277   171.4155 </r>
       <r>     4.1786    10.1630   173.5156 </r>
       <r>     4.3853    14.8028   176.5745 </r>
       <r>     4.5919    20.4835   180.8072 </r>
       <r>     4.7986    21.0908   185.1655 </r>
       <r>     5.0052    30.6102   191.4908 </r>
       <r>     5.2119    32.1724   198.1391 </r>
       <r>     5.4185    40.1231   206.4302 </r>
       <r>     5.6251    43.1408   215.3449 </r>
       <r>     5.8318    39.3203   223.4702 </r>
       <r>     6.0384    34.4251   230.5839 </r>
       <r>     6.2451    34.2044   237.6520 </r>
       <r>     6.4517    17.0287   241.1708 </r>
       <r>     6.6584    37.3524   248.8894 </r>
       <r>     6.8650    64.5540   262.2290 </r>
       <r>     7.0716    59.9224   274.6116 </r>
       <r>     7.2783    54.8168   285.9390 </r>
       <r>     7.4849    52.3921   296.7655 </r>
       <r>     7.6916    56.7368   308.4897 </r>
       <r>     7.8982    53.6889   319.5841 </r>
       <r>     8.1049    48.8551   329.6797 </r>
       <r>     8.3115    52.9269   340.6166 </r>
       <r>     8.5181    45.9688   350.1158 </r>
       <r>     8.7248    34.3640   357.2168 </r>
       <r>     8.9314    26.2726   362.6459 </r>
       <r>     9.1381    23.0836   367.4159 </r>
       <r>     9.3447    15.7971   370.6803 </r>
       <r>     9.5514    12.6387   373.2920 </r>
       <r>     9.7580    22.9314   378.0306 </r>
       <r>     9.9646    22.7153   382.7245 </r>
       <r>    10.1713     6.5716   384.0825 </r>
       <r>    10.3779    -0.3905   384.0018 </r>
       <r>    10.5846    -0.0087   384.0000 </r>
       <r>    10.7912    -0.0000   384.0000 </r>
       <r>    10.9979    -0.0000   384.0000 </r>
       <r>    11.2045     0.0000   384.0000 </r>
       <r>    11.4111     0.0000   384.0000 </r>
       <r>    11.6178     0.0000   384.0000 </r>
       <r>    11.8244     0.0000   384.0000 </r>
       <r>    12.0311     0.0000   384.0000 </r>
       <r>    12.2377     0.0000   384.0000 </r>
       <r>    12.4444     0.0000   384.0000 </r>
       <r>    12.6510     0.0000   384.0000 </r>
       <r>    12.8576     0.0000   384.0000 </r>
      </set>
     </set>
    </array>
   </total>
  </dos>
 </calculation>
 <structure name="finalpos" >
  <crystal>
   <varray name="basis" >
    <v>       6.94619430       0.00232731      -0.00179266 </v>
    <v>       0.00315613      10.32299093       0.01050681 </v>
    <v>      -0.00200618       0.01000333      10.19034127 </v>
   </varray>
   <i name="volume">    730.70268089 </i>
   <varray name="rec_basis" >
    <v>       0.14396375      -0.00004404       0.00002839 </v>
    <v>      -0.00003248       0.09687126      -0.00009510 </v>
    <v>       0.00002536      -0.00009989       0.09813224 </v>
   </varray>
  </crystal>
  <varray name="positions" >
   <v>       0.73417162       0.50554580       0.17352313 </v>
   <v>       0.51431598       0.66806869       0.98966984 </v>
   <v>       0.26411850       0.17897146       0.17235668 </v>
   <v>       0.02708092       0.00337492       0.32090128 </v>
   <v>       0.02523917       0.97705980       0.68073719 </v>
   <v>       0.75122623       0.49610796       0.49158379 </v>
   <v>       0.49725314       0.34441264       0.65525483 </v>
   <v>       0.50982880       0.66807646       0.35052403 </v>
   <v>       0.76445852       0.17030398       0.50322765 </v>
   <v>       0.24936645       0.17944242       0.82558397 </v>
   <v>       0.75382062       0.17090936       0.82188488 </v>
   <v>       0.00578476       0.00041711       0.00279158 </v>
   <v>       0.22998061       0.17721246       0.50292119 </v>
   <v>       0.26368198       0.50549681       0.17361181 </v>
   <v>       0.50284497       0.99522640       0.99393148 </v>
   <v>       0.73654466       0.17018659       0.17432039 </v>
   <v>       0.47543402       0.99821905       0.34219776 </v>
   <v>       0.73358327       0.48538549       0.83270333 </v>
   <v>       0.49512671       0.66808444       0.66263704 </v>
   <v>       0.50508350       0.33430468       0.33612028 </v>
   <v>       0.26332443       0.49140067       0.83204108 </v>
   <v>       0.99083460       0.33539334       0.31455703 </v>
   <v>       0.99900546       0.35737029       0.66843317 </v>
   <v>       0.98722571       0.66192512       0.33841279 </v>
   <v>       0.22322887       0.82889032       0.49106638 </v>
   <v>       0.25570635       0.82527750       0.84874016 </v>
   <v>       0.49162783       0.33582282       0.00391242 </v>
   <v>       0.75160416       0.83675442       0.82641368 </v>
   <v>       0.00457051       0.33876106       0.01136717 </v>
   <v>       0.98955311       0.65962702       0.98882582 </v>
   <v>       0.25542539       0.81561687       0.16783994 </v>
   <v>       0.48016811       0.98844891       0.66858718 </v>
   <v>       0.75159765       0.82367253       0.17769814 </v>
   <v>       0.77286378       0.84376366       0.49500176 </v>
   <v>       0.24058876       0.49472879       0.48838435 </v>
   <v>       0.00373983       0.66574315       0.67224081 </v>
  </varray>
 </structure>
</modeling>
