<?xml version="1.0" encoding="ISO-8859-1"?>
<modeling>
 <generator>
  <i name="program" type="string">vasp </i>
  <i name="version" type="string">5.4.1  </i>
  <i name="subversion" type="string">05Feb16 (build Jan 29 2020 16:04:39) complex                          parallel </i>
  <i name="platform" type="string">IFC91_ompi </i>
  <i name="date" type="string">2020 06 15 </i>
  <i name="time" type="string">10:34:42 </i>
 </generator>
 <incar>
  <i type="string" name="SYSTEM"> automatically generated by mexm</i>
  <i type="int" name="ISTART">     0</i>
  <i type="string" name="PREC">accurate               ! avoid wrap aro</i>
  <i type="string" name="ALGO"> Fast                   ! blocked Davids</i>
  <i type="int" name="ISPIN">     1</i>
  <i type="int" name="ICHARG">     2</i>
  <i type="int" name="NELM">    70</i>
  <i type="int" name="IBRION">     2</i>
  <i name="EDIFF">      0.00001000</i>
  <i name="EDIFFG">     -0.01000000</i>
  <i type="int" name="NSW">   300</i>
  <i type="int" name="ISIF">     3</i>
  <i type="int" name="ISYM">     1</i>
  <i name="ENCUT">    300.00000000</i>
  <i name="POTIM">      0.15000000</i>
  <i type="string" name="LREAL"> Auto                  ! unpublished met</i>
  <i type="int" name="ISMEAR">     1</i>
  <i name="SIGMA">      0.15000000</i>
  <i type="logical" name="LWAVE"> F  </i>
  <i type="logical" name="LCHARG"> F  </i>
  <i type="logical" name="LVTOT"> F  </i>
  <v type="int" name="KPOINT_BSE">    -1     0     0     0</v>
  <i type="int" name="NELM">    70</i>
 </incar>
 <kpoints>
  <generation param="Gamma">
   <v type="int" name="divisions">       3        3        3 </v>
   <v name="usershift">      0.00000000       0.00000000       0.00000000 </v>
   <v name="genvec1">      0.33333333      -0.00000000       0.00000000 </v>
   <v name="genvec2">      0.00000000       0.33333333       0.00000000 </v>
   <v name="genvec3">      0.00000000       0.00000000       0.33333333 </v>
   <v name="shift">      0.00000000       0.00000000       0.00000000 </v>
  </generation>
  <varray name="kpointlist" >
   <v>       0.00000000       0.00000000       0.00000000 </v>
   <v>       0.33333333       0.00000000       0.00000000 </v>
   <v>      -0.00000000       0.33333333       0.00000000 </v>
   <v>       0.33333333       0.33333333      -0.00000000 </v>
   <v>      -0.33333333       0.33333333       0.00000000 </v>
   <v>       0.00000000       0.00000000       0.33333333 </v>
   <v>       0.33333333      -0.00000000       0.33333333 </v>
   <v>      -0.33333333       0.00000000       0.33333333 </v>
   <v>      -0.00000000       0.33333333       0.33333333 </v>
   <v>       0.33333333       0.33333333       0.33333333 </v>
   <v>      -0.33333333       0.33333333       0.33333333 </v>
   <v>      -0.00000000      -0.33333333       0.33333333 </v>
   <v>       0.33333333      -0.33333333       0.33333333 </v>
   <v>      -0.33333333      -0.33333333       0.33333333 </v>
  </varray>
  <varray name="weights" >
   <v>       0.03703704 </v>
   <v>       0.07407407 </v>
   <v>       0.07407407 </v>
   <v>       0.07407407 </v>
   <v>       0.07407407 </v>
   <v>       0.07407407 </v>
   <v>       0.07407407 </v>
   <v>       0.07407407 </v>
   <v>       0.07407407 </v>
   <v>       0.07407407 </v>
   <v>       0.07407407 </v>
   <v>       0.07407407 </v>
   <v>       0.07407407 </v>
   <v>       0.07407407 </v>
  </varray>
 </kpoints>
 <parameters>
  <separator name="general" >
   <i type="string" name="SYSTEM">automatically generated by mexm</i>
   <i type="logical" name="LCOMPAT"> F  </i>
  </separator>
  <separator name="electronic" >
   <i type="string" name="PREC">accura</i>
   <i name="ENMAX">    300.00000000</i>
   <i name="ENAUG">    461.25700000</i>
   <i name="EDIFF">      0.00001000</i>
   <i type="int" name="IALGO">    68</i>
   <i type="int" name="IWAVPR">    11</i>
   <i type="int" name="NBANDS">   156</i>
   <i name="NELECT">    257.00000000</i>
   <i type="int" name="TURBO">     0</i>
   <i type="int" name="IRESTART">     0</i>
   <i type="int" name="NREBOOT">     0</i>
   <i type="int" name="NMIN">     0</i>
   <i name="EREF">      0.00000000</i>
   <separator name="electronic smearing" >
    <i type="int" name="ISMEAR">     1</i>
    <i name="SIGMA">      0.15000000</i>
    <i name="KSPACING">      0.50000000</i>
    <i type="logical" name="KGAMMA"> T  </i>
   </separator>
   <separator name="electronic projectors" >
    <i type="logical" name="LREAL"> T  </i>
    <v name="ROPT">     -0.00025000     -0.00025000     -0.00025000     -0.00025000</v>
    <i type="int" name="LMAXPAW">  -100</i>
    <i type="int" name="LMAXMIX">     2</i>
    <i type="logical" name="NLSPLINE"> F  </i>
   </separator>
   <separator name="electronic startup" >
    <i type="int" name="ISTART">     0</i>
    <i type="int" name="ICHARG">     2</i>
    <i type="int" name="INIWAV">     1</i>
   </separator>
   <separator name="electronic spin" >
    <i type="int" name="ISPIN">     1</i>
    <i type="logical" name="LNONCOLLINEAR"> F  </i>
    <v name="MAGMOM">      1.00000000      1.00000000      1.00000000      1.00000000      1.00000000      1.00000000      1.00000000      1.00000000      1.00000000      1.00000000      1.00000000      1.00000000      1.00000000      1.00000000      1.00000000      1.00000000      1.00000000      1.00000000      1.00000000      1.00000000
      1.00000000      1.00000000      1.00000000      1.00000000      1.00000000      1.00000000      1.00000000      1.00000000      1.00000000      1.00000000      1.00000000      1.00000000      1.00000000      1.00000000      1.00000000      1.00000000</v>
    <i name="NUPDOWN">     -1.00000000</i>
    <i type="logical" name="LSORBIT"> F  </i>
    <v name="SAXIS">      0.00000000      0.00000000      1.00000000</v>
    <i type="logical" name="LSPIRAL"> F  </i>
    <v name="QSPIRAL">      0.00000000      0.00000000      0.00000000</v>
    <i type="logical" name="LZEROZ"> F  </i>
   </separator>
   <separator name="electronic exchange-correlation" >
    <i type="logical" name="LASPH"> F  </i>
    <i type="logical" name="LMETAGGA"> F  </i>
   </separator>
   <separator name="electronic convergence" >
    <i type="int" name="NELM">    70</i>
    <i type="int" name="NELMDL">    -5</i>
    <i type="int" name="NELMIN">     2</i>
    <i name="ENINI">    300.00000000</i>
    <separator name="electronic convergence detail" >
     <i type="logical" name="LDIAG"> T  </i>
     <i type="logical" name="LSUBROT"> F  </i>
     <i name="WEIMIN">      0.00100000</i>
     <i name="EBREAK">      0.00000002</i>
     <i name="DEPER">      0.30000000</i>
     <i type="int" name="NRMM">     4</i>
     <i name="TIME">      0.40000000</i>
    </separator>
   </separator>
   <separator name="electronic mixer" >
    <i name="AMIX">      0.40000000</i>
    <i name="BMIX">      1.00000000</i>
    <i name="AMIN">      0.10000000</i>
    <i name="AMIX_MAG">      1.60000000</i>
    <i name="BMIX_MAG">      1.00000000</i>
    <separator name="electronic mixer details" >
     <i type="int" name="IMIX">     4</i>
     <i type="logical" name="MIXFIRST"> F  </i>
     <i type="int" name="MAXMIX">   -45</i>
     <i name="WC">    100.00000000</i>
     <i type="int" name="INIMIX">     1</i>
     <i type="int" name="MIXPRE">     1</i>
     <i type="int" name="MREMOVE">     5</i>
    </separator>
   </separator>
   <separator name="electronic dipolcorrection" >
    <i type="logical" name="LDIPOL"> F  </i>
    <i type="logical" name="LMONO"> F  </i>
    <i type="int" name="IDIPOL">     0</i>
    <i name="EPSILON">      1.00000000</i>
    <v name="DIPOL">   -100.00000000   -100.00000000   -100.00000000</v>
    <i name="EFIELD">      0.00000000</i>
   </separator>
  </separator>
  <separator name="grids" >
   <i type="int" name="NGX">    40</i>
   <i type="int" name="NGY">    60</i>
   <i type="int" name="NGZ">    60</i>
   <i type="int" name="NGXF">    80</i>
   <i type="int" name="NGYF">   120</i>
   <i type="int" name="NGZF">   120</i>
   <i type="logical" name="ADDGRID"> F  </i>
  </separator>
  <separator name="ionic" >
   <i type="int" name="NSW">   300</i>
   <i type="int" name="IBRION">     2</i>
   <i type="int" name="ISIF">     3</i>
   <i name="PSTRESS">      0.00000000</i>
   <i name="EDIFFG">     -0.01000000</i>
   <i type="int" name="NFREE">     1</i>
   <i name="POTIM">      0.15000000</i>
   <i name="SMASS">     -3.00000000</i>
   <i name="SCALEE">      1.00000000</i>
  </separator>
  <separator name="ionic md" >
   <i name="TEBEG">      0.00010000</i>
   <i name="TEEND">      0.00010000</i>
   <i type="int" name="NBLOCK">     1</i>
   <i type="int" name="KBLOCK">   300</i>
   <i type="int" name="NPACO">   256</i>
   <i name="APACO">     16.00000000</i>
  </separator>
  <separator name="symmetry" >
   <i type="int" name="ISYM">     1</i>
   <i name="SYMPREC">      0.00001000</i>
  </separator>
  <separator name="dos" >
   <i type="logical" name="LORBIT"> F  </i>
   <v name="RWIGS">     -1.00000000     -1.00000000     -1.00000000     -1.00000000</v>
   <i type="int" name="NEDOS">   301</i>
   <i name="EMIN">     10.00000000</i>
   <i name="EMAX">    -10.00000000</i>
   <i name="EFERMI">      0.00000000</i>
  </separator>
  <separator name="writing" >
   <i type="int" name="NWRITE">     2</i>
   <i type="logical" name="LWAVE"> F  </i>
   <i type="logical" name="LCHARG"> F  </i>
   <i type="logical" name="LPARD"> F  </i>
   <i type="logical" name="LVTOT"> F  </i>
   <i type="logical" name="LVHAR"> F  </i>
   <i type="logical" name="LELF"> F  </i>
   <i type="logical" name="LOPTICS"> F  </i>
   <v name="STM">      0.00000000      0.00000000      0.00000000      0.00000000      0.00000000      0.00000000      0.00000000</v>
  </separator>
  <separator name="performance" >
   <i type="int" name="NPAR">     4</i>
   <i type="int" name="NSIM">     4</i>
   <i type="int" name="NBLK">    -1</i>
   <i type="logical" name="LPLANE"> T  </i>
   <i type="logical" name="LSCALAPACK"> T  </i>
   <i type="logical" name="LSCAAWARE"> F  </i>
   <i type="logical" name="LSCALU"> F  </i>
   <i type="logical" name="LASYNC"> F  </i>
   <i type="logical" name="LORBITALREAL"> F  </i>
  </separator>
  <separator name="miscellaneous" >
   <i type="int" name="IDIOT">     3</i>
   <i type="logical" name="LMUSIC"> F  </i>
   <v name="POMASS">    178.49000000    180.94800000     92.91000000     91.22400000</v>
   <v name="DARWINR">      0.00000000      0.00000000      0.00000000      0.00000000</v>
   <v name="DARWINV">      1.00000000      1.00000000      1.00000000      1.00000000</v>
   <i type="logical" name="LCORR"> T  </i>
  </separator>
  <i type="logical" name="GGA_COMPAT"> T  </i>
  <i type="logical" name="LBERRY"> F  </i>
  <i type="int" name="ICORELEVEL">     0</i>
  <i type="logical" name="LDAU"> F  </i>
  <i type="int" name="I_CONSTRAINED_M">     0</i>
  <separator name="electronic exchange-correlation" >
   <i type="string" name="GGA">--</i>
   <i type="int" name="VOSKOWN">     0</i>
   <i type="logical" name="LHFCALC"> F  </i>
   <i type="string" name="PRECFOCK"></i>
   <i type="logical" name="LSYMGRAD"> F  </i>
   <i type="logical" name="LHFONE"> F  </i>
   <i type="logical" name="LRHFCALC"> F  </i>
   <i type="logical" name="LTHOMAS"> F  </i>
   <i type="logical" name="LMODELHF"> F  </i>
   <i name="ENCUT4O">     -1.00000000</i>
   <i type="int" name="EXXOEP">     0</i>
   <i type="int" name="FOURORBIT">     0</i>
   <i name="AEXX">      0.00000000</i>
   <i name="HFALPHA">      0.00000000</i>
   <i name="MCALPHA">      0.00000000</i>
   <i name="ALDAX">      1.00000000</i>
   <i name="AGGAX">      1.00000000</i>
   <i name="ALDAC">      1.00000000</i>
   <i name="AGGAC">      1.00000000</i>
   <i type="int" name="NKREDX">     1</i>
   <i type="int" name="NKREDY">     1</i>
   <i type="int" name="NKREDZ">     1</i>
   <i type="logical" name="SHIFTRED"> F  </i>
   <i type="logical" name="ODDONLY"> F  </i>
   <i type="logical" name="EVENONLY"> F  </i>
   <i type="int" name="LMAXFOCK">     0</i>
   <i type="int" name="NMAXFOCKAE">     0</i>
   <i type="logical" name="LFOCKAEDFT"> F  </i>
   <i name="HFSCREEN">      0.00000000</i>
   <i name="HFSCREENC">      0.00000000</i>
   <i type="int" name="NBANDSGWLOW">     0</i>
  </separator>
  <separator name="vdW DFT" >
   <i type="logical" name="LUSE_VDW"> F  </i>
   <i name="Zab_VDW">     -0.84910000</i>
   <i name="PARAM1">      0.12340000</i>
   <i name="PARAM2">      1.00000000</i>
   <i name="PARAM3">      0.00000000</i>
  </separator>
  <separator name="model GW" >
   <i type="int" name="MODEL_GW">     0</i>
   <i name="MODEL_EPS0">     12.22266378</i>
   <i name="MODEL_ALPHA">      1.00000000</i>
  </separator>
  <separator name="linear response parameters" >
   <i type="logical" name="LEPSILON"> F  </i>
   <i type="logical" name="LRPA"> F  </i>
   <i type="logical" name="LNABLA"> F  </i>
   <i type="logical" name="LVEL"> F  </i>
   <i type="int" name="KINTER">     0</i>
   <i name="CSHIFT">      0.10000000</i>
   <i name="OMEGAMAX">     -1.00000000</i>
   <i name="DEG_THRESHOLD">      0.00200000</i>
  </separator>
  <separator name="orbital magnetization" >
   <i type="logical" name="NUCIND"> F  </i>
   <v name="MAGPOS">      0.00000000      0.00000000      0.00000000</v>
   <i type="logical" name="LNICSALL"> T  </i>
   <i type="logical" name="ORBITALMAG"> F  </i>
   <i type="logical" name="LMAGBLOCH"> F  </i>
   <i type="logical" name="LCHIMAG"> F  </i>
   <i type="logical" name="LGAUGE"> T  </i>
   <i type="int" name="MAGATOM">     0</i>
   <v name="MAGDIPOL">      0.00000000      0.00000000      0.00000000</v>
   <v name="AVECCONST">      0.00000000      0.00000000      0.00000000</v>
  </separator>
  <separator name="response functions" >
   <i type="logical" name="LADDER"> F  </i>
   <i type="logical" name="LFXC"> F  </i>
   <i type="logical" name="LHARTREE"> T  </i>
   <i type="int" name="IBSE">     0</i>
   <v type="int" name="KPOINT">    -1     0     0     0</v>
   <i type="logical" name="LTCTE"> F  </i>
   <i type="logical" name="LTETE"> F  </i>
   <i type="logical" name="LTRIPLET"> F  </i>
   <i type="logical" name="LFXCEPS"> F  </i>
   <i type="logical" name="LFXHEG"> F  </i>
   <i type="int" name="NATURALO">     0</i>
   <i type="logical" name="L2ORDER"> F  </i>
   <i type="logical" name="LUSEW"> F  </i>
   <i name="ENCUTGW">     -2.00000000</i>
   <i name="ENCUTGWSOFT">     -2.00000000</i>
   <i name="ENCUTLF">     -1.00000000</i>
   <i type="int" name="LMAXMP2">    -1</i>
   <i name="SCISSOR">      0.00000000</i>
   <i type="int" name="NOMEGA">     0</i>
   <i type="int" name="NOMEGAR">     0</i>
   <i type="int" name="NBANDSGW">    -1</i>
   <i type="int" name="NBANDSO">    -1</i>
   <i type="int" name="NBANDSV">    -1</i>
   <i type="int" name="NELM">    70</i>
   <i type="int" name="NELMHF">     1</i>
   <i type="int" name="DIM">     3</i>
   <i type="int" name="ANTIRES">     0</i>
   <i name="OMEGAMAX">    -30.00000000</i>
   <i name="OMEGAMIN">    -30.00000000</i>
   <i name="OMEGATL">   -200.00000000</i>
   <i type="int" name="OMEGAGRID">     0</i>
   <i name="CSHIFT">     -0.10000000</i>
   <i type="logical" name="SELFENERGY"> F  </i>
   <i type="logical" name="LSPECTRAL"> F  </i>
   <i type="logical" name="LSPECTRALGW"> F  </i>
   <i type="logical" name="LSINGLES"> F  </i>
   <i type="logical" name="LFERMIGW"> F  </i>
   <i type="logical" name="ODDONLYGW"> F  </i>
   <i type="logical" name="EVENONLYGW"> F  </i>
   <i type="int" name="NKREDLFX">     1</i>
   <i type="int" name="NKREDLFY">     1</i>
   <i type="int" name="NKREDLFZ">     1</i>
   <i type="int" name="MAXMEM">  1800</i>
   <i type="int" name="TELESCOPE">     0</i>
   <i type="int" name="TAUPAR">     1</i>
   <i type="int" name="OMEGAPAR">    -1</i>
   <i name="LAMBDA">      1.00000000</i>
  </separator>
  <separator name="External order field" >
   <i name="OFIELD_KAPPA">      0.00000000</i>
   <v name="OFIELD_K">      0.00000000      0.00000000      0.00000000</v>
   <i name="OFIELD_Q6_NEAR">      0.00000000</i>
   <i name="OFIELD_Q6_FAR">      0.00000000</i>
   <i name="OFIELD_A">      0.00000000</i>
  </separator>
 </parameters>
 <atominfo>
  <atoms>      36 </atoms>
  <types>       4 </types>
  <array name="atoms" >
   <dimension dim="1">ion</dimension>
   <field type="string">element</field>
   <field type="int">atomtype</field>
   <set>
    <rc><c>Hf</c><c>   1</c></rc>
    <rc><c>Hf</c><c>   1</c></rc>
    <rc><c>Hf</c><c>   1</c></rc>
    <rc><c>Hf</c><c>   1</c></rc>
    <rc><c>Hf</c><c>   1</c></rc>
    <rc><c>Hf</c><c>   1</c></rc>
    <rc><c>Hf</c><c>   1</c></rc>
    <rc><c>Hf</c><c>   1</c></rc>
    <rc><c>Hf</c><c>   1</c></rc>
    <rc><c>Hf</c><c>   1</c></rc>
    <rc><c>Hf</c><c>   1</c></rc>
    <rc><c>Hf</c><c>   1</c></rc>
    <rc><c>Ta</c><c>   2</c></rc>
    <rc><c>Ta</c><c>   2</c></rc>
    <rc><c>Ta</c><c>   2</c></rc>
    <rc><c>Ta</c><c>   2</c></rc>
    <rc><c>Ta</c><c>   2</c></rc>
    <rc><c>Ta</c><c>   2</c></rc>
    <rc><c>Ta</c><c>   2</c></rc>
    <rc><c>Ta</c><c>   2</c></rc>
    <rc><c>Ta</c><c>   2</c></rc>
    <rc><c>Ta</c><c>   2</c></rc>
    <rc><c>Ta</c><c>   2</c></rc>
    <rc><c>Ta</c><c>   2</c></rc>
    <rc><c>Nb</c><c>   3</c></rc>
    <rc><c>Nb</c><c>   3</c></rc>
    <rc><c>Nb</c><c>   3</c></rc>
    <rc><c>Nb</c><c>   3</c></rc>
    <rc><c>Nb</c><c>   3</c></rc>
    <rc><c>Zr</c><c>   4</c></rc>
    <rc><c>Zr</c><c>   4</c></rc>
    <rc><c>Zr</c><c>   4</c></rc>
    <rc><c>Zr</c><c>   4</c></rc>
    <rc><c>Zr</c><c>   4</c></rc>
    <rc><c>Zr</c><c>   4</c></rc>
    <rc><c>Zr</c><c>   4</c></rc>
   </set>
  </array>
  <array name="atomtypes" >
   <dimension dim="1">type</dimension>
   <field type="int">atomspertype</field>
   <field type="string">element</field>
   <field>mass</field>
   <field>valence</field>
   <field type="string">pseudopotential</field>
   <set>
    <rc><c>  12</c><c>Hf</c><c>    178.49000000</c><c>      4.00000000</c><c>  PAW_PBE Hf 20Jan2003                  </c></rc>
    <rc><c>  12</c><c>Ta</c><c>    180.94800000</c><c>      5.00000000</c><c>  PAW_PBE Ta 17Jan2003                  </c></rc>
    <rc><c>   5</c><c>Nb</c><c>     92.91000000</c><c>     13.00000000</c><c>  PAW_PBE Nb_sv 25May2007               </c></rc>
    <rc><c>   7</c><c>Zr</c><c>     91.22400000</c><c>     12.00000000</c><c>  PAW_PBE Zr_sv 04Jan2005               </c></rc>
   </set>
  </array>
 </atominfo>
 <structure name="initialpos" >
  <crystal>
   <varray name="basis" >
    <v>       6.99777087      -0.01702011       0.01996820 </v>
    <v>      -0.02457740      10.25540168       0.04364272 </v>
    <v>       0.02958567       0.04308403      10.21924142 </v>
   </varray>
   <i name="volume">    733.35982693 </i>
   <varray name="rec_basis" >
    <v>       0.14290467       0.00034424      -0.00041517 </v>
    <v>       0.00023835       0.09751191      -0.00041180 </v>
    <v>      -0.00028025      -0.00041711       0.09785719 </v>
   </varray>
  </crystal>
  <varray name="positions" >
   <v>       0.75984300       0.49726700       0.17150400 </v>
   <v>       0.24805800       0.82979900       0.83951200 </v>
   <v>       0.72673300       0.83023100       0.49209000 </v>
   <v>       0.73954900       0.49669700       0.83794700 </v>
   <v>       0.22336600       0.50469700       0.15561200 </v>
   <v>       0.01908800       0.67803700       0.34071100 </v>
   <v>       0.74165600       0.17547000       0.48720000 </v>
   <v>       0.45982200       0.33590500       0.32790100 </v>
   <v>       0.01653100       0.99807900       0.33351500 </v>
   <v>       0.50877700       0.67092600       0.00750900 </v>
   <v>       0.52667600       0.00844300       0.68465400 </v>
   <v>       0.98832800       0.00504300       0.67100300 </v>
   <v>       0.74266200       0.83048500       0.17470100 </v>
   <v>       0.26177600       0.16625200       0.50888900 </v>
   <v>       0.03521900       0.33027100       0.34624500 </v>
   <v>       0.26914700       0.49929100       0.83030900 </v>
   <v>       0.24725200       0.82796200       0.15048700 </v>
   <v>       0.49079800       0.32805500       0.67181700 </v>
   <v>       0.48076300       0.32531900       0.99390600 </v>
   <v>       0.27706900       0.50449300       0.50630100 </v>
   <v>       0.48088600       0.66568500       0.31538900 </v>
   <v>       0.50379800       0.99790600       0.00047700 </v>
   <v>       0.50273700       0.65824300       0.67928600 </v>
   <v>       0.75352600       0.82023600       0.83687400 </v>
   <v>       0.01372000       0.33329500       0.66387200 </v>
   <v>       0.24368000       0.16914100       0.15811100 </v>
   <v>       0.98179300       0.67773900       0.00389600 </v>
   <v>       0.73445300       0.18050800       0.84025000 </v>
   <v>       0.26842600       0.16138200       0.83184200 </v>
   <v>       0.73525500       0.49628200       0.49245400 </v>
   <v>       0.98920400       0.00078500       0.99899700 </v>
   <v>       0.01559100       0.32046800       0.98432200 </v>
   <v>       0.00631300       0.66234200       0.66041400 </v>
   <v>       0.47398700       0.00289100       0.31684900 </v>
   <v>       0.28391300       0.83229000       0.51259800 </v>
   <v>       0.74960500       0.17809000       0.17255600 </v>
  </varray>
 </structure>
 <calculation>
  <scstep>
   <time name="dav">    0.91    0.95</time>
   <time name="total">    1.30    1.54</time>
   <energy>
    <i name="alphaZ">   1286.02130027 </i>
    <i name="ewald"> -14820.71930983 </i>
    <i name="hartreedc">  -5514.82497430 </i>
    <i name="XCdc">   -804.59880849 </i>
    <i name="pawpsdc">  16951.39188451 </i>
    <i name="pawaedc"> -15130.78105618 </i>
    <i name="eentropy">     -0.00007737 </i>
    <i name="bandstr">    133.41141643 </i>
    <i name="atom">  19243.23461550 </i>
    <i name="e_fr_energy">   1343.13499054 </i>
    <i name="e_wo_entrp">   1343.13506791 </i>
    <i name="e_0_energy">   1343.13501633 </i>
   </energy>
  </scstep>
  <scstep>
   <time name="dav">    0.88    0.89</time>
   <time name="total">    0.88    0.97</time>
   <energy>
    <i name="e_fr_energy">   -150.75077332 </i>
    <i name="e_wo_entrp">   -150.74875799 </i>
    <i name="e_0_energy">   -150.75010155 </i>
   </energy>
  </scstep>
  <scstep>
   <time name="dav">    1.32    1.33</time>
   <time name="total">    1.32    1.35</time>
   <energy>
    <i name="e_fr_energy">   -356.65525144 </i>
    <i name="e_wo_entrp">   -356.65128888 </i>
    <i name="e_0_energy">   -356.65393059 </i>
   </energy>
  </scstep>
  <scstep>
   <time name="dav">    1.21    1.22</time>
   <time name="total">    1.21    1.23</time>
   <energy>
    <i name="e_fr_energy">   -381.24893641 </i>
    <i name="e_wo_entrp">   -381.24714724 </i>
    <i name="e_0_energy">   -381.24834002 </i>
   </energy>
  </scstep>
  <scstep>
   <time name="dav">    1.18    1.18</time>
   <time name="total">    1.21    1.23</time>
   <energy>
    <i name="e_fr_energy">   -383.60751794 </i>
    <i name="e_wo_entrp">   -383.60841834 </i>
    <i name="e_0_energy">   -383.60781807 </i>
   </energy>
  </scstep>
  <scstep>
   <time name="diag">    0.07    0.07</time>
   <time name="diis">    0.75    0.75</time>
   <time name="orth">    0.01    0.01</time>
   <time name="total">    0.92    0.94</time>
   <energy>
    <i name="e_fr_energy">   -373.49507933 </i>
    <i name="e_wo_entrp">   -373.50462128 </i>
    <i name="e_0_energy">   -373.49825998 </i>
   </energy>
  </scstep>
  <scstep>
   <time name="diag">    0.07    0.07</time>
   <time name="diis">    0.67    0.67</time>
   <time name="orth">    0.01    0.01</time>
   <time name="total">    0.82    0.84</time>
   <energy>
    <i name="e_fr_energy">   -374.53284946 </i>
    <i name="e_wo_entrp">   -374.54261939 </i>
    <i name="e_0_energy">   -374.53610610 </i>
   </energy>
  </scstep>
  <scstep>
   <time name="diag">    0.09    0.09</time>
   <time name="diis">    0.71    0.71</time>
   <time name="orth">    0.01    0.01</time>
   <time name="total">    0.88    0.90</time>
   <energy>
    <i name="e_fr_energy">   -368.74312943 </i>
    <i name="e_wo_entrp">   -368.75939066 </i>
    <i name="e_0_energy">   -368.74854984 </i>
   </energy>
  </scstep>
  <scstep>
   <time name="diag">    0.07    0.07</time>
   <time name="diis">    0.77    0.77</time>
   <time name="orth">    0.01    0.02</time>
   <time name="total">    0.99    1.02</time>
   <energy>
    <i name="e_fr_energy">   -368.35893358 </i>
    <i name="e_wo_entrp">   -368.37898543 </i>
    <i name="e_0_energy">   -368.36561753 </i>
   </energy>
  </scstep>
  <scstep>
   <time name="diag">    0.09    0.11</time>
   <time name="diis">    0.65    0.93</time>
   <time name="orth">    0.01    0.01</time>
   <time name="total">    0.84    1.21</time>
   <energy>
    <i name="e_fr_energy">   -368.32484526 </i>
    <i name="e_wo_entrp">   -368.34953251 </i>
    <i name="e_0_energy">   -368.33307435 </i>
   </energy>
  </scstep>
  <scstep>
   <time name="diag">    0.08    0.08</time>
   <time name="diis">    0.66    0.78</time>
   <time name="orth">    0.01    0.01</time>
   <time name="total">    0.83    0.97</time>
   <energy>
    <i name="e_fr_energy">   -368.29147499 </i>
    <i name="e_wo_entrp">   -368.31454650 </i>
    <i name="e_0_energy">   -368.29916550 </i>
   </energy>
  </scstep>
  <scstep>
   <time name="diag">    0.09    0.09</time>
   <time name="diis">    0.64    0.83</time>
   <time name="orth">    0.01    0.01</time>
   <time name="total">    0.80    1.01</time>
   <energy>
    <i name="e_fr_energy">   -368.29246596 </i>
    <i name="e_wo_entrp">   -368.31576735 </i>
    <i name="e_0_energy">   -368.30023309 </i>
   </energy>
  </scstep>
  <scstep>
   <time name="diag">    0.06    0.06</time>
   <time name="diis">    0.73    0.73</time>
   <time name="orth">    0.01    0.01</time>
   <time name="total">    0.88    0.91</time>
   <energy>
    <i name="e_fr_energy">   -368.28984370 </i>
    <i name="e_wo_entrp">   -368.31335742 </i>
    <i name="e_0_energy">   -368.29768161 </i>
   </energy>
  </scstep>
  <scstep>
   <time name="diag">    0.06    0.06</time>
   <time name="diis">    0.74    0.74</time>
   <time name="orth">    0.01    0.01</time>
   <time name="total">    0.90    0.94</time>
   <energy>
    <i name="e_fr_energy">   -368.29024548 </i>
    <i name="e_wo_entrp">   -368.31380685 </i>
    <i name="e_0_energy">   -368.29809927 </i>
   </energy>
  </scstep>
  <scstep>
   <time name="diag">    0.07    0.07</time>
   <time name="diis">    0.72    0.72</time>
   <time name="orth">    0.01    0.01</time>
   <time name="total">    0.87    0.90</time>
   <energy>
    <i name="e_fr_energy">   -368.29052620 </i>
    <i name="e_wo_entrp">   -368.31415792 </i>
    <i name="e_0_energy">   -368.29840344 </i>
   </energy>
  </scstep>
  <scstep>
   <time name="diag">    0.10    0.10</time>
   <time name="diis">    0.69    0.70</time>
   <time name="orth">    0.01    0.01</time>
   <time name="total">    0.89    0.91</time>
   <energy>
    <i name="e_fr_energy">   -368.29061904 </i>
    <i name="e_wo_entrp">   -368.31430388 </i>
    <i name="e_0_energy">   -368.29851399 </i>
   </energy>
  </scstep>
  <scstep>
   <time name="diag">    0.11    0.11</time>
   <time name="diis">    0.69    0.70</time>
   <time name="orth">    0.01    0.01</time>
   <time name="total">    0.90    0.92</time>
   <energy>
    <i name="e_fr_energy">   -368.29066265 </i>
    <i name="e_wo_entrp">   -368.31434248 </i>
    <i name="e_0_energy">   -368.29855593 </i>
   </energy>
  </scstep>
  <scstep>
   <time name="diag">    0.07    0.07</time>
   <time name="diis">    0.54    0.54</time>
   <time name="orth">    0.01    0.01</time>
   <time name="total">    0.74    0.76</time>
   <energy>
    <i name="e_fr_energy">   -368.29069279 </i>
    <i name="e_wo_entrp">   -368.31436280 </i>
    <i name="e_0_energy">   -368.29858280 </i>
   </energy>
  </scstep>
  <scstep>
   <time name="diag">    0.07    0.07</time>
   <time name="diis">    0.45    0.45</time>
   <time name="orth">    0.01    0.01</time>
   <time name="total">    0.59    0.61</time>
   <energy>
    <i name="e_fr_energy">   -368.29070726 </i>
    <i name="e_wo_entrp">   -368.31440114 </i>
    <i name="e_0_energy">   -368.29860522 </i>
   </energy>
  </scstep>
  <scstep>
   <time name="diag">    0.07    0.07</time>
   <time name="diis">    0.39    0.40</time>
   <time name="orth">    0.01    0.01</time>
   <time name="total">    0.51    0.53</time>
   <energy>
    <i name="alphaZ">   1286.02130027 </i>
    <i name="ewald"> -14820.71930983 </i>
    <i name="hartreedc">  -5331.41016578 </i>
    <i name="XCdc">   -798.04583602 </i>
    <i name="pawpsdc">  29042.74734740 </i>
    <i name="pawaedc"> -27216.12355456 </i>
    <i name="eentropy">      0.02369591 </i>
    <i name="bandstr">  -1774.01880360 </i>
    <i name="atom">  19243.23461550 </i>
    <i name="e_fr_energy">   -368.29071072 </i>
    <i name="e_wo_entrp">   -368.31440663 </i>
    <i name="e_0_energy">   -368.29860936 </i>
   </energy>
  </scstep>
  <structure>
   <crystal>
    <varray name="basis" >
     <v>       6.99777087      -0.01702011       0.01996820 </v>
     <v>      -0.02457740      10.25540168       0.04364272 </v>
     <v>       0.02958567       0.04308403      10.21924142 </v>
    </varray>
    <i name="volume">    733.35982693 </i>
    <varray name="rec_basis" >
     <v>       0.14290467       0.00034424      -0.00041517 </v>
     <v>       0.00023835       0.09751191      -0.00041180 </v>
     <v>      -0.00028025      -0.00041711       0.09785719 </v>
    </varray>
   </crystal>
   <varray name="positions" >
    <v>       0.75984300       0.49726700       0.17150400 </v>
    <v>       0.24805800       0.82979900       0.83951200 </v>
    <v>       0.72673300       0.83023100       0.49209000 </v>
    <v>       0.73954900       0.49669700       0.83794700 </v>
    <v>       0.22336600       0.50469700       0.15561200 </v>
    <v>       0.01908800       0.67803700       0.34071100 </v>
    <v>       0.74165600       0.17547000       0.48720000 </v>
    <v>       0.45982200       0.33590500       0.32790100 </v>
    <v>       0.01653100       0.99807900       0.33351500 </v>
    <v>       0.50877700       0.67092600       0.00750900 </v>
    <v>       0.52667600       0.00844300       0.68465400 </v>
    <v>       0.98832800       0.00504300       0.67100300 </v>
    <v>       0.74266200       0.83048500       0.17470100 </v>
    <v>       0.26177600       0.16625200       0.50888900 </v>
    <v>       0.03521900       0.33027100       0.34624500 </v>
    <v>       0.26914700       0.49929100       0.83030900 </v>
    <v>       0.24725200       0.82796200       0.15048700 </v>
    <v>       0.49079800       0.32805500       0.67181700 </v>
    <v>       0.48076300       0.32531900       0.99390600 </v>
    <v>       0.27706900       0.50449300       0.50630100 </v>
    <v>       0.48088600       0.66568500       0.31538900 </v>
    <v>       0.50379800       0.99790600       0.00047700 </v>
    <v>       0.50273700       0.65824300       0.67928600 </v>
    <v>       0.75352600       0.82023600       0.83687400 </v>
    <v>       0.01372000       0.33329500       0.66387200 </v>
    <v>       0.24368000       0.16914100       0.15811100 </v>
    <v>       0.98179300       0.67773900       0.00389600 </v>
    <v>       0.73445300       0.18050800       0.84025000 </v>
    <v>       0.26842600       0.16138200       0.83184200 </v>
    <v>       0.73525500       0.49628200       0.49245400 </v>
    <v>       0.98920400       0.00078500       0.99899700 </v>
    <v>       0.01559100       0.32046800       0.98432200 </v>
    <v>       0.00631300       0.66234200       0.66041400 </v>
    <v>       0.47398700       0.00289100       0.31684900 </v>
    <v>       0.28391300       0.83229000       0.51259800 </v>
    <v>       0.74960500       0.17809000       0.17255600 </v>
   </varray>
  </structure>
  <varray name="forces" >
   <v>       0.02374296      -0.00245725       0.01554839 </v>
   <v>       0.01753441       0.01500725      -0.00709690 </v>
   <v>       0.00837239      -0.00574475       0.00780467 </v>
   <v>       0.25049952      -0.16773895      -0.25170208 </v>
   <v>      -0.00901096      -0.00686245       0.01876341 </v>
   <v>       0.02784848       0.02234077      -0.03839533 </v>
   <v>       0.26475153       0.16471182       0.29182401 </v>
   <v>      -0.02371672       0.00251687      -0.01007767 </v>
   <v>       0.02706308      -0.01502089      -0.03409056 </v>
   <v>       0.01220792       0.00116014       0.01924316 </v>
   <v>      -0.02670052      -0.03504713       0.01719299 </v>
   <v>      -0.01835683       0.10480510      -0.03597734 </v>
   <v>      -0.00662212      -0.00917410      -0.00703833 </v>
   <v>      -0.40365968       0.42006064       0.26191261 </v>
   <v>       0.08619768      -0.03687564       0.08059940 </v>
   <v>      -0.31232156      -0.29237257      -0.25894497 </v>
   <v>       0.00005115       0.00652881       0.01510539 </v>
   <v>       0.05932391       0.00157407       0.00049970 </v>
   <v>      -0.01227110       0.00586305       0.00111838 </v>
   <v>      -0.38045883      -0.32137515       0.23396017 </v>
   <v>      -0.00432647       0.01500963      -0.03159504 </v>
   <v>      -0.02592606       0.00365871       0.00215042 </v>
   <v>      -0.01362968      -0.00473699      -0.00376693 </v>
   <v>       0.01571382       0.00754883       0.02831712 </v>
   <v>       0.18910926       0.01027665      -0.06652613 </v>
   <v>      -0.02122159       0.01051191       0.03151886 </v>
   <v>      -0.01784387      -0.01406114       0.00745507 </v>
   <v>       0.32755524       0.12015670      -0.28251662 </v>
   <v>      -0.26512313       0.27633178      -0.13998431 </v>
   <v>       0.25563836      -0.13472290       0.24844280 </v>
   <v>      -0.00670775      -0.00189314       0.02802449 </v>
   <v>       0.01764033      -0.06241350      -0.09860767 </v>
   <v>      -0.03740182      -0.09653782      -0.01891616 </v>
   <v>      -0.00569196      -0.01197885      -0.03433834 </v>
   <v>       0.00930279       0.01621184       0.00125164 </v>
   <v>      -0.00156219       0.01473866       0.00884171 </v>
  </varray>
  <varray name="stress" >
   <v>      -9.32743585       0.31969619       0.22704385 </v>
   <v>       0.31969618      -8.68253492      -0.68879398 </v>
   <v>       0.22704380      -0.68879396      -8.18357580 </v>
  </varray>
  <energy>
   <i name="e_fr_energy">   -368.29071072 </i>
   <i name="e_wo_entrp">   -368.29860936 </i>
   <i name="e_0_energy">      0.02369591 </i>
  </energy>
  <time name="totalsc">   19.73   21.19</time>
 </calculation>
 <calculation>
  <scstep>
   <time name="dav">    0.90    0.90</time>
   <time name="total">    1.12    1.20</time>
   <energy>
    <i name="alphaZ">   1292.23999049 </i>
    <i name="ewald"> -14840.35330670 </i>
    <i name="hartreedc">  -5344.06434279 </i>
    <i name="XCdc">   -797.00074706 </i>
    <i name="pawpsdc">  29042.74611778 </i>
    <i name="pawaedc"> -27216.12242046 </i>
    <i name="eentropy">      0.02216027 </i>
    <i name="bandstr">  -1749.06271862 </i>
    <i name="atom">  19243.23461550 </i>
    <i name="e_fr_energy">   -368.36065159 </i>
    <i name="e_wo_entrp">   -368.38281186 </i>
    <i name="e_0_energy">   -368.36803835 </i>
   </energy>
  </scstep>
  <scstep>
   <time name="diag">    0.07    0.07</time>
   <time name="diis">    0.61    0.75</time>
   <time name="orth">    0.01    0.01</time>
   <time name="total">    0.92    1.08</time>
   <energy>
    <i name="e_fr_energy">   -368.34478780 </i>
    <i name="e_wo_entrp">   -368.36905565 </i>
    <i name="e_0_energy">   -368.35287709 </i>
   </energy>
  </scstep>
  <scstep>
   <time name="diag">    0.06    0.07</time>
   <time name="diis">    0.72    0.73</time>
   <time name="orth">    0.01    0.01</time>
   <time name="total">    0.86    0.88</time>
   <energy>
    <i name="e_fr_energy">   -368.33590836 </i>
    <i name="e_wo_entrp">   -368.35924178 </i>
    <i name="e_0_energy">   -368.34368617 </i>
   </energy>
  </scstep>
  <scstep>
   <time name="diag">    0.07    0.07</time>
   <time name="diis">    0.73    0.73</time>
   <time name="orth">    0.01    0.01</time>
   <time name="total">    0.87    0.89</time>
   <energy>
    <i name="e_fr_energy">   -368.32994137 </i>
    <i name="e_wo_entrp">   -368.35314656 </i>
    <i name="e_0_energy">   -368.33767644 </i>
   </energy>
  </scstep>
  <scstep>
   <time name="diag">    0.07    0.07</time>
   <time name="diis">    0.78    0.80</time>
   <time name="orth">    0.01    0.01</time>
   <time name="total">    0.92    0.96</time>
   <energy>
    <i name="e_fr_energy">   -368.32921386 </i>
    <i name="e_wo_entrp">   -368.35271795 </i>
    <i name="e_0_energy">   -368.33704856 </i>
   </energy>
  </scstep>
  <scstep>
   <time name="diag">    0.06    0.06</time>
   <time name="diis">    0.76    0.76</time>
   <time name="orth">    0.01    0.01</time>
   <time name="total">    0.92    0.94</time>
   <energy>
    <i name="e_fr_energy">   -368.32938805 </i>
    <i name="e_wo_entrp">   -368.35287531 </i>
    <i name="e_0_energy">   -368.33721713 </i>
   </energy>
  </scstep>
  <scstep>
   <time name="diag">    0.12    0.12</time>
   <time name="diis">    0.72    0.72</time>
   <time name="orth">    0.01    0.01</time>
   <time name="total">    0.92    0.94</time>
   <energy>
    <i name="e_fr_energy">   -368.32945926 </i>
    <i name="e_wo_entrp">   -368.35294171 </i>
    <i name="e_0_energy">   -368.33728675 </i>
   </energy>
  </scstep>
  <scstep>
   <time name="diag">    0.06    0.06</time>
   <time name="diis">    0.64    0.71</time>
   <time name="orth">    0.01    0.01</time>
   <time name="total">    0.78    0.92</time>
   <energy>
    <i name="e_fr_energy">   -368.32952394 </i>
    <i name="e_wo_entrp">   -368.35297647 </i>
    <i name="e_0_energy">   -368.33734145 </i>
   </energy>
  </scstep>
  <scstep>
   <time name="diag">    0.07    0.07</time>
   <time name="diis">    0.61    0.61</time>
   <time name="orth">    0.01    0.01</time>
   <time name="total">    0.76    0.79</time>
   <energy>
    <i name="e_fr_energy">   -368.32957959 </i>
    <i name="e_wo_entrp">   -368.35302960 </i>
    <i name="e_0_energy">   -368.33739626 </i>
   </energy>
  </scstep>
  <scstep>
   <time name="diag">    0.12    0.13</time>
   <time name="diis">    0.50    0.50</time>
   <time name="orth">    0.01    0.01</time>
   <time name="total">    0.80    0.81</time>
   <energy>
    <i name="e_fr_energy">   -368.32961683 </i>
    <i name="e_wo_entrp">   -368.35308897 </i>
    <i name="e_0_energy">   -368.33744088 </i>
   </energy>
  </scstep>
  <scstep>
   <time name="diag">    0.07    0.07</time>
   <time name="diis">    0.44    0.44</time>
   <time name="orth">    0.01    0.01</time>
   <time name="total">    0.60    0.62</time>
   <energy>
    <i name="e_fr_energy">   -368.32963106 </i>
    <i name="e_wo_entrp">   -368.35308658 </i>
    <i name="e_0_energy">   -368.33744956 </i>
   </energy>
  </scstep>
  <scstep>
   <time name="diag">    0.07    0.07</time>
   <time name="diis">    0.35    0.37</time>
   <time name="orth">    0.01    0.01</time>
   <time name="total">    0.46    0.51</time>
   <energy>
    <i name="alphaZ">   1292.23999049 </i>
    <i name="ewald"> -14840.35330670 </i>
    <i name="hartreedc">  -5330.16662253 </i>
    <i name="XCdc">   -797.55116154 </i>
    <i name="pawpsdc">  29247.03514151 </i>
    <i name="pawaedc"> -27420.20552987 </i>
    <i name="eentropy">      0.02345972 </i>
    <i name="bandstr">  -1762.58622164 </i>
    <i name="atom">  19243.23461550 </i>
    <i name="e_fr_energy">   -368.32963505 </i>
    <i name="e_wo_entrp">   -368.35309477 </i>
    <i name="e_0_energy">   -368.33745496 </i>
   </energy>
  </scstep>
  <structure>
   <crystal>
    <varray name="basis" >
     <v>       6.98575972      -0.01658378       0.02023266 </v>
     <v>      -0.02393008      10.23900935       0.04227611 </v>
     <v>       0.02996438       0.04172165      10.20384792 </v>
    </varray>
    <i name="volume">    729.83065463 </i>
    <varray name="rec_basis" >
     <v>       0.14315037       0.00033630      -0.00042175 </v>
     <v>       0.00023302       0.09766789      -0.00040003 </v>
     <v>      -0.00028481      -0.00040532       0.09800474 </v>
    </varray>
   </crystal>
   <varray name="positions" >
    <v>       0.75989200       0.49726352       0.17152594 </v>
    <v>       0.24809438       0.82982028       0.83950179 </v>
    <v>       0.72675024       0.83022287       0.49210105 </v>
    <v>       0.74006777       0.49646264       0.83759052 </v>
    <v>       0.22334722       0.50468717       0.15563865 </v>
    <v>       0.01914594       0.67806885       0.34065637 </v>
    <v>       0.74220263       0.17570163       0.48761123 </v>
    <v>       0.45977302       0.33590853       0.32788681 </v>
    <v>       0.01658710       0.99805810       0.33346670 </v>
    <v>       0.50880214       0.67092756       0.00753620 </v>
    <v>       0.52662050       0.00839334       0.68467867 </v>
    <v>       0.98829077       0.00519106       0.67095149 </v>
    <v>       0.74264830       0.83047207       0.17469111 </v>
    <v>       0.26094166       0.16684187       0.50925904 </v>
    <v>       0.03539661       0.33021878       0.34635902 </v>
    <v>       0.26850115       0.49887885       0.82994530 </v>
    <v>       0.24725205       0.82797112       0.15050835 </v>
    <v>       0.49092070       0.32805742       0.67181746 </v>
    <v>       0.48073764       0.32532723       0.99390760 </v>
    <v>       0.27627912       0.50403675       0.50663583 </v>
    <v>       0.48087732       0.66570636       0.31534418 </v>
    <v>       0.50374438       0.99791106       0.00048013 </v>
    <v>       0.50270881       0.65823629       0.67928075 </v>
    <v>       0.75355837       0.82024654       0.83691400 </v>
    <v>       0.01411157       0.33331055       0.66377695 </v>
    <v>       0.24363597       0.16915557       0.15815566 </v>
    <v>       0.98175598       0.67771905       0.00390672 </v>
    <v>       0.73513276       0.18068039       0.83984783 </v>
    <v>       0.26787988       0.16177190       0.83164315 </v>
    <v>       0.73578155       0.49609127       0.49280564 </v>
    <v>       0.98918995       0.00078214       0.99903673 </v>
    <v>       0.01562777       0.32038057       0.98418265 </v>
    <v>       0.00623528       0.66220574       0.66038794 </v>
    <v>       0.47397537       0.00287428       0.31680046 </v>
    <v>       0.28393231       0.83231290       0.51259964 </v>
    <v>       0.74960179       0.17811074       0.17256844 </v>
   </varray>
  </structure>
  <varray name="forces" >
   <v>       0.01507057      -0.00949027       0.01617166 </v>
   <v>       0.01656923       0.01462295      -0.01517641 </v>
   <v>       0.00812717      -0.00094088       0.00379103 </v>
   <v>       0.24307224      -0.15229421      -0.22919704 </v>
   <v>      -0.00655093      -0.01198596       0.01299295 </v>
   <v>       0.02052838       0.01728590      -0.02551767 </v>
   <v>       0.25572808       0.14213857       0.26241624 </v>
   <v>       0.01194173       0.00973281      -0.00837146 </v>
   <v>       0.01184727      -0.00960657      -0.02143661 </v>
   <v>       0.01002034      -0.02487472       0.00055263 </v>
   <v>      -0.03563216      -0.03231925       0.01198272 </v>
   <v>      -0.00992563       0.09033469      -0.03198091 </v>
   <v>       0.00069347       0.00346017      -0.01004416 </v>
   <v>      -0.38051893       0.36724229       0.23279998 </v>
   <v>       0.05335587      -0.01975534       0.06042939 </v>
   <v>      -0.30040165      -0.24860903      -0.22952603 </v>
   <v>      -0.00317662       0.01258786       0.01780335 </v>
   <v>       0.06363738       0.00876615      -0.01257238 </v>
   <v>       0.00785294       0.01278400       0.01156134 </v>
   <v>      -0.36015803      -0.29339176       0.21005705 </v>
   <v>       0.00180756       0.00048025      -0.00874403 </v>
   <v>      -0.01726657       0.01404232      -0.00199807 </v>
   <v>      -0.00645813      -0.00573500      -0.00766669 </v>
   <v>       0.00305329       0.01813087       0.02643890 </v>
   <v>       0.15501134       0.01291718      -0.04844413 </v>
   <v>      -0.01887849      -0.00519858       0.02243399 </v>
   <v>      -0.01348679      -0.03173702      -0.00369819 </v>
   <v>       0.31337110       0.09633605      -0.26504045 </v>
   <v>      -0.25273517       0.24513337      -0.13426388 </v>
   <v>       0.24666167      -0.12099725       0.22109537 </v>
   <v>      -0.00891200       0.00338394       0.02397008 </v>
   <v>       0.00500392      -0.04959346      -0.06664258 </v>
   <v>      -0.03818168      -0.07945368      -0.02221531 </v>
   <v>       0.00472509      -0.00114426      -0.00519265 </v>
   <v>       0.00730505       0.01673286      -0.00079784 </v>
   <v>      -0.00310092       0.01101503       0.01402981 </v>
  </varray>
  <varray name="stress" >
   <v>      -2.91100635       0.26160390       0.12648832 </v>
   <v>       0.26160392      -2.00815285      -0.64409876 </v>
   <v>       0.12648838      -0.64409881      -1.80938976 </v>
  </varray>
  <energy>
   <i name="e_fr_energy">   -368.32963505 </i>
   <i name="e_wo_entrp">   -368.33745496 </i>
   <i name="e_0_energy">      0.02345972 </i>
  </energy>
  <time name="totalsc">   11.48   12.16</time>
 </calculation>
 <calculation>
  <scstep>
   <time name="dav">    0.86    0.87</time>
   <time name="total">    1.05    1.13</time>
   <energy>
    <i name="alphaZ">   1303.57327296 </i>
    <i name="ewald"> -14875.62018105 </i>
    <i name="hartreedc">  -5353.41532240 </i>
    <i name="XCdc">   -795.65491527 </i>
    <i name="pawpsdc">  29247.18931989 </i>
    <i name="pawaedc"> -27420.34252351 </i>
    <i name="eentropy">      0.02059454 </i>
    <i name="bandstr">  -1717.44291688 </i>
    <i name="atom">  19243.23461550 </i>
    <i name="e_fr_energy">   -368.45805623 </i>
    <i name="e_wo_entrp">   -368.47865077 </i>
    <i name="e_0_energy">   -368.46492107 </i>
   </energy>
  </scstep>
  <scstep>
   <time name="diag">    0.07    0.07</time>
   <time name="diis">    0.71    0.71</time>
   <time name="orth">    0.01    0.01</time>
   <time name="total">    0.85    0.87</time>
   <energy>
    <i name="e_fr_energy">   -368.40583112 </i>
    <i name="e_wo_entrp">   -368.43018412 </i>
    <i name="e_0_energy">   -368.41394879 </i>
   </energy>
  </scstep>
  <scstep>
   <time name="diag">    0.06    0.06</time>
   <time name="diis">    0.72    0.73</time>
   <time name="orth">    0.01    0.01</time>
   <time name="total">    0.86    0.88</time>
   <energy>
    <i name="e_fr_energy">   -368.37701592 </i>
    <i name="e_wo_entrp">   -368.39952221 </i>
    <i name="e_0_energy">   -368.38451801 </i>
   </energy>
  </scstep>
  <scstep>
   <time name="diag">    0.07    0.07</time>
   <time name="diis">    0.78    0.79</time>
   <time name="orth">    0.01    0.01</time>
   <time name="total">    0.96    0.98</time>
   <energy>
    <i name="e_fr_energy">   -368.35739896 </i>
    <i name="e_wo_entrp">   -368.37979867 </i>
    <i name="e_0_energy">   -368.36486553 </i>
   </energy>
  </scstep>
  <scstep>
   <time name="diag">    0.08    0.08</time>
   <time name="diis">    0.72    0.72</time>
   <time name="orth">    0.01    0.01</time>
   <time name="total">    0.89    0.91</time>
   <energy>
    <i name="e_fr_energy">   -368.35509647 </i>
    <i name="e_wo_entrp">   -368.37800669 </i>
    <i name="e_0_energy">   -368.36273321 </i>
   </energy>
  </scstep>
  <scstep>
   <time name="diag">    0.06    0.06</time>
   <time name="diis">    0.76    0.76</time>
   <time name="orth">    0.01    0.01</time>
   <time name="total">    0.90    0.92</time>
   <energy>
    <i name="e_fr_energy">   -368.35561380 </i>
    <i name="e_wo_entrp">   -368.37844306 </i>
    <i name="e_0_energy">   -368.36322355 </i>
   </energy>
  </scstep>
  <scstep>
   <time name="diag">    0.07    0.07</time>
   <time name="diis">    0.77    0.78</time>
   <time name="orth">    0.01    0.01</time>
   <time name="total">    0.92    0.94</time>
   <energy>
    <i name="e_fr_energy">   -368.35580749 </i>
    <i name="e_wo_entrp">   -368.37865489 </i>
    <i name="e_0_energy">   -368.36342329 </i>
   </energy>
  </scstep>
  <scstep>
   <time name="diag">    0.07    0.07</time>
   <time name="diis">    0.74    0.74</time>
   <time name="orth">    0.01    0.01</time>
   <time name="total">    0.88    0.90</time>
   <energy>
    <i name="e_fr_energy">   -368.35600092 </i>
    <i name="e_wo_entrp">   -368.37878801 </i>
    <i name="e_0_energy">   -368.36359662 </i>
   </energy>
  </scstep>
  <scstep>
   <time name="diag">    0.07    0.07</time>
   <time name="diis">    0.69    0.69</time>
   <time name="orth">    0.01    0.01</time>
   <time name="total">    0.85    0.89</time>
   <energy>
    <i name="e_fr_energy">   -368.35616007 </i>
    <i name="e_wo_entrp">   -368.37894998 </i>
    <i name="e_0_energy">   -368.36375671 </i>
   </energy>
  </scstep>
  <scstep>
   <time name="diag">    0.08    0.08</time>
   <time name="diis">    0.60    0.61</time>
   <time name="orth">    0.01    0.01</time>
   <time name="total">    0.76    0.77</time>
   <energy>
    <i name="e_fr_energy">   -368.35626474 </i>
    <i name="e_wo_entrp">   -368.37908451 </i>
    <i name="e_0_energy">   -368.36387133 </i>
   </energy>
  </scstep>
  <scstep>
   <time name="diag">    0.06    0.06</time>
   <time name="diis">    0.62    0.62</time>
   <time name="orth">    0.01    0.01</time>
   <time name="total">    0.75    0.77</time>
   <energy>
    <i name="e_fr_energy">   -368.35630236 </i>
    <i name="e_wo_entrp">   -368.37909240 </i>
    <i name="e_0_energy">   -368.36389904 </i>
   </energy>
  </scstep>
  <scstep>
   <time name="diag">    0.06    0.07</time>
   <time name="diis">    0.45    0.45</time>
   <time name="orth">    0.01    0.01</time>
   <time name="total">    0.58    0.60</time>
   <energy>
    <i name="alphaZ">   1303.57327296 </i>
    <i name="ewald"> -14875.62018105 </i>
    <i name="hartreedc">  -5328.43029958 </i>
    <i name="XCdc">   -796.64426980 </i>
    <i name="pawpsdc">  29627.91555569 </i>
    <i name="pawaedc"> -27800.59933351 </i>
    <i name="eentropy">      0.02279797 </i>
    <i name="bandstr">  -1741.80846850 </i>
    <i name="atom">  19243.23461550 </i>
    <i name="e_fr_energy">   -368.35631032 </i>
    <i name="e_wo_entrp">   -368.37910829 </i>
    <i name="e_0_energy">   -368.36390965 </i>
   </energy>
  </scstep>
  <structure>
   <crystal>
    <varray name="basis" >
     <v>       6.96406734      -0.01579574       0.02071026 </v>
     <v>      -0.02276099      10.20940447       0.03980797 </v>
     <v>       0.03064834       0.03926117      10.17604693 </v>
    </varray>
    <i name="volume">    723.48549771 </i>
    <varray name="rec_basis" >
     <v>       0.14359627       0.00032183      -0.00043373 </v>
     <v>       0.00022330       0.09795088      -0.00037859 </v>
     <v>      -0.00029312      -0.00038383       0.09827235 </v>
    </varray>
   </crystal>
   <varray name="positions" >
    <v>       0.75998065       0.49725723       0.17156562 </v>
    <v>       0.24816020       0.82985877       0.83948332 </v>
    <v>       0.72678143       0.83020818       0.49212105 </v>
    <v>       0.74100636       0.49603858       0.83694565 </v>
    <v>       0.22331323       0.50466940       0.15568686 </v>
    <v>       0.01925076       0.67812646       0.34055757 </v>
    <v>       0.74319148       0.17612067       0.48835507 </v>
    <v>       0.45968441       0.33591492       0.32786114 </v>
    <v>       0.01668861       0.99802027       0.33337933 </v>
    <v>       0.50884762       0.67093040       0.00758539 </v>
    <v>       0.52652010       0.00830353       0.68472328 </v>
    <v>       0.98822340       0.00545888       0.67085835 </v>
    <v>       0.74262352       0.83044869       0.17467323 </v>
    <v>       0.25943209       0.16790902       0.50992853 </v>
    <v>       0.03571792       0.33012432       0.34656524 </v>
    <v>       0.26733282       0.49813327       0.82928739 </v>
    <v>       0.24725213       0.82798763       0.15054698 </v>
    <v>       0.49114268       0.32806180       0.67181828 </v>
    <v>       0.48069177       0.32534211       0.99391049 </v>
    <v>       0.27485015       0.50321156       0.50724140 </v>
    <v>       0.48086161       0.66574498       0.31526312 </v>
    <v>       0.50364739       0.99792022       0.00048579 </v>
    <v>       0.50265781       0.65822415       0.67927125 </v>
    <v>       0.75361692       0.82026561       0.83698634 </v>
    <v>       0.01481998       0.33333863       0.66360502 </v>
    <v>       0.24355631       0.16918195       0.15823645 </v>
    <v>       0.98168901       0.67768297       0.00392609 </v>
    <v>       0.73636254       0.18099208       0.83912040 </v>
    <v>       0.26689185       0.16247718       0.83128361 </v>
    <v>       0.73673415       0.49574630       0.49344159 </v>
    <v>       0.98916453       0.00077697       0.99910859 </v>
    <v>       0.01569431       0.32022237       0.98393058 </v>
    <v>       0.00609469       0.66195927       0.66034079 </v>
    <v>       0.47395435       0.00284402       0.31671267 </v>
    <v>       0.28396725       0.83235433       0.51260260 </v>
    <v>       0.74959598       0.17814827       0.17259094 </v>
   </varray>
  </structure>
  <varray name="forces" >
   <v>      -0.00065949      -0.02193522       0.01625038 </v>
   <v>       0.01427826       0.01304475      -0.02870022 </v>
   <v>       0.00743467       0.00812403      -0.00313588 </v>
   <v>       0.22861983      -0.12287002      -0.18641974 </v>
   <v>      -0.00328850      -0.02061462       0.00129378 </v>
   <v>       0.00816168       0.00847712      -0.00188169 </v>
   <v>       0.23733312       0.09972092       0.20711278 </v>
   <v>       0.07769521       0.02240831      -0.00594299 </v>
   <v>      -0.01639474       0.00074792       0.00228146 </v>
   <v>       0.00541732      -0.07209315      -0.03402728 </v>
   <v>      -0.05270787      -0.02793498       0.00217820 </v>
   <v>       0.00622330       0.06221822      -0.02511206 </v>
   <v>       0.01451266       0.02689995      -0.01518672 </v>
   <v>      -0.33351826       0.26474751       0.17669071 </v>
   <v>      -0.00949862       0.01190378       0.01877182 </v>
   <v>      -0.27674944      -0.16655293      -0.17245912 </v>
   <v>      -0.00858635       0.02374611       0.02200984 </v>
   <v>       0.07201901       0.02220708      -0.03717159 </v>
   <v>       0.04525365       0.02576977       0.03218934 </v>
   <v>      -0.32133783      -0.23893647       0.16421185 </v>
   <v>       0.01381565      -0.02566388       0.03424454 </v>
   <v>      -0.00138435       0.03306382      -0.00923009 </v>
   <v>       0.00692471      -0.00698045      -0.01439307 </v>
   <v>      -0.01959636       0.03712358       0.02285503 </v>
   <v>       0.08757472       0.01731733      -0.01289590 </v>
   <v>      -0.01315118      -0.03411157       0.00509746 </v>
   <v>      -0.00592076      -0.06486313      -0.02408683 </v>
   <v>       0.28594051       0.05226244      -0.23303510 </v>
   <v>      -0.22742929       0.18647278      -0.12223493 </v>
   <v>       0.22906382      -0.09519832       0.16966975 </v>
   <v>      -0.01229324       0.01194967       0.01718240 </v>
   <v>      -0.01869542      -0.02539280      -0.00607216 </v>
   <v>      -0.04036679      -0.04523431      -0.02689971 </v>
   <v>       0.02359402       0.01859805       0.04811501 </v>
   <v>       0.00454829       0.01730849      -0.00445836 </v>
   <v>      -0.00683193       0.00427020       0.02318908 </v>
  </varray>
  <varray name="stress" >
   <v>       9.12391494       0.14988925      -0.05900855 </v>
   <v>       0.14988924      10.49752872      -0.54536457 </v>
   <v>      -0.05900849      -0.54536458      10.15093785 </v>
  </varray>
  <energy>
   <i name="e_fr_energy">   -368.35631032 </i>
   <i name="e_wo_entrp">   -368.36390965 </i>
   <i name="e_0_energy">      0.02279797 </i>
  </energy>
  <time name="totalsc">   11.68   12.08</time>
 </calculation>
 <calculation>
  <scstep>
   <time name="dav">    0.83    0.84</time>
   <time name="total">    1.07    1.17</time>
   <energy>
    <i name="alphaZ">   1302.31763541 </i>
    <i name="ewald"> -14864.76543397 </i>
    <i name="hartreedc">  -5332.62815225 </i>
    <i name="XCdc">   -796.83037702 </i>
    <i name="pawpsdc">  29628.47994941 </i>
    <i name="pawaedc"> -27801.11957197 </i>
    <i name="eentropy">      0.02223154 </i>
    <i name="bandstr">  -1747.09568073 </i>
    <i name="atom">  19243.23461550 </i>
    <i name="e_fr_energy">   -368.38478409 </i>
    <i name="e_wo_entrp">   -368.40701563 </i>
    <i name="e_0_energy">   -368.39219461 </i>
   </energy>
  </scstep>
  <scstep>
   <time name="diag">    0.07    0.07</time>
   <time name="diis">    0.79    0.79</time>
   <time name="orth">    0.01    0.01</time>
   <time name="total">    0.94    0.96</time>
   <energy>
    <i name="e_fr_energy">   -368.39277904 </i>
    <i name="e_wo_entrp">   -368.41567719 </i>
    <i name="e_0_energy">   -368.40041175 </i>
   </energy>
  </scstep>
  <scstep>
   <time name="diag">    0.07    0.07</time>
   <time name="diis">    0.71    0.72</time>
   <time name="orth">    0.02    0.02</time>
   <time name="total">    0.86    0.88</time>
   <energy>
    <i name="e_fr_energy">   -368.38785482 </i>
    <i name="e_wo_entrp">   -368.41041636 </i>
    <i name="e_0_energy">   -368.39537534 </i>
   </energy>
  </scstep>
  <scstep>
   <time name="diag">    0.09    0.09</time>
   <time name="diis">    0.73    0.74</time>
   <time name="orth">    0.01    0.01</time>
   <time name="total">    0.89    0.92</time>
   <energy>
    <i name="e_fr_energy">   -368.38750695 </i>
    <i name="e_wo_entrp">   -368.41006862 </i>
    <i name="e_0_energy">   -368.39502750 </i>
   </energy>
  </scstep>
  <scstep>
   <time name="diag">    0.06    0.07</time>
   <time name="diis">    0.73    0.73</time>
   <time name="orth">    0.01    0.01</time>
   <time name="total">    0.87    0.91</time>
   <energy>
    <i name="e_fr_energy">   -368.38736989 </i>
    <i name="e_wo_entrp">   -368.41000433 </i>
    <i name="e_0_energy">   -368.39491471 </i>
   </energy>
  </scstep>
  <scstep>
   <time name="diag">    0.07    0.07</time>
   <time name="diis">    0.75    0.75</time>
   <time name="orth">    0.01    0.01</time>
   <time name="total">    0.89    0.92</time>
   <energy>
    <i name="e_fr_energy">   -368.38735186 </i>
    <i name="e_wo_entrp">   -368.40996221 </i>
    <i name="e_0_energy">   -368.39488864 </i>
   </energy>
  </scstep>
  <scstep>
   <time name="diag">    0.06    0.06</time>
   <time name="diis">    0.62    0.63</time>
   <time name="orth">    0.01    0.01</time>
   <time name="total">    0.76    0.79</time>
   <energy>
    <i name="e_fr_energy">   -368.38734019 </i>
    <i name="e_wo_entrp">   -368.40995837 </i>
    <i name="e_0_energy">   -368.39487958 </i>
   </energy>
  </scstep>
  <scstep>
   <time name="diag">    0.06    0.07</time>
   <time name="diis">    0.46    0.47</time>
   <time name="orth">    0.01    0.01</time>
   <time name="total">    0.57    0.59</time>
   <energy>
    <i name="alphaZ">   1302.31763541 </i>
    <i name="ewald"> -14864.76543397 </i>
    <i name="hartreedc">  -5336.10049440 </i>
    <i name="XCdc">   -796.70302083 </i>
    <i name="pawpsdc">  29587.77534946 </i>
    <i name="pawaedc"> -27760.27811391 </i>
    <i name="eentropy">      0.02261814 </i>
    <i name="bandstr">  -1743.89049303 </i>
    <i name="atom">  19243.23461550 </i>
    <i name="e_fr_energy">   -368.38733764 </i>
    <i name="e_wo_entrp">   -368.40995579 </i>
    <i name="e_0_energy">   -368.39487703 </i>
   </energy>
  </scstep>
  <structure>
   <crystal>
    <varray name="basis" >
     <v>       6.96487974      -0.01534013       0.02087628 </v>
     <v>      -0.02207978      10.21364161       0.03800512 </v>
     <v>       0.03087996       0.03746597      10.18042959 </v>
    </varray>
    <i name="volume">    724.18305070 </i>
    <varray name="rec_basis" >
     <v>       0.14357949       0.00031201      -0.00043666 </v>
     <v>       0.00021673       0.09791008      -0.00036099 </v>
     <v>      -0.00029524      -0.00036615       0.09822992 </v>
    </varray>
   </crystal>
   <varray name="positions" >
    <v>       0.76001608       0.49722829       0.17160168 </v>
    <v>       0.24821275       0.82989051       0.83944109 </v>
    <v>       0.72680746       0.83021184       0.49212550 </v>
    <v>       0.74179728       0.49571711       0.83645418 </v>
    <v>       0.22329328       0.50463735       0.15570850 </v>
    <v>       0.01930859       0.67816051       0.34051429 </v>
    <v>       0.74401721       0.17641350       0.48891082 </v>
    <v>       0.45978410       0.33594462       0.32784299 </v>
    <v>       0.01670194       0.99800542       0.33334590 </v>
    <v>       0.50887587       0.67084547       0.00756524 </v>
    <v>       0.52638587       0.00823271       0.68474471 </v>
    <v>       0.98820675       0.00564451       0.67078930 </v>
    <v>       0.74263889       0.83047129       0.17464740 </v>
    <v>       0.25822090       0.16866672       0.51041831 </v>
    <v>       0.03583445       0.33009930       0.34667323 </v>
    <v>       0.26636308       0.49762482       0.82880930 </v>
    <v>       0.24723707       0.82802278       0.15058934 </v>
    <v>       0.49136138       0.32809055       0.67177362 </v>
    <v>       0.48075207       0.32537909       0.99395006 </v>
    <v>       0.27369197       0.50258192       0.50769183 </v>
    <v>       0.48087905       0.66573015       0.31527070 </v>
    <v>       0.50360491       0.99796363       0.00047691 </v>
    <v>       0.50264886       0.65821085       0.67925004 </v>
    <v>       0.75360684       0.82031779       0.83704367 </v>
    <v>       0.01526757       0.33337126       0.66351785 </v>
    <v>       0.24350004       0.16915201       0.15827627 </v>
    <v>       0.98165072       0.67759048       0.00390553 </v>
    <v>       0.73737568       0.18118561       0.83853777 </v>
    <v>       0.26608442       0.16299272       0.83098781 </v>
    <v>       0.73752982       0.49548921       0.49390852 </v>
    <v>       0.98913237       0.00078902       0.99915900 </v>
    <v>       0.01568906       0.32012634       0.98381896 </v>
    <v>       0.00596555       0.66180295       0.66028928 </v>
    <v>       0.47398685       0.00285357       0.31673387 </v>
    <v>       0.28398981       0.83239226       0.51259838 </v>
    <v>       0.74958147       0.17816881       0.17262813 </v>
   </varray>
  </structure>
  <varray name="forces" >
   <v>      -0.00514720      -0.02071218       0.01642652 </v>
   <v>       0.01590942       0.00996390      -0.02026494 </v>
   <v>      -0.00781880       0.00390819      -0.01348144 </v>
   <v>       0.19434734      -0.10009800      -0.15835179 </v>
   <v>      -0.00387272      -0.02115607      -0.00075446 </v>
   <v>       0.01307139       0.01240079       0.00784532 </v>
   <v>       0.22099459       0.08264244       0.16687483 </v>
   <v>       0.08088490       0.02152746       0.00781473 </v>
   <v>      -0.01940409       0.00760631       0.00963486 </v>
   <v>       0.00787284      -0.08386442      -0.05013950 </v>
   <v>      -0.05540287      -0.00859925       0.01430521 </v>
   <v>       0.01030509       0.04364483      -0.01235266 </v>
   <v>       0.00953089       0.02484025      -0.01814990 </v>
   <v>      -0.29218992       0.21813165       0.13353552 </v>
   <v>      -0.01758665       0.01830541      -0.00552684 </v>
   <v>      -0.22303894      -0.12154785      -0.14275305 </v>
   <v>      -0.00275959       0.01355852       0.01221605 </v>
   <v>       0.04951159       0.02095959      -0.03913308 </v>
   <v>       0.04688594       0.01591791       0.01699974 </v>
   <v>      -0.26988043      -0.20164173       0.13145945 </v>
   <v>       0.00983324      -0.03235099       0.04289013 </v>
   <v>       0.00261620       0.03877971      -0.01719514 </v>
   <v>       0.00336452      -0.01787570      -0.00171540 </v>
   <v>      -0.03452168       0.03028939       0.02770455 </v>
   <v>       0.05856608       0.01716016       0.00981557 </v>
   <v>       0.00152303      -0.03644018      -0.00789146 </v>
   <v>      -0.01031810      -0.05453785      -0.03052071 </v>
   <v>       0.22587871       0.04077392      -0.20027373 </v>
   <v>      -0.17029936       0.15587932      -0.10736873 </v>
   <v>       0.19639472      -0.07631585       0.13366510 </v>
   <v>      -0.01211442       0.00964477       0.01062746 </v>
   <v>      -0.01652850      -0.02359023       0.02492037 </v>
   <v>      -0.03462763      -0.02067554      -0.02585741 </v>
   <v>       0.02147401       0.03082173       0.06597130 </v>
   <v>       0.01776620      -0.00044905      -0.00843512 </v>
   <v>      -0.01121983       0.00309864       0.02745869 </v>
  </varray>
  <varray name="stress" >
   <v>       7.76288264       0.08664532      -0.16124132 </v>
   <v>       0.08664531       9.29060992      -0.40314143 </v>
   <v>      -0.16124133      -0.40314144       8.57613245 </v>
  </varray>
  <energy>
   <i name="e_fr_energy">   -368.38733764 </i>
   <i name="e_wo_entrp">   -368.39487703 </i>
   <i name="e_0_energy">      0.02261814 </i>
  </energy>
  <time name="totalsc">    8.44    8.78</time>
 </calculation>
 <calculation>
  <scstep>
   <time name="dav">    0.91    0.92</time>
   <time name="total">    1.14    1.23</time>
   <energy>
    <i name="alphaZ">   1298.56144401 </i>
    <i name="ewald"> -14830.72649267 </i>
    <i name="hartreedc">  -5349.82241223 </i>
    <i name="XCdc">   -797.26256319 </i>
    <i name="pawpsdc">  29588.10117502 </i>
    <i name="pawaedc"> -27760.62728070 </i>
    <i name="eentropy">      0.02071313 </i>
    <i name="bandstr">  -1759.89886242 </i>
    <i name="atom">  19243.23461550 </i>
    <i name="e_fr_energy">   -368.41966356 </i>
    <i name="e_wo_entrp">   -368.44037669 </i>
    <i name="e_0_energy">   -368.42656794 </i>
   </energy>
  </scstep>
  <scstep>
   <time name="diag">    0.10    0.11</time>
   <time name="diis">    0.73    0.74</time>
   <time name="orth">    0.01    0.01</time>
   <time name="total">    0.90    0.93</time>
   <energy>
    <i name="e_fr_energy">   -368.48660447 </i>
    <i name="e_wo_entrp">   -368.50891228 </i>
    <i name="e_0_energy">   -368.49404041 </i>
   </energy>
  </scstep>
  <scstep>
   <time name="diag">    0.06    0.07</time>
   <time name="diis">    0.82    0.83</time>
   <time name="orth">    0.01    0.01</time>
   <time name="total">    0.96    0.98</time>
   <energy>
    <i name="e_fr_energy">   -368.45077207 </i>
    <i name="e_wo_entrp">   -368.47247930 </i>
    <i name="e_0_energy">   -368.45800781 </i>
   </energy>
  </scstep>
  <scstep>
   <time name="diag">    0.06    0.07</time>
   <time name="diis">    0.74    0.74</time>
   <time name="orth">    0.01    0.01</time>
   <time name="total">    0.87    0.89</time>
   <energy>
    <i name="e_fr_energy">   -368.44706082 </i>
    <i name="e_wo_entrp">   -368.46870621 </i>
    <i name="e_0_energy">   -368.45427595 </i>
   </energy>
  </scstep>
  <scstep>
   <time name="diag">    0.16    0.16</time>
   <time name="diis">    0.73    0.74</time>
   <time name="orth">    0.01    0.01</time>
   <time name="total">    0.96    0.99</time>
   <energy>
    <i name="e_fr_energy">   -368.44594877 </i>
    <i name="e_wo_entrp">   -368.46782330 </i>
    <i name="e_0_energy">   -368.45324028 </i>
   </energy>
  </scstep>
  <scstep>
   <time name="diag">    0.06    0.06</time>
   <time name="diis">    0.76    0.77</time>
   <time name="orth">    0.01    0.01</time>
   <time name="total">    0.90    0.93</time>
   <energy>
    <i name="e_fr_energy">   -368.44578114 </i>
    <i name="e_wo_entrp">   -368.46752625 </i>
    <i name="e_0_energy">   -368.45302951 </i>
   </energy>
  </scstep>
  <scstep>
   <time name="diag">    0.13    0.13</time>
   <time name="diis">    0.77    0.77</time>
   <time name="orth">    0.01    0.01</time>
   <time name="total">    0.96    0.99</time>
   <energy>
    <i name="e_fr_energy">   -368.44572179 </i>
    <i name="e_wo_entrp">   -368.46751158 </i>
    <i name="e_0_energy">   -368.45298505 </i>
   </energy>
  </scstep>
  <scstep>
   <time name="diag">    0.06    0.07</time>
   <time name="diis">    0.70    0.71</time>
   <time name="orth">    0.01    0.01</time>
   <time name="total">    0.84    0.86</time>
   <energy>
    <i name="e_fr_energy">   -368.44573390 </i>
    <i name="e_wo_entrp">   -368.46752661 </i>
    <i name="e_0_energy">   -368.45299814 </i>
   </energy>
  </scstep>
  <scstep>
   <time name="diag">    0.07    0.07</time>
   <time name="diis">    0.65    0.66</time>
   <time name="orth">    0.01    0.01</time>
   <time name="total">    0.81    0.83</time>
   <energy>
    <i name="e_fr_energy">   -368.44573831 </i>
    <i name="e_wo_entrp">   -368.46749946 </i>
    <i name="e_0_energy">   -368.45299203 </i>
   </energy>
  </scstep>
  <scstep>
   <time name="diag">    0.11    0.11</time>
   <time name="diis">    0.53    0.53</time>
   <time name="orth">    0.01    0.01</time>
   <time name="total">    0.71    0.74</time>
   <energy>
    <i name="e_fr_energy">   -368.44573974 </i>
    <i name="e_wo_entrp">   -368.46752064 </i>
    <i name="e_0_energy">   -368.45300004 </i>
   </energy>
  </scstep>
  <scstep>
   <time name="diag">    0.07    0.07</time>
   <time name="diis">    0.42    0.43</time>
   <time name="orth">    0.01    0.01</time>
   <time name="total">    0.54    0.56</time>
   <energy>
    <i name="alphaZ">   1298.56144401 </i>
    <i name="ewald"> -14830.72649267 </i>
    <i name="hartreedc">  -5360.02545634 </i>
    <i name="XCdc">   -796.89142193 </i>
    <i name="pawpsdc">  29469.79518670 </i>
    <i name="pawaedc"> -27642.34638320 </i>
    <i name="eentropy">      0.02178421 </i>
    <i name="bandstr">  -1750.06901643 </i>
    <i name="atom">  19243.23461550 </i>
    <i name="e_fr_energy">   -368.44574015 </i>
    <i name="e_wo_entrp">   -368.46752436 </i>
    <i name="e_0_energy">   -368.45300155 </i>
   </energy>
  </scstep>
  <structure>
   <crystal>
    <varray name="basis" >
     <v>       6.96731694      -0.01397327       0.02137432 </v>
     <v>      -0.02003617      10.22635302       0.03259654 </v>
     <v>       0.03157483       0.03208037      10.19357759 </v>
    </varray>
    <i name="volume">    726.27780729 </i>
    <varray name="rec_basis" >
     <v>       0.14352921       0.00028263      -0.00044547 </v>
     <v>       0.00019706       0.09778794      -0.00030836 </v>
     <v>      -0.00030159      -0.00031329       0.09810290 </v>
    </varray>
   </crystal>
   <varray name="positions" >
    <v>       0.76012237       0.49714154       0.17170981 </v>
    <v>       0.24837037       0.82998566       0.83931448 </v>
    <v>       0.72688553       0.83022283       0.49213886 </v>
    <v>       0.74416991       0.49475271       0.83498019 </v>
    <v>       0.22323344       0.50454126       0.15577339 </v>
    <v>       0.01948207       0.67826258       0.34038451 </v>
    <v>       0.74649395       0.17729179       0.49057746 </v>
    <v>       0.46008313       0.33603368       0.32778855 </v>
    <v>       0.01674193       0.99796085       0.33324564 </v>
    <v>       0.50896067       0.67059078       0.00750478 </v>
    <v>       0.52598324       0.00802038       0.68480892 </v>
    <v>       0.98815674       0.00620114       0.67058234 </v>
    <v>       0.74268500       0.83053906       0.17456996 </v>
    <v>       0.25458749       0.17093930       0.51188749 </v>
    <v>       0.03618401       0.33002431       0.34699705 </v>
    <v>       0.26345440       0.49609997       0.82737543 </v>
    <v>       0.24719189       0.82812818       0.15071639 </v>
    <v>       0.49201740       0.32817672       0.67163971 </v>
    <v>       0.48093294       0.32549002       0.99406874 </v>
    <v>       0.27021799       0.50069419       0.50904228 </v>
    <v>       0.48093138       0.66568568       0.31529345 </v>
    <v>       0.50347748       0.99809381       0.00045030 </v>
    <v>       0.50262202       0.65817096       0.67918643 </v>
    <v>       0.75357658       0.82047430       0.83721561 </v>
    <v>       0.01661015       0.33346901       0.66325645 </v>
    <v>       0.24333123       0.16906227       0.15839568 </v>
    <v>       0.98153590       0.67731312       0.00384382 </v>
    <v>       0.74041474       0.18176553       0.83679068 </v>
    <v>       0.26366230       0.16453864       0.83010113 </v>
    <v>       0.73991658       0.49471839       0.49530855 </v>
    <v>       0.98903589       0.00082520       0.99931017 </v>
    <v>       0.01567335       0.31983831       0.98348420 </v>
    <v>       0.00557821       0.66133418       0.66013473 </v>
    <v>       0.47408434       0.00288221       0.31679745 </v>
    <v>       0.28405746       0.83250598       0.51258575 </v>
    <v>       0.74953794       0.17823044       0.17273963 </v>
   </varray>
  </structure>
  <varray name="forces" >
   <v>      -0.02153946      -0.01392625       0.01806101 </v>
   <v>       0.02583101       0.00054869       0.00827784 </v>
   <v>      -0.05278919      -0.01170329      -0.04551917 </v>
   <v>       0.09664755      -0.03240695      -0.07438958 </v>
   <v>      -0.00331265      -0.02082024      -0.00507049 </v>
   <v>       0.02588501       0.02182558       0.03317348 </v>
   <v>       0.17453010       0.03208017       0.05142103 </v>
   <v>       0.09077156       0.02288572       0.05009498 </v>
   <v>      -0.03048136       0.02549729       0.03136131 </v>
   <v>       0.01540617      -0.11329437      -0.09550290 </v>
   <v>      -0.06145444       0.04545666       0.05033472 </v>
   <v>       0.02332912      -0.01433485       0.02368649 </v>
   <v>      -0.00943680       0.01737533      -0.02819294 </v>
   <v>      -0.16196008       0.07137168       0.00327746 </v>
   <v>      -0.04678023       0.03993150      -0.08284475 </v>
   <v>      -0.06325311       0.01481657      -0.05158660 </v>
   <v>       0.01962614      -0.01631871      -0.01653341 </v>
   <v>      -0.02049573       0.02092560      -0.04904622 </v>
   <v>       0.05130062      -0.01002443      -0.02425637 </v>
   <v>      -0.12299931      -0.09129936       0.03167839 </v>
   <v>       0.00426507      -0.04554701       0.06209111 </v>
   <v>       0.01202131       0.04592493      -0.03346449 </v>
   <v>      -0.00555162      -0.04723490       0.03666392 </v>
   <v>      -0.08100487       0.01126310       0.04375391 </v>
   <v>      -0.03858259       0.01310092       0.08827187 </v>
   <v>       0.04669611      -0.04427543      -0.04714537 </v>
   <v>      -0.02447083      -0.02468256      -0.04863239 </v>
   <v>       0.05334148       0.00767236      -0.10937987 </v>
   <v>      -0.00434633       0.06641592      -0.06574283 </v>
   <v>       0.10227135      -0.02340718       0.02343788 </v>
   <v>      -0.01145940       0.00160330      -0.00856838 </v>
   <v>      -0.01082797      -0.01834058       0.12017892 </v>
   <v>      -0.02048611       0.05751357      -0.01968762 </v>
   <v>       0.01774169       0.06373491       0.11202002 </v>
   <v>       0.05733409      -0.05173108      -0.02170408 </v>
   <v>      -0.02576632      -0.00059661       0.03948311 </v>
  </varray>
  <varray name="stress" >
   <v>       3.50230264      -0.08727808      -0.50400493 </v>
   <v>      -0.08727805       5.47005206      -0.00496482 </v>
   <v>      -0.50400493      -0.00496480       3.80555792 </v>
  </varray>
  <energy>
   <i name="e_fr_energy">   -368.44574015 </i>
   <i name="e_wo_entrp">   -368.45300155 </i>
   <i name="e_0_energy">      0.02178421 </i>
  </energy>
  <time name="totalsc">   11.05   11.45</time>
 </calculation>
 <calculation>
  <scstep>
   <time name="dav">    0.78    0.78</time>
   <time name="total">    1.00    1.07</time>
   <energy>
    <i name="alphaZ">   1291.09699690 </i>
    <i name="ewald"> -14755.95257254 </i>
    <i name="hartreedc">  -5393.40721212 </i>
    <i name="XCdc">   -797.97494957 </i>
    <i name="pawpsdc">  29469.18869373 </i>
    <i name="pawaedc"> -27641.76620871 </i>
    <i name="eentropy">      0.01668713 </i>
    <i name="bandstr">  -1782.71714968 </i>
    <i name="atom">  19243.23461550 </i>
    <i name="e_fr_energy">   -368.28109938 </i>
    <i name="e_wo_entrp">   -368.29778651 </i>
    <i name="e_0_energy">   -368.28666175 </i>
   </energy>
  </scstep>
  <scstep>
   <time name="diag">    0.07    0.07</time>
   <time name="diis">    0.82    0.83</time>
   <time name="orth">    0.01    0.01</time>
   <time name="total">    0.97    1.02</time>
   <energy>
    <i name="e_fr_energy">   -368.52071949 </i>
    <i name="e_wo_entrp">   -368.53983950 </i>
    <i name="e_0_energy">   -368.52709283 </i>
   </energy>
  </scstep>
  <scstep>
   <time name="diag">    0.07    0.07</time>
   <time name="diis">    0.74    0.75</time>
   <time name="orth">    0.01    0.01</time>
   <time name="total">    0.89    0.91</time>
   <energy>
    <i name="e_fr_energy">   -368.42928886 </i>
    <i name="e_wo_entrp">   -368.44751946 </i>
    <i name="e_0_energy">   -368.43536573 </i>
   </energy>
  </scstep>
  <scstep>
   <time name="diag">    0.07    0.07</time>
   <time name="diis">    0.74    0.74</time>
   <time name="orth">    0.01    0.01</time>
   <time name="total">    0.87    0.90</time>
   <energy>
    <i name="e_fr_energy">   -368.41171426 </i>
    <i name="e_wo_entrp">   -368.43005843 </i>
    <i name="e_0_energy">   -368.41782899 </i>
   </energy>
  </scstep>
  <scstep>
   <time name="diag">    0.06    0.06</time>
   <time name="diis">    0.72    0.72</time>
   <time name="orth">    0.01    0.01</time>
   <time name="total">    0.86    0.88</time>
   <energy>
    <i name="e_fr_energy">   -368.40759019 </i>
    <i name="e_wo_entrp">   -368.42624611 </i>
    <i name="e_0_energy">   -368.41380883 </i>
   </energy>
  </scstep>
  <scstep>
   <time name="diag">    0.08    0.08</time>
   <time name="diis">    0.73    0.73</time>
   <time name="orth">    0.01    0.01</time>
   <time name="total">    0.88    0.90</time>
   <energy>
    <i name="e_fr_energy">   -368.40652447 </i>
    <i name="e_wo_entrp">   -368.42470164 </i>
    <i name="e_0_energy">   -368.41258353 </i>
   </energy>
  </scstep>
  <scstep>
   <time name="diag">    0.07    0.07</time>
   <time name="diis">    0.79    0.79</time>
   <time name="orth">    0.01    0.01</time>
   <time name="total">    0.95    0.99</time>
   <energy>
    <i name="e_fr_energy">   -368.40654587 </i>
    <i name="e_wo_entrp">   -368.42504742 </i>
    <i name="e_0_energy">   -368.41271305 </i>
   </energy>
  </scstep>
  <scstep>
   <time name="diag">    0.06    0.06</time>
   <time name="diis">    0.86    0.87</time>
   <time name="orth">    0.01    0.01</time>
   <time name="total">    1.00    1.02</time>
   <energy>
    <i name="e_fr_energy">   -368.40653733 </i>
    <i name="e_wo_entrp">   -368.42493899 </i>
    <i name="e_0_energy">   -368.41267122 </i>
   </energy>
  </scstep>
  <scstep>
   <time name="diag">    0.07    0.07</time>
   <time name="diis">    0.75    0.75</time>
   <time name="orth">    0.01    0.01</time>
   <time name="total">    0.90    0.92</time>
   <energy>
    <i name="e_fr_energy">   -368.40658433 </i>
    <i name="e_wo_entrp">   -368.42489928 </i>
    <i name="e_0_energy">   -368.41268931 </i>
   </energy>
  </scstep>
  <scstep>
[...]
       <r>    6.0724    1.0000 </r>
       <r>    6.1116    1.0000 </r>
       <r>    6.1402    1.0000 </r>
       <r>    6.1710    1.0000 </r>
       <r>    6.2485    1.0000 </r>
       <r>    6.2659    1.0000 </r>
       <r>    6.3584    1.0000 </r>
       <r>    6.3764    1.0000 </r>
       <r>    6.4014    1.0000 </r>
       <r>    6.4444    1.0001 </r>
       <r>    6.4952    1.0005 </r>
       <r>    6.5125    1.0009 </r>
       <r>    6.5497    1.0027 </r>
       <r>    6.5991    1.0089 </r>
       <r>    6.6168    1.0126 </r>
       <r>    6.6487    1.0214 </r>
       <r>    6.6843    1.0318 </r>
       <r>    6.7302    1.0323 </r>
       <r>    6.7530    1.0179 </r>
       <r>    6.7793    0.9809 </r>
       <r>    6.7919    0.9534 </r>
       <r>    6.8104    0.9007 </r>
       <r>    6.8920    0.5125 </r>
       <r>    6.9391    0.2589 </r>
       <r>    6.9622    0.1564 </r>
       <r>    7.0020    0.0338 </r>
       <r>    7.0219   -0.0021 </r>
       <r>    7.0680   -0.0347 </r>
       <r>    7.1158   -0.0287 </r>
       <r>    7.1479   -0.0189 </r>
       <r>    7.1973   -0.0075 </r>
       <r>    7.2126   -0.0053 </r>
       <r>    7.2340   -0.0031 </r>
       <r>    7.2808   -0.0008 </r>
       <r>    7.3489   -0.0001 </r>
       <r>    7.3979   -0.0000 </r>
       <r>    7.4517   -0.0000 </r>
       <r>    7.4769   -0.0000 </r>
       <r>    7.5148   -0.0000 </r>
       <r>    7.5475   -0.0000 </r>
       <r>    7.5976   -0.0000 </r>
       <r>    7.6771   -0.0000 </r>
       <r>    7.7049   -0.0000 </r>
       <r>    7.7452   -0.0000 </r>
       <r>    7.8208   -0.0000 </r>
       <r>    8.0543   -0.0000 </r>
       <r>    8.1512   -0.0000 </r>
       <r>    8.2333   -0.0000 </r>
       <r>    8.8294   -0.0000 </r>
      </set>
     </set>
    </set>
   </array>
  </eigenvalues>
  <separator name="orbital magnetization" >
   <v name="MAGDIPOLOUT">      0.00000000      0.00000000      0.00000000</v>
  </separator>
  <dos>
   <i name="efermi">      6.89419544 </i>
   <total>
    <array>
     <dimension dim="1">gridpoints</dimension>
     <dimension dim="2">spin</dimension>
     <field>energy</field>
     <field>total</field>
     <field>integrated</field>
     <set>
      <set comment="spin 1">
       <r>   -50.0840     0.0000     0.0000 </r>
       <r>   -49.8783     0.0000     0.0000 </r>
       <r>   -49.6726     0.0000     0.0000 </r>
       <r>   -49.4668     0.0000     0.0000 </r>
       <r>   -49.2611     0.0000     0.0000 </r>
       <r>   -49.0554     0.0000     0.0000 </r>
       <r>   -48.8496     0.0000     0.0000 </r>
       <r>   -48.6439    -0.0000    -0.0000 </r>
       <r>   -48.4382    -0.0000    -0.0000 </r>
       <r>   -48.2324    -0.0000    -0.0000 </r>
       <r>   -48.0267    -0.0000    -0.0000 </r>
       <r>   -47.8210    -0.0000    -0.0000 </r>
       <r>   -47.6153    -0.0500    -0.0103 </r>
       <r>   -47.4095    -1.1471    -0.2463 </r>
       <r>   -47.2038    27.9613     5.5062 </r>
       <r>   -46.9981    23.1206    10.2628 </r>
       <r>   -46.7923    -1.2517    10.0053 </r>
       <r>   -46.5866    -0.0255    10.0000 </r>
       <r>   -46.3809    -0.0000    10.0000 </r>
       <r>   -46.1752    -0.0000    10.0000 </r>
       <r>   -45.9694     0.0000    10.0000 </r>
       <r>   -45.7637     0.0000    10.0000 </r>
       <r>   -45.5580     0.0000    10.0000 </r>
       <r>   -45.3522     0.0000    10.0000 </r>
       <r>   -45.1465     0.0000    10.0000 </r>
       <r>   -44.9408     0.0000    10.0000 </r>
       <r>   -44.7350     0.0000    10.0000 </r>
       <r>   -44.5293     0.0000    10.0000 </r>
       <r>   -44.3236     0.0000    10.0000 </r>
       <r>   -44.1179     0.0000    10.0000 </r>
       <r>   -43.9121     0.0000    10.0000 </r>
       <r>   -43.7064     0.0000    10.0000 </r>
       <r>   -43.5007     0.0000    10.0000 </r>
       <r>   -43.2949     0.0000    10.0000 </r>
       <r>   -43.0892     0.0000    10.0000 </r>
       <r>   -42.8835     0.0000    10.0000 </r>
       <r>   -42.6778    -0.0000    10.0000 </r>
       <r>   -42.4720    -0.0000    10.0000 </r>
       <r>   -42.2663    -0.0000    10.0000 </r>
       <r>   -42.0606    -0.0000    10.0000 </r>
       <r>   -41.8548    -0.0002    10.0000 </r>
       <r>   -41.6491    -0.1401     9.9711 </r>
       <r>   -41.4434     0.3727    10.0478 </r>
       <r>   -41.2376    27.9619    15.8004 </r>
       <r>   -41.0319    36.3719    23.2832 </r>
       <r>   -40.8262     3.8695    24.0793 </r>
       <r>   -40.6205    -0.3838    24.0003 </r>
       <r>   -40.4147    -0.0014    24.0000 </r>
       <r>   -40.2090    -0.0000    24.0000 </r>
       <r>   -40.0033    -0.0000    24.0000 </r>
       <r>   -39.7975     0.0000    24.0000 </r>
       <r>   -39.5918     0.0000    24.0000 </r>
       <r>   -39.3861     0.0000    24.0000 </r>
       <r>   -39.1804     0.0000    24.0000 </r>
       <r>   -38.9746     0.0000    24.0000 </r>
       <r>   -38.7689     0.0000    24.0000 </r>
       <r>   -38.5632     0.0000    24.0000 </r>
       <r>   -38.3574     0.0000    24.0000 </r>
       <r>   -38.1517     0.0000    24.0000 </r>
       <r>   -37.9460     0.0000    24.0000 </r>
       <r>   -37.7402     0.0000    24.0000 </r>
       <r>   -37.5345     0.0000    24.0000 </r>
       <r>   -37.3288     0.0000    24.0000 </r>
       <r>   -37.1231     0.0000    24.0000 </r>
       <r>   -36.9173     0.0000    24.0000 </r>
       <r>   -36.7116     0.0000    24.0000 </r>
       <r>   -36.5059     0.0000    24.0000 </r>
       <r>   -36.3001     0.0000    24.0000 </r>
       <r>   -36.0944     0.0000    24.0000 </r>
       <r>   -35.8887     0.0000    24.0000 </r>
       <r>   -35.6829     0.0000    24.0000 </r>
       <r>   -35.4772     0.0000    24.0000 </r>
       <r>   -35.2715     0.0000    24.0000 </r>
       <r>   -35.0658     0.0000    24.0000 </r>
       <r>   -34.8600     0.0000    24.0000 </r>
       <r>   -34.6543     0.0000    24.0000 </r>
       <r>   -34.4486     0.0000    24.0000 </r>
       <r>   -34.2428     0.0000    24.0000 </r>
       <r>   -34.0371     0.0000    24.0000 </r>
       <r>   -33.8314     0.0000    24.0000 </r>
       <r>   -33.6257     0.0000    24.0000 </r>
       <r>   -33.4199     0.0000    24.0000 </r>
       <r>   -33.2142     0.0000    24.0000 </r>
       <r>   -33.0085     0.0000    24.0000 </r>
       <r>   -32.8027     0.0000    24.0000 </r>
       <r>   -32.5970     0.0000    24.0000 </r>
       <r>   -32.3913     0.0000    24.0000 </r>
       <r>   -32.1855     0.0000    24.0000 </r>
       <r>   -31.9798     0.0000    24.0000 </r>
       <r>   -31.7741     0.0000    24.0000 </r>
       <r>   -31.5684     0.0000    24.0000 </r>
       <r>   -31.3626     0.0000    24.0000 </r>
       <r>   -31.1569     0.0000    24.0000 </r>
       <r>   -30.9512     0.0000    24.0000 </r>
       <r>   -30.7454     0.0000    24.0000 </r>
       <r>   -30.5397     0.0000    24.0000 </r>
       <r>   -30.3340     0.0000    24.0000 </r>
       <r>   -30.1283     0.0000    24.0000 </r>
       <r>   -29.9225     0.0000    24.0000 </r>
       <r>   -29.7168     0.0000    24.0000 </r>
       <r>   -29.5111     0.0000    24.0000 </r>
       <r>   -29.3053     0.0000    24.0000 </r>
       <r>   -29.0996     0.0000    24.0000 </r>
       <r>   -28.8939     0.0000    24.0000 </r>
       <r>   -28.6881     0.0000    24.0000 </r>
       <r>   -28.4824     0.0000    24.0000 </r>
       <r>   -28.2767     0.0000    24.0000 </r>
       <r>   -28.0710     0.0000    24.0000 </r>
       <r>   -27.8652     0.0000    24.0000 </r>
       <r>   -27.6595     0.0000    24.0000 </r>
       <r>   -27.4538     0.0000    24.0000 </r>
       <r>   -27.2480     0.0000    24.0000 </r>
       <r>   -27.0423     0.0000    24.0000 </r>
       <r>   -26.8366     0.0000    24.0000 </r>
       <r>   -26.6309     0.0000    24.0000 </r>
       <r>   -26.4251     0.0000    24.0000 </r>
       <r>   -26.2194     0.0000    24.0000 </r>
       <r>   -26.0137     0.0000    24.0000 </r>
       <r>   -25.8079     0.0000    24.0000 </r>
       <r>   -25.6022     0.0000    24.0000 </r>
       <r>   -25.3965     0.0000    24.0000 </r>
       <r>   -25.1907     0.0000    24.0000 </r>
       <r>   -24.9850    -0.0000    24.0000 </r>
       <r>   -24.7793    -0.0000    24.0000 </r>
       <r>   -24.5736    -0.0000    24.0000 </r>
       <r>   -24.3678    -0.0000    24.0000 </r>
       <r>   -24.1621    -0.0000    24.0000 </r>
       <r>   -23.9564    -0.0114    23.9977 </r>
       <r>   -23.7506    -0.7128    23.8510 </r>
       <r>   -23.5449     8.8684    25.6755 </r>
       <r>   -23.3392    66.6514    39.3877 </r>
       <r>   -23.1335    69.9474    53.7779 </r>
       <r>   -22.9277     1.4665    54.0796 </r>
       <r>   -22.7220    -0.3859    54.0002 </r>
       <r>   -22.5163    -0.0011    54.0000 </r>
       <r>   -22.3105    -0.0000    54.0000 </r>
       <r>   -22.1048    -0.0000    54.0000 </r>
       <r>   -21.8991     0.0000    54.0000 </r>
       <r>   -21.6933     0.0000    54.0000 </r>
       <r>   -21.4876     0.0000    54.0000 </r>
       <r>   -21.2819     0.0000    54.0000 </r>
       <r>   -21.0762    -0.0000    54.0000 </r>
       <r>   -20.8704    -0.0000    54.0000 </r>
       <r>   -20.6647    -0.0000    54.0000 </r>
       <r>   -20.4590    -0.0000    54.0000 </r>
       <r>   -20.2532    -0.0005    53.9999 </r>
       <r>   -20.0475    -0.1755    53.9638 </r>
       <r>   -19.8418     1.6624    54.3058 </r>
       <r>   -19.6361    16.5104    57.7024 </r>
       <r>   -19.4303    35.8328    65.0743 </r>
       <r>   -19.2246    88.5931    83.3005 </r>
       <r>   -19.0189    51.9461    93.9874 </r>
       <r>   -18.8131     9.1478    95.8693 </r>
       <r>   -18.6074     0.7279    96.0191 </r>
       <r>   -18.4017    -0.0926    96.0000 </r>
       <r>   -18.1959    -0.0001    96.0000 </r>
       <r>   -17.9902    -0.0000    96.0000 </r>
       <r>   -17.7845    -0.0000    96.0000 </r>
       <r>   -17.5788     0.0000    96.0000 </r>
       <r>   -17.3730     0.0000    96.0000 </r>
       <r>   -17.1673     0.0000    96.0000 </r>
       <r>   -16.9616     0.0000    96.0000 </r>
       <r>   -16.7558     0.0000    96.0000 </r>
       <r>   -16.5501     0.0000    96.0000 </r>
       <r>   -16.3444     0.0000    96.0000 </r>
       <r>   -16.1387     0.0000    96.0000 </r>
       <r>   -15.9329     0.0000    96.0000 </r>
       <r>   -15.7272     0.0000    96.0000 </r>
       <r>   -15.5215     0.0000    96.0000 </r>
       <r>   -15.3157     0.0000    96.0000 </r>
       <r>   -15.1100     0.0000    96.0000 </r>
       <r>   -14.9043     0.0000    96.0000 </r>
       <r>   -14.6985     0.0000    96.0000 </r>
       <r>   -14.4928     0.0000    96.0000 </r>
       <r>   -14.2871     0.0000    96.0000 </r>
       <r>   -14.0814     0.0000    96.0000 </r>
       <r>   -13.8756     0.0000    96.0000 </r>
       <r>   -13.6699     0.0000    96.0000 </r>
       <r>   -13.4642     0.0000    96.0000 </r>
       <r>   -13.2584     0.0000    96.0000 </r>
       <r>   -13.0527     0.0000    96.0000 </r>
       <r>   -12.8470     0.0000    96.0000 </r>
       <r>   -12.6413     0.0000    96.0000 </r>
       <r>   -12.4355     0.0000    96.0000 </r>
       <r>   -12.2298     0.0000    96.0000 </r>
       <r>   -12.0241     0.0000    96.0000 </r>
       <r>   -11.8183     0.0000    96.0000 </r>
       <r>   -11.6126     0.0000    96.0000 </r>
       <r>   -11.4069     0.0000    96.0000 </r>
       <r>   -11.2011     0.0000    96.0000 </r>
       <r>   -10.9954     0.0000    96.0000 </r>
       <r>   -10.7897     0.0000    96.0000 </r>
       <r>   -10.5840     0.0000    96.0000 </r>
       <r>   -10.3782     0.0000    96.0000 </r>
       <r>   -10.1725     0.0000    96.0000 </r>
       <r>    -9.9668     0.0000    96.0000 </r>
       <r>    -9.7610     0.0000    96.0000 </r>
       <r>    -9.5553     0.0000    96.0000 </r>
       <r>    -9.3496     0.0000    96.0000 </r>
       <r>    -9.1439     0.0000    96.0000 </r>
       <r>    -8.9381     0.0000    96.0000 </r>
       <r>    -8.7324     0.0000    96.0000 </r>
       <r>    -8.5267     0.0000    96.0000 </r>
       <r>    -8.3209     0.0000    96.0000 </r>
       <r>    -8.1152     0.0000    96.0000 </r>
       <r>    -7.9095     0.0000    96.0000 </r>
       <r>    -7.7037     0.0000    96.0000 </r>
       <r>    -7.4980     0.0000    96.0000 </r>
       <r>    -7.2923     0.0000    96.0000 </r>
       <r>    -7.0866     0.0000    96.0000 </r>
       <r>    -6.8808     0.0000    96.0000 </r>
       <r>    -6.6751     0.0000    96.0000 </r>
       <r>    -6.4694     0.0000    96.0000 </r>
       <r>    -6.2636     0.0000    96.0000 </r>
       <r>    -6.0579     0.0000    96.0000 </r>
       <r>    -5.8522     0.0000    96.0000 </r>
       <r>    -5.6464     0.0000    96.0000 </r>
       <r>    -5.4407     0.0000    96.0000 </r>
       <r>    -5.2350     0.0000    96.0000 </r>
       <r>    -5.0293     0.0000    96.0000 </r>
       <r>    -4.8235     0.0000    96.0000 </r>
       <r>    -4.6178     0.0000    96.0000 </r>
       <r>    -4.4121     0.0000    96.0000 </r>
       <r>    -4.2063     0.0000    96.0000 </r>
       <r>    -4.0006     0.0000    96.0000 </r>
       <r>    -3.7949     0.0000    96.0000 </r>
       <r>    -3.5892     0.0000    96.0000 </r>
       <r>    -3.3834     0.0000    96.0000 </r>
       <r>    -3.1777     0.0000    96.0000 </r>
       <r>    -2.9720     0.0000    96.0000 </r>
       <r>    -2.7662     0.0000    96.0000 </r>
       <r>    -2.5605     0.0000    96.0000 </r>
       <r>    -2.3548     0.0000    96.0000 </r>
       <r>    -2.1490     0.0000    96.0000 </r>
       <r>    -1.9433     0.0000    96.0000 </r>
       <r>    -1.7376     0.0000    96.0000 </r>
       <r>    -1.5319     0.0000    96.0000 </r>
       <r>    -1.3261    -0.0000    96.0000 </r>
       <r>    -1.1204    -0.0000    96.0000 </r>
       <r>    -0.9147    -0.0000    96.0000 </r>
       <r>    -0.7089    -0.0000    96.0000 </r>
       <r>    -0.5032    -0.0001    96.0000 </r>
       <r>    -0.2975    -0.0091    95.9981 </r>
       <r>    -0.0918     0.1109    96.0209 </r>
       <r>     0.1140     0.5447    96.1330 </r>
       <r>     0.3197     1.3853    96.4180 </r>
       <r>     0.5254     1.9133    96.8116 </r>
       <r>     0.7312     2.6351    97.3537 </r>
       <r>     0.9369     4.6473    98.3098 </r>
       <r>     1.1426     1.6973    98.6590 </r>
       <r>     1.3484     4.9803    99.6836 </r>
       <r>     1.5541     2.8245   100.2647 </r>
       <r>     1.7598     3.9815   101.0838 </r>
       <r>     1.9655     4.1249   101.9324 </r>
       <r>     2.1713     7.4233   103.4596 </r>
       <r>     2.3770     8.7125   105.2520 </r>
       <r>     2.5827     7.9625   106.8901 </r>
       <r>     2.7885     7.0670   108.3440 </r>
       <r>     2.9942     8.8174   110.1580 </r>
       <r>     3.1999    17.6207   113.7831 </r>
       <r>     3.4056    19.7675   117.8499 </r>
       <r>     3.6114    22.8058   122.5417 </r>
       <r>     3.8171    26.7453   128.0440 </r>
       <r>     4.0228    30.7853   134.3774 </r>
       <r>     4.2286    32.8689   141.1395 </r>
       <r>     4.4343    38.5449   149.0694 </r>
       <r>     4.6400    36.0983   156.4958 </r>
       <r>     4.8458    32.3076   163.1425 </r>
       <r>     5.0515    33.8065   170.0974 </r>
       <r>     5.2572    26.5621   175.5621 </r>
       <r>     5.4629    15.4673   178.7441 </r>
       <r>     5.6687    46.3005   188.2695 </r>
       <r>     5.8744    62.8605   201.2018 </r>
       <r>     6.0801    56.3574   212.7961 </r>
       <r>     6.2859    56.7507   224.4714 </r>
       <r>     6.4916    53.9192   235.5642 </r>
       <r>     6.6973    56.0779   247.1011 </r>
       <r>     6.9030    50.1128   257.4108 </r>
       <r>     7.1088    47.5499   267.1932 </r>
       <r>     7.3145    49.1563   277.3061 </r>
       <r>     7.5202    43.3018   286.2145 </r>
       <r>     7.7260    33.6647   293.1403 </r>
       <r>     7.9317    28.5061   299.0049 </r>
       <r>     8.1374    22.1512   303.5621 </r>
       <r>     8.3432    16.6551   306.9885 </r>
       <r>     8.5489     9.9316   309.0317 </r>
       <r>     8.7546    11.3996   311.3770 </r>
       <r>     8.9603     3.2001   312.0353 </r>
       <r>     9.1661    -0.1659   312.0012 </r>
       <r>     9.3718    -0.0058   312.0000 </r>
       <r>     9.5775    -0.0000   312.0000 </r>
       <r>     9.7833    -0.0000   312.0000 </r>
       <r>     9.9890     0.0000   312.0000 </r>
       <r>    10.1947     0.0000   312.0000 </r>
       <r>    10.4004     0.0000   312.0000 </r>
       <r>    10.6062     0.0000   312.0000 </r>
       <r>    10.8119     0.0000   312.0000 </r>
       <r>    11.0176     0.0000   312.0000 </r>
       <r>    11.2234     0.0000   312.0000 </r>
       <r>    11.4291     0.0000   312.0000 </r>
       <r>    11.6348     0.0000   312.0000 </r>
      </set>
     </set>
    </array>
   </total>
  </dos>
 </calculation>
 <structure name="finalpos" >
  <crystal>
   <varray name="basis" >
    <v>       6.96937995      -0.01285879       0.00380653 </v>
    <v>      -0.01834777      10.24400992       0.02191134 </v>
    <v>       0.00583220       0.02151754      10.20596211 </v>
   </varray>
   <i name="volume">    728.64258967 </i>
   <varray name="rec_basis" >
    <v>       0.14348531       0.00025717      -0.00008254 </v>
    <v>       0.00018022       0.09761879      -0.00020592 </v>
    <v>      -0.00005390      -0.00020968       0.09798242 </v>
   </varray>
  </crystal>
  <varray name="positions" >
   <v>       0.76299534       0.49482183       0.17197366 </v>
   <v>       0.25733469       0.82903101       0.84073977 </v>
   <v>       0.72146197       0.83034127       0.49057860 </v>
   <v>       0.75460197       0.49223420       0.83278613 </v>
   <v>       0.22634580       0.50461725       0.15658065 </v>
   <v>       0.01750802       0.68083369       0.33963820 </v>
   <v>       0.76709210       0.17875656       0.49440520 </v>
   <v>       0.46432048       0.33566883       0.33612626 </v>
   <v>       0.01662590       0.99543739       0.33286366 </v>
   <v>       0.51093620       0.66312213       0.00462178 </v>
   <v>       0.51604577       0.01340109       0.67990379 </v>
   <v>       0.98990691       0.00073886       0.67161764 </v>
   <v>       0.74047369       0.83265534       0.17152932 </v>
   <v>       0.23010220       0.17642722       0.51142100 </v>
   <v>       0.03590721       0.33225787       0.33878818 </v>
   <v>       0.25334985       0.49655876       0.82700322 </v>
   <v>       0.25176905       0.82610531       0.15015400 </v>
   <v>       0.48830173       0.33022345       0.66760585 </v>
   <v>       0.48601299       0.32682634       0.99168288 </v>
   <v>       0.25864946       0.49998195       0.50987330 </v>
   <v>       0.48473964       0.66322694       0.31359014 </v>
   <v>       0.50509583       0.99933470      -0.00118751 </v>
   <v>       0.50253764       0.65339149       0.68187025 </v>
   <v>       0.74145645       0.82395772       0.83872709 </v>
   <v>       0.01540250       0.33551002       0.66852895 </v>
   <v>       0.25812360       0.16727672       0.15807731 </v>
   <v>       0.98125702       0.67795969       0.00192585 </v>
   <v>       0.74037046       0.18171560       0.83322616 </v>
   <v>       0.26292168       0.16790713       0.82942617 </v>
   <v>       0.74471472       0.49667197       0.49691194 </v>
   <v>       0.99235361       0.00004922       0.99869436 </v>
   <v>       0.01596699       0.31560872       0.99104564 </v>
   <v>       0.00010909       0.67173388       0.66108885 </v>
   <v>       0.47288535       0.00426581       0.32306679 </v>
   <v>       0.28891463       0.82597964       0.51132992 </v>
   <v>       0.74340945       0.17537539       0.17378498 </v>
  </varray>
 </structure>
</modeling>
