       N       E                     dE             d eps       ncg     rms          rms(c)
DAV:   1     0.141495297599E+04    0.14150E+04   -0.93645E+04  4776   0.102E+03
DAV:   2    -0.124394721901E+03   -0.15393E+04   -0.14827E+04  4840   0.346E+02
DAV:   3    -0.343800336461E+03   -0.21941E+03   -0.20812E+03  7504   0.100E+02
DAV:   4    -0.371200558427E+03   -0.27400E+02   -0.25988E+02  7432   0.294E+01
DAV:   5    -0.374246233797E+03   -0.30457E+01   -0.29433E+01  7248   0.101E+01    0.658E+01
RMM:   6    -0.364365047125E+03    0.98812E+01   -0.25465E+01  6452   0.949E+00    0.317E+01
RMM:   7    -0.364982465691E+03   -0.61742E+00   -0.27110E+01  6597   0.804E+00    0.110E+01
RMM:   8    -0.359826751878E+03    0.51557E+01   -0.69209E+00  6781   0.424E+00    0.378E+00
RMM:   9    -0.359623255013E+03    0.20350E+00   -0.23786E+00  6879   0.191E+00    0.245E+00
RMM:  10    -0.359599993670E+03    0.23261E-01   -0.50029E-01  6915   0.993E-01    0.150E+00
RMM:  11    -0.359576642128E+03    0.23352E-01   -0.17260E-01  6857   0.605E-01    0.715E-01
RMM:  12    -0.359577508656E+03   -0.86653E-03   -0.87976E-02  6929   0.406E-01    0.440E-01
RMM:  13    -0.359576765393E+03    0.74326E-03   -0.36983E-02  6923   0.222E-01    0.227E-01
RMM:  14    -0.359578612443E+03   -0.18471E-02   -0.24227E-02  6999   0.125E-01    0.139E-01
RMM:  15    -0.359579545688E+03   -0.93325E-03   -0.12180E-02  6827   0.857E-02    0.740E-02
RMM:  16    -0.359580067701E+03   -0.52201E-03   -0.65858E-03  6172   0.518E-02    0.364E-02
RMM:  17    -0.359580381464E+03   -0.31376E-03   -0.37020E-03  5940   0.396E-02    0.183E-02
RMM:  18    -0.359580584596E+03   -0.20313E-03   -0.21460E-03  5309   0.258E-02    0.110E-02
RMM:  19    -0.359580707590E+03   -0.12299E-03   -0.13183E-03  4338   0.202E-02    0.629E-03
RMM:  20    -0.359580784097E+03   -0.76507E-04   -0.81215E-04  4086   0.162E-02    0.387E-03
RMM:  21    -0.359580829962E+03   -0.45864E-04   -0.49331E-04  3788   0.140E-02    0.273E-03
RMM:  22    -0.359580862973E+03   -0.33011E-04   -0.34937E-04  3634   0.122E-02    0.176E-03
RMM:  23    -0.359580880880E+03   -0.17907E-04   -0.19191E-04  3341   0.104E-02    0.150E-03
RMM:  24    -0.359580892970E+03   -0.12090E-04   -0.12915E-04  3191   0.965E-03    0.113E-03
RMM:  25    -0.359580900236E+03   -0.72667E-05   -0.79484E-05  2914   0.890E-03
   1 F= -.35958090E+03 E0= -.35958460E+03  d E =-.359581E+03
       N       E                     dE             d eps       ncg     rms          rms(c)
DAV:   1    -0.359662559209E+03   -0.81666E-01   -0.21542E+00  5072   0.466E+00    0.186E+00
RMM:   2    -0.359648382967E+03    0.14176E-01   -0.19186E-01  6822   0.112E+00    0.654E-01
RMM:   3    -0.359637403694E+03    0.10979E-01   -0.59048E-02  6962   0.390E-01    0.504E-01
RMM:   4    -0.359630826938E+03    0.65768E-02   -0.14880E-02  6954   0.275E-01    0.243E-01
RMM:   5    -0.359629990244E+03    0.83669E-03   -0.43989E-03  6895   0.129E-01    0.176E-01
RMM:   6    -0.359630094652E+03   -0.10441E-03   -0.17708E-03  7053   0.692E-02    0.105E-01
RMM:   7    -0.359630104247E+03   -0.95949E-05   -0.77143E-04  6537   0.492E-02    0.533E-02
RMM:   8    -0.359630130496E+03   -0.26249E-04   -0.39115E-04  5991   0.288E-02    0.392E-02
RMM:   9    -0.359630149204E+03   -0.18708E-04   -0.14896E-04  5054   0.218E-02    0.276E-02
RMM:  10    -0.359630157216E+03   -0.80117E-05   -0.86157E-05  4700   0.166E-02
   2 F= -.35963016E+03 E0= -.35963403E+03  d E =-.492570E-01
       N       E                     dE             d eps       ncg     rms          rms(c)
DAV:   1    -0.359916384892E+03   -0.28624E+00   -0.15792E+01  4608   0.126E+01    0.488E+00
RMM:   2    -0.359814744490E+03    0.10164E+00   -0.14083E+00  6827   0.304E+00    0.179E+00
RMM:   3    -0.359728087264E+03    0.86657E-01   -0.42233E-01  6954   0.105E+00    0.135E+00
RMM:   4    -0.359682378217E+03    0.45709E-01   -0.11017E-01  6953   0.747E-01    0.653E-01
RMM:   5    -0.359675995504E+03    0.63827E-02   -0.32375E-02  6904   0.353E-01    0.469E-01
RMM:   6    -0.359676976167E+03   -0.98066E-03   -0.12739E-02  7192   0.186E-01    0.284E-01
RMM:   7    -0.359677206455E+03   -0.23029E-03   -0.55316E-03  7316   0.132E-01    0.144E-01
RMM:   8    -0.359677479796E+03   -0.27334E-03   -0.29819E-03  7359   0.756E-02    0.106E-01
RMM:   9    -0.359677679648E+03   -0.19985E-03   -0.10531E-03  6669   0.508E-02    0.770E-02
RMM:  10    -0.359677823170E+03   -0.14352E-03   -0.63607E-04  6451   0.371E-02    0.368E-02
RMM:  11    -0.359677830987E+03   -0.78168E-05   -0.30476E-04  5676   0.267E-02    0.150E-02
RMM:  12    -0.359677834132E+03   -0.31454E-05   -0.12981E-04  5183   0.180E-02    0.105E-02
RMM:  13    -0.359677834510E+03   -0.37776E-06   -0.41957E-05  4112   0.138E-02
   3 F= -.35967783E+03 E0= -.35968205E+03  d E =-.969343E-01
       N       E                     dE             d eps       ncg     rms          rms(c)
DAV:   1    -0.359714750768E+03   -0.36917E-01   -0.14112E+00  4576   0.274E+00    0.556E-01
RMM:   2    -0.359714849755E+03   -0.98987E-04   -0.45971E-02  6720   0.532E-01    0.277E-01
RMM:   3    -0.359712947728E+03    0.19020E-02   -0.96213E-03  6849   0.138E-01    0.197E-01
RMM:   4    -0.359712475820E+03    0.47191E-03   -0.25306E-03  7011   0.785E-02    0.127E-01
RMM:   5    -0.359712403857E+03    0.71962E-04   -0.10278E-03  6961   0.565E-02    0.712E-02
RMM:   6    -0.359712435482E+03   -0.31625E-04   -0.45957E-04  6397   0.296E-02    0.461E-02
RMM:   7    -0.359712438269E+03   -0.27868E-05   -0.20558E-04  5822   0.207E-02    0.286E-02
RMM:   8    -0.359712448143E+03   -0.98736E-05   -0.79086E-05  4387   0.138E-02
   4 F= -.35971245E+03 E0= -.35971675E+03  d E =-.346136E-01
       N       E                     dE             d eps       ncg     rms          rms(c)
DAV:   1    -0.359803916368E+03   -0.91478E-01   -0.12682E+01  4480   0.821E+00    0.168E+00
RMM:   2    -0.359805676065E+03   -0.17597E-02   -0.41367E-01  6705   0.161E+00    0.825E-01
RMM:   3    -0.359787671879E+03    0.18004E-01   -0.82963E-02  6840   0.409E-01    0.573E-01
RMM:   4    -0.359783708639E+03    0.39632E-02   -0.22368E-02  6988   0.234E-01    0.367E-01
RMM:   5    -0.359783099050E+03    0.60959E-03   -0.89590E-03  6977   0.165E-01    0.208E-01
RMM:   6    -0.359783337562E+03   -0.23851E-03   -0.39969E-03  7112   0.874E-02    0.136E-01
RMM:   7    -0.359783338082E+03   -0.52009E-06   -0.17457E-03  6910   0.576E-02    0.845E-02
RMM:   8    -0.359783407638E+03   -0.69555E-04   -0.80445E-04  6317   0.373E-02    0.395E-02
RMM:   9    -0.359783432549E+03   -0.24911E-04   -0.33352E-04  5615   0.244E-02    0.202E-02
RMM:  10    -0.359783449720E+03   -0.17171E-04   -0.16793E-04  4993   0.165E-02    0.142E-02
RMM:  11    -0.359783456509E+03   -0.67889E-05   -0.61932E-05  3855   0.129E-02
   5 F= -.35978346E+03 E0= -.35978800E+03  d E =-.105622E+00
       N       E                     dE             d eps       ncg     rms          rms(c)
DAV:   1    -0.359840350859E+03   -0.56901E-01   -0.50553E+01  4480   0.166E+01    0.340E+00
RMM:   2    -0.359855218461E+03   -0.14868E-01   -0.16683E+00  6705   0.322E+00    0.164E+00
RMM:   3    -0.359783481405E+03    0.71737E-01   -0.32192E-01  6822   0.824E-01    0.111E+00
RMM:   4    -0.359769153462E+03    0.14328E-01   -0.89744E-02  6959   0.472E-01    0.705E-01
RMM:   5    -0.359766915300E+03    0.22382E-02   -0.35710E-02  6976   0.321E-01    0.403E-01
RMM:   6    -0.359767715649E+03   -0.80035E-03   -0.15774E-02  7129   0.175E-01    0.262E-01
RMM:   7    -0.359767727536E+03   -0.11887E-04   -0.67699E-03  7348   0.114E-01    0.160E-01
RMM:   8    -0.359767992473E+03   -0.26494E-03   -0.31813E-03  6964   0.714E-02    0.788E-02
RMM:   9    -0.359768077297E+03   -0.84824E-04   -0.13084E-03  6605   0.452E-02    0.444E-02
RMM:  10    -0.359768136666E+03   -0.59369E-04   -0.65107E-04  5860   0.274E-02    0.318E-02
RMM:  11    -0.359768160339E+03   -0.23673E-04   -0.24339E-04  5260   0.205E-02    0.130E-02
RMM:  12    -0.359768171280E+03   -0.10941E-04   -0.11886E-04  4388   0.155E-02    0.569E-03
RMM:  13    -0.359768178303E+03   -0.70226E-05   -0.82895E-05  3874   0.129E-02
   6 F= -.35976818E+03 E0= -.35977279E+03  d E =-.903438E-01
       N       E                     dE             d eps       ncg     rms          rms(c)
DAV:   1    -0.359827168449E+03   -0.58997E-01   -0.17244E+01  4488   0.977E+00    0.189E+00
RMM:   2    -0.359826578630E+03    0.58982E-03   -0.51559E-01  6700   0.183E+00    0.941E-01
RMM:   3    -0.359810067028E+03    0.16512E-01   -0.11272E-01  6913   0.472E-01    0.673E-01
RMM:   4    -0.359804296330E+03    0.57707E-02   -0.27985E-02  6959   0.267E-01    0.432E-01
RMM:   5    -0.359803359281E+03    0.93705E-03   -0.11886E-02  6951   0.194E-01    0.234E-01
RMM:   6    -0.359803472940E+03   -0.11366E-03   -0.49366E-03  7061   0.995E-02    0.150E-01
RMM:   7    -0.359803458881E+03    0.14060E-04   -0.22221E-03  7056   0.630E-02    0.974E-02
RMM:   8    -0.359803472634E+03   -0.13753E-04   -0.94820E-04  6509   0.401E-02    0.453E-02
RMM:   9    -0.359803480497E+03   -0.78625E-05   -0.39520E-04  5741   0.262E-02    0.241E-02
RMM:  10    -0.359803490810E+03   -0.10313E-04   -0.19228E-04  5060   0.176E-02    0.158E-02
RMM:  11    -0.359803491131E+03   -0.32083E-06   -0.71586E-05  3965   0.135E-02
   7 F= -.35980349E+03 E0= -.35980816E+03  d E =-.125657E+00
       N       E                     dE             d eps       ncg     rms          rms(c)
DAV:   1    -0.359822364641E+03   -0.18874E-01   -0.88625E-01  4624   0.293E+00    0.772E-01
RMM:   2    -0.359820358298E+03    0.20063E-02   -0.54161E-02  6700   0.619E-01    0.283E-01
RMM:   3    -0.359818608939E+03    0.17494E-02   -0.11564E-02  6914   0.196E-01    0.207E-01
RMM:   4    -0.359817575560E+03    0.10334E-02   -0.31782E-03  6965   0.119E-01    0.111E-01
RMM:   5    -0.359817475719E+03    0.99841E-04   -0.10269E-03  6919   0.600E-02    0.814E-02
RMM:   6    -0.359817518473E+03   -0.42755E-04   -0.40689E-04  6432   0.334E-02    0.477E-02
RMM:   7    -0.359817546295E+03   -0.27821E-04   -0.17718E-04  5483   0.248E-02    0.228E-02
RMM:   8    -0.359817563559E+03   -0.17264E-04   -0.10010E-04  4807   0.177E-02    0.159E-02
RMM:   9    -0.359817573370E+03   -0.98106E-05   -0.33675E-05  3736   0.130E-02
   8 F= -.35981757E+03 E0= -.35982231E+03  d E =-.140822E-01
       N       E                     dE             d eps       ncg     rms          rms(c)
DAV:   1    -0.359877953570E+03   -0.60390E-01   -0.79813E+00  4592   0.880E+00    0.234E+00
RMM:   2    -0.359859727067E+03    0.18227E-01   -0.48679E-01  6682   0.186E+00    0.841E-01
RMM:   3    -0.359844138981E+03    0.15588E-01   -0.10297E-01  6938   0.589E-01    0.613E-01
RMM:   4    -0.359834952275E+03    0.91867E-02   -0.28346E-02  6969   0.356E-01    0.328E-01
RMM:   5    -0.359834119902E+03    0.83237E-03   -0.91878E-03  6936   0.177E-01    0.243E-01
RMM:   6    -0.359834439086E+03   -0.31918E-03   -0.35148E-03  7365   0.997E-02    0.144E-01
RMM:   7    -0.359834641221E+03   -0.20214E-03   -0.17413E-03  7266   0.693E-02    0.689E-02
RMM:   8    -0.359834755109E+03   -0.11389E-03   -0.80400E-04  6396   0.425E-02    0.504E-02
RMM:   9    -0.359834823720E+03   -0.68611E-04   -0.34236E-04  5775   0.302E-02    0.383E-02
RMM:  10    -0.359834881583E+03   -0.57863E-04   -0.17185E-04  5311   0.223E-02    0.148E-02
RMM:  11    -0.359834899162E+03   -0.17579E-04   -0.85987E-05  4734   0.171E-02    0.567E-03
RMM:  12    -0.359834901481E+03   -0.23188E-05   -0.29875E-05  3714   0.132E-02
   9 F= -.35983490E+03 E0= -.35983981E+03  d E =-.314103E-01
       N       E                     dE             d eps       ncg     rms          rms(c)
DAV:   1    -0.359844280044E+03   -0.93809E-02   -0.60464E-01  4512   0.231E+00    0.385E-01
RMM:   2    -0.359844946183E+03   -0.66614E-03   -0.26312E-02  6754   0.446E-01    0.166E-01
RMM:   3    -0.359844473861E+03    0.47232E-03   -0.38935E-03  6841   0.118E-01    0.117E-01
RMM:   4    -0.359844211276E+03    0.26259E-03   -0.11187E-03  6946   0.610E-02    0.648E-02
RMM:   5    -0.359844185716E+03    0.25560E-04   -0.42264E-04  6901   0.364E-02    0.423E-02
RMM:   6    -0.359844179728E+03    0.59876E-05   -0.17329E-04  5993   0.205E-02    0.263E-02
RMM:   7    -0.359844174596E+03    0.51328E-05   -0.61908E-05  3959   0.143E-02
  10 F= -.35984417E+03 E0= -.35984912E+03  d E =-.927311E-02
       N       E                     dE             d eps       ncg     rms          rms(c)
DAV:   1    -0.359862342121E+03   -0.18162E-01   -0.54360E+00  4480   0.694E+00    0.113E+00
RMM:   2    -0.359868396488E+03   -0.60544E-02   -0.23273E-01  6741   0.133E+00    0.491E-01
RMM:   3    -0.359864104873E+03    0.42916E-02   -0.33361E-02  6867   0.352E-01    0.344E-01
RMM:   4    -0.359861853038E+03    0.22518E-02   -0.94559E-03  6917   0.180E-01    0.190E-01
RMM:   5    -0.359861673858E+03    0.17918E-03   -0.35731E-03  6945   0.107E-01    0.125E-01
RMM:   6    -0.359861680000E+03   -0.61429E-05   -0.14822E-03  7354   0.601E-02    0.796E-02
RMM:   7    -0.359861692273E+03   -0.12273E-04   -0.66701E-04  6525   0.385E-02    0.460E-02
RMM:   8    -0.359861704060E+03   -0.11787E-04   -0.29111E-04  5647   0.269E-02    0.265E-02
RMM:   9    -0.359861715497E+03   -0.11436E-04   -0.16486E-04  5027   0.200E-02    0.186E-02
RMM:  10    -0.359861717162E+03   -0.16648E-05   -0.71342E-05  4616   0.155E-02
  11 F= -.35986172E+03 E0= -.35986674E+03  d E =-.268157E-01
       N       E                     dE             d eps       ncg     rms          rms(c)
DAV:   1    -0.359851892499E+03    0.98230E-02   -0.21726E+01  4480   0.139E+01    0.222E+00
RMM:   2    -0.359878552532E+03   -0.26660E-01   -0.92889E-01  6735   0.266E+00    0.979E-01
RMM:   3    -0.359861446512E+03    0.17106E-01   -0.13336E-01  6907   0.711E-01    0.695E-01
RMM:   4    -0.359852352436E+03    0.90941E-02   -0.36687E-02  6913   0.363E-01    0.384E-01
RMM:   5    -0.359851509259E+03    0.84318E-03   -0.14048E-02  6916   0.215E-01    0.253E-01
RMM:   6    -0.359851495515E+03    0.13744E-04   -0.58051E-03  7418   0.121E-01    0.160E-01
RMM:   7    -0.359851560128E+03   -0.64613E-04   -0.27350E-03  7480   0.758E-02    0.919E-02
RMM:   8    -0.359851630923E+03   -0.70795E-04   -0.12263E-03  7027   0.491E-02    0.530E-02
RMM:   9    -0.359851681598E+03   -0.50675E-04   -0.55523E-04  6157   0.325E-02    0.390E-02
RMM:  10    -0.359851707542E+03   -0.25944E-04   -0.29382E-04  5809   0.253E-02    0.168E-02
RMM:  11    -0.359851709285E+03   -0.17430E-05   -0.12031E-04  5040   0.181E-02    0.714E-03
RMM:  12    -0.359851711419E+03   -0.21333E-05   -0.52949E-05  4103   0.135E-02
  12 F= -.35985171E+03 E0= -.35985677E+03  d E =-.168099E-01
       N       E                     dE             d eps       ncg     rms          rms(c)
DAV:   1    -0.359867683096E+03   -0.15974E-01   -0.97323E+00  4480   0.928E+00    0.154E+00
RMM:   2    -0.359876667683E+03   -0.89846E-02   -0.41751E-01  6728   0.178E+00    0.649E-01
RMM:   3    -0.359868972106E+03    0.76956E-02   -0.59225E-02  6879   0.469E-01    0.453E-01
RMM:   4    -0.359864877406E+03    0.40947E-02   -0.17202E-02  6981   0.243E-01    0.247E-01
RMM:   5    -0.359864672735E+03    0.20467E-03   -0.61364E-03  6957   0.144E-01    0.164E-01
RMM:   6    -0.359864766972E+03   -0.94237E-04   -0.25199E-03  7403   0.783E-02    0.105E-01
RMM:   7    -0.359864843809E+03   -0.76836E-04   -0.10587E-03  7016   0.531E-02    0.595E-02
RMM:   8    -0.359864911190E+03   -0.67382E-04   -0.50133E-04  6250   0.316E-02    0.355E-02
RMM:   9    -0.359864947238E+03   -0.36048E-04   -0.20190E-04  5106   0.239E-02    0.244E-02
RMM:  10    -0.359864974601E+03   -0.27362E-04   -0.11648E-04  5018   0.182E-02    0.120E-02
RMM:  11    -0.359864982549E+03   -0.79484E-05   -0.39865E-05  3898   0.138E-02
  13 F= -.35986498E+03 E0= -.35987004E+03  d E =-.300811E-01
       N       E                     dE             d eps       ncg     rms          rms(c)
DAV:   1    -0.359870284235E+03   -0.53096E-02   -0.35415E-01  4400   0.171E+00    0.172E-01
RMM:   2    -0.359870924476E+03   -0.64024E-03   -0.10904E-02  6762   0.302E-01    0.907E-02
RMM:   3    -0.359870790765E+03    0.13371E-03   -0.14384E-03  6729   0.752E-02    0.650E-02
RMM:   4    -0.359870753494E+03    0.37271E-04   -0.40988E-04  6915   0.338E-02    0.395E-02
RMM:   5    -0.359870741196E+03    0.12298E-04   -0.15271E-04  5747   0.210E-02    0.195E-02
RMM:   6    -0.359870738924E+03    0.22716E-05   -0.64143E-05  4105   0.136E-02
  14 F= -.35987074E+03 E0= -.35987581E+03  d E =-.575638E-02
       N       E                     dE             d eps       ncg     rms          rms(c)
DAV:   1    -0.359880681349E+03   -0.99402E-02   -0.31874E+00  4368   0.511E+00    0.513E-01
RMM:   2    -0.359886558950E+03   -0.58776E-02   -0.98584E-02  6763   0.908E-01    0.273E-01
RMM:   3    -0.359885470091E+03    0.10889E-02   -0.13696E-02  6786   0.226E-01    0.194E-01
RMM:   4    -0.359885166869E+03    0.30322E-03   -0.38204E-03  7410   0.102E-01    0.118E-01
RMM:   5    -0.359885091652E+03    0.75217E-04   -0.15673E-03  7054   0.637E-02    0.576E-02
RMM:   6    -0.359885084593E+03    0.70594E-05   -0.64267E-04  7003   0.388E-02    0.337E-02
RMM:   7    -0.359885089103E+03   -0.45109E-05   -0.23852E-04  5238   0.210E-02    0.220E-02
RMM:   8    -0.359885094654E+03   -0.55504E-05   -0.12580E-04  4730   0.186E-02    0.114E-02
RMM:   9    -0.359885095633E+03   -0.97947E-06   -0.52713E-05  3942   0.143E-02
  15 F= -.35988510E+03 E0= -.35989019E+03  d E =-.201131E-01
       N       E                     dE             d eps       ncg     rms          rms(c)
DAV:   1    -0.359882429754E+03    0.26649E-02   -0.12739E+01  4368   0.102E+01    0.101E+00
RMM:   2    -0.359906348783E+03   -0.23919E-01   -0.39449E-01  6760   0.182E+00    0.546E-01
RMM:   3    -0.359902165497E+03    0.41833E-02   -0.54504E-02  6869   0.454E-01    0.385E-01
RMM:   4    -0.359900971308E+03    0.11942E-02   -0.14821E-02  7387   0.203E-01    0.237E-01
RMM:   5    -0.359900676978E+03    0.29433E-03   -0.61104E-03  7079   0.127E-01    0.115E-01
RMM:   6    -0.359900639094E+03    0.37884E-04   -0.25139E-03  7419   0.768E-02    0.673E-02
RMM:   7    -0.359900675638E+03   -0.36544E-04   -0.10779E-03  6836   0.402E-02    0.440E-02
RMM:   8    -0.359900697588E+03   -0.21950E-04   -0.44978E-04  6093   0.284E-02    0.237E-02
RMM:   9    -0.359900708163E+03   -0.10575E-04   -0.19870E-04  5382   0.214E-02    0.113E-02
RMM:  10    -0.359900715199E+03   -0.70364E-05   -0.10855E-04  4569   0.163E-02    0.627E-03
RMM:  11    -0.359900717740E+03   -0.25408E-05   -0.48386E-05  4004   0.138E-02
  16 F= -.35990072E+03 E0= -.35990572E+03  d E =-.357352E-01
       N       E                     dE             d eps       ncg     rms          rms(c)
DAV:   1    -0.359899560655E+03    0.11545E-02   -0.16656E+00  4368   0.370E+00    0.362E-01
RMM:   2    -0.359902647886E+03   -0.30872E-02   -0.51159E-02  6761   0.655E-01    0.192E-01
RMM:   3    -0.359902138024E+03    0.50986E-03   -0.72195E-03  6777   0.163E-01    0.135E-01
RMM:   4    -0.359901995174E+03    0.14285E-03   -0.20402E-03  7417   0.736E-02    0.821E-02
RMM:   5    -0.359901963833E+03    0.31341E-04   -0.83657E-04  6947   0.457E-02    0.409E-02
RMM:   6    -0.359901961146E+03    0.26868E-05   -0.34888E-04  6112   0.283E-02    0.240E-02
RMM:   7    -0.359901963767E+03   -0.26205E-05   -0.13480E-04  4839   0.175E-02    0.156E-02
RMM:   8    -0.359901965321E+03   -0.15540E-05   -0.60421E-05  3989   0.148E-02
  17 F= -.35990197E+03 E0= -.35990688E+03  d E =-.369828E-01
       N       E                     dE             d eps       ncg     rms          rms(c)
DAV:   1    -0.359923946023E+03   -0.21982E-01   -0.20778E+00  4592   0.448E+00    0.129E+00
RMM:   2    -0.359916307312E+03    0.76387E-02   -0.13888E-01  6752   0.974E-01    0.467E-01
RMM:   3    -0.359911382611E+03    0.49247E-02   -0.30511E-02  6919   0.306E-01    0.346E-01
RMM:   4    -0.359908417944E+03    0.29647E-02   -0.84816E-03  6963   0.194E-01    0.190E-01
RMM:   5    -0.359908154770E+03    0.26317E-03   -0.27102E-03  6960   0.980E-02    0.140E-01
RMM:   6    -0.359908270094E+03   -0.11532E-03   -0.10887E-03  7041   0.539E-02    0.786E-02
RMM:   7    -0.359908333834E+03   -0.63741E-04   -0.50776E-04  6099   0.382E-02    0.367E-02
RMM:   8    -0.359908373214E+03   -0.39379E-04   -0.24874E-04  5391   0.258E-02    0.274E-02
RMM:   9    -0.359908396806E+03   -0.23592E-04   -0.10488E-04  4926   0.188E-02    0.200E-02
RMM:  10    -0.359908417143E+03   -0.20337E-04   -0.48307E-05  4130   0.147E-02    0.720E-03
RMM:  11    -0.359908424267E+03   -0.71245E-05   -0.26585E-05  3566   0.128E-02
  18 F= -.35990842E+03 E0= -.35991333E+03  d E =-.645895E-02
       N       E                     dE             d eps       ncg     rms          rms(c)
DAV:   1    -0.359909005810E+03   -0.58867E-03   -0.58370E-02  4832   0.751E-01    0.215E-01
RMM:   2    -0.359908789194E+03    0.21662E-03   -0.38067E-03  6691   0.162E-01    0.769E-02
RMM:   3    -0.359908658124E+03    0.13107E-03   -0.84614E-04  6865   0.513E-02    0.561E-02
RMM:   4    -0.359908583071E+03    0.75053E-04   -0.24569E-04  6608   0.324E-02    0.304E-02
RMM:   5    -0.359908580508E+03    0.25629E-05   -0.77548E-05  4722   0.179E-02
  19 F= -.35990858E+03 E0= -.35991349E+03  d E =-.661519E-02
       N       E                     dE             d eps       ncg     rms          rms(c)
DAV:   1    -0.359912794752E+03   -0.42117E-02   -0.79426E-01  4368   0.256E+00    0.307E-01
RMM:   2    -0.359913780196E+03   -0.98544E-03   -0.26369E-02  6788   0.469E-01    0.152E-01
RMM:   3    -0.359913634962E+03    0.14523E-03   -0.46201E-03  6733   0.122E-01    0.105E-01
RMM:   4    -0.359913472857E+03    0.16211E-03   -0.14150E-03  6837   0.644E-02    0.553E-02
RMM:   5    -0.359913463183E+03    0.96739E-05   -0.56883E-04  6504   0.360E-02    0.318E-02
RMM:   6    -0.359913458239E+03    0.49439E-05   -0.22451E-04  5709   0.226E-02    0.178E-02
RMM:   7    -0.359913461413E+03   -0.31735E-05   -0.81628E-05  4419   0.140E-02
  20 F= -.35991346E+03 E0= -.35991838E+03  d E =-.488090E-02
       N       E                     dE             d eps       ncg     rms          rms(c)
DAV:   1    -0.359916180976E+03   -0.27227E-02   -0.15535E+00  4368   0.358E+00    0.422E-01
RMM:   2    -0.359918121600E+03   -0.19406E-02   -0.51658E-02  6785   0.655E-01    0.209E-01
RMM:   3    -0.359917807934E+03    0.31367E-03   -0.89888E-03  6725   0.170E-01    0.144E-01
RMM:   4    -0.359917512115E+03    0.29582E-03   -0.27642E-03  6861   0.891E-02    0.766E-02
RMM:   5    -0.359917499461E+03    0.12654E-04   -0.11528E-03  6703   0.503E-02    0.451E-02
RMM:   6    -0.359917492958E+03    0.65036E-05   -0.45009E-04  6211   0.316E-02    0.254E-02
RMM:   7    -0.359917502490E+03   -0.95318E-05   -0.18374E-04  5214   0.184E-02    0.156E-02
RMM:   8    -0.359917503086E+03   -0.59650E-06   -0.59625E-05  4049   0.141E-02
  21 F= -.35991750E+03 E0= -.35992242E+03  d E =-.892258E-02
       N       E                     dE             d eps       ncg     rms          rms(c)
DAV:   1    -0.359910809140E+03    0.66933E-02   -0.62127E+00  4368   0.716E+00    0.841E-01
RMM:   2    -0.359918550972E+03   -0.77418E-02   -0.20580E-01  6784   0.131E+00    0.417E-01
RMM:   3    -0.359917219871E+03    0.13311E-02   -0.35103E-02  6741   0.336E-01    0.286E-01
RMM:   4    -0.359916049557E+03    0.11703E-02   -0.10670E-02  6855   0.176E-01    0.153E-01
RMM:   5    -0.359916003077E+03    0.46480E-04   -0.46120E-03  6820   0.996E-02    0.905E-02
RMM:   6    -0.359915966377E+03    0.36699E-04   -0.16746E-03  7050   0.616E-02    0.505E-02
RMM:   7    -0.359916010577E+03   -0.44200E-04   -0.71420E-04  5865   0.317E-02    0.311E-02
RMM:   8    -0.359916017335E+03   -0.67570E-05   -0.24659E-04  5247   0.232E-02    0.161E-02
RMM:   9    -0.359916024838E+03   -0.75032E-05   -0.13221E-04  4991   0.185E-02    0.911E-03
RMM:  10    -0.359916029792E+03   -0.49546E-05   -0.77308E-05  4180   0.139E-02
  22 F= -.35991603E+03 E0= -.35992090E+03  d E =-.744928E-02
       N       E                     dE             d eps       ncg     rms          rms(c)
DAV:   1    -0.359916746442E+03   -0.72160E-03   -0.24791E+00  4368   0.452E+00    0.534E-01
RMM:   2    -0.359919564821E+03   -0.28184E-02   -0.80722E-02  6785   0.824E-01    0.259E-01
RMM:   3    -0.359918974795E+03    0.59003E-03   -0.13302E-02  6738   0.210E-01    0.181E-01
RMM:   4    -0.359918447595E+03    0.52720E-03   -0.39454E-03  6841   0.111E-01    0.950E-02
RMM:   5    -0.359918422897E+03    0.24698E-04   -0.16675E-03  6793   0.613E-02    0.565E-02
RMM:   6    -0.359918413755E+03    0.91420E-05   -0.59176E-04  6557   0.383E-02    0.315E-02
RMM:   7    -0.359918431546E+03   -0.17791E-04   -0.21826E-04  5089   0.210E-02    0.187E-02
RMM:   8    -0.359918438428E+03   -0.68824E-05   -0.84622E-05  4243   0.164E-02
  23 F= -.35991844E+03 E0= -.35992334E+03  d E =-.985792E-02
       N       E                     dE             d eps       ncg     rms          rms(c)
DAV:   1    -0.359920011262E+03   -0.15797E-02   -0.53179E-01  4368   0.208E+00    0.166E-01
RMM:   2    -0.359920935051E+03   -0.92379E-03   -0.15394E-02  6695   0.365E-01    0.889E-02
RMM:   3    -0.359920796140E+03    0.13891E-03   -0.21073E-03  6633   0.967E-02    0.650E-02
RMM:   4    -0.359920763180E+03    0.32960E-04   -0.61208E-04  7313   0.396E-02    0.379E-02
RMM:   5    -0.359920750445E+03    0.12735E-04   -0.20971E-04  5606   0.239E-02    0.188E-02
RMM:   6    -0.359920752768E+03   -0.23230E-05   -0.98105E-05  4353   0.168E-02
  24 F= -.35992075E+03 E0= -.35992557E+03  d E =-.231434E-02
       N       E                     dE             d eps       ncg     rms          rms(c)
DAV:   1    -0.359917610173E+03    0.31403E-02   -0.47887E+00  4368   0.625E+00    0.499E-01
RMM:   2    -0.359926088185E+03   -0.84780E-02   -0.14005E-01  6686   0.109E+00    0.269E-01
RMM:   3    -0.359924995410E+03    0.10928E-02   -0.20403E-02  6684   0.290E-01    0.198E-01
RMM:   4    -0.359924710214E+03    0.28520E-03   -0.56698E-03  7473   0.119E-01    0.116E-01
RMM:   5    -0.359924626234E+03    0.83979E-04   -0.22581E-03  7177   0.719E-02    0.582E-02
RMM:   6    -0.359924642495E+03   -0.16261E-04   -0.89569E-04  7078   0.439E-02    0.286E-02
RMM:   7    -0.359924662746E+03   -0.20250E-04   -0.36096E-04  5568   0.227E-02    0.186E-02
RMM:   8    -0.359924670514E+03   -0.77685E-05   -0.13392E-04  4566   0.185E-02    0.111E-02
RMM:   9    -0.359924674691E+03   -0.41766E-05   -0.65506E-05  4040   0.146E-02
  25 F= -.35992467E+03 E0= -.35992923E+03  d E =-.623626E-02
       N       E                     dE             d eps       ncg     rms          rms(c)
DAV:   1    -0.359924262843E+03    0.40767E-03   -0.46025E-01  4376   0.194E+00    0.154E-01
RMM:   2    -0.359925092919E+03   -0.83008E-03   -0.13627E-02  6704   0.340E-01    0.826E-02
RMM:   3    -0.359924997940E+03    0.94979E-04   -0.20695E-03  6627   0.909E-02    0.603E-02
RMM:   4    -0.359924980012E+03    0.17928E-04   -0.64129E-04  7302   0.384E-02    0.351E-02
RMM:   5    -0.359924972116E+03    0.78957E-05   -0.21957E-04  5421   0.234E-02    0.175E-02
RMM:   6    -0.359924976605E+03   -0.44885E-05   -0.11286E-04  4411   0.170E-02    0.839E-03
RMM:   7    -0.359924978919E+03   -0.23145E-05   -0.44634E-05  3589   0.119E-02
  26 F= -.35992498E+03 E0= -.35992946E+03  d E =-.654049E-02
       N       E                     dE             d eps       ncg     rms          rms(c)
DAV:   1    -0.359928111930E+03   -0.31353E-02   -0.13849E+00  4480   0.350E+00    0.624E-01
RMM:   2    -0.359929081377E+03   -0.96945E-03   -0.64199E-02  6758   0.685E-01    0.271E-01
RMM:   3    -0.359927145581E+03    0.19358E-02   -0.97917E-03  6816   0.181E-01    0.189E-01
RMM:   4    -0.359926504972E+03    0.64061E-03   -0.28197E-03  6980   0.101E-01    0.107E-01
RMM:   5    -0.359926424884E+03    0.80089E-04   -0.99590E-04  6936   0.596E-02    0.714E-02
RMM:   6    -0.359926456895E+03   -0.32012E-04   -0.42751E-04  6528   0.328E-02    0.448E-02
RMM:   7    -0.359926473377E+03   -0.16482E-04   -0.18155E-04  5525   0.227E-02    0.251E-02
RMM:   8    -0.359926488921E+03   -0.15544E-04   -0.88762E-05  4514   0.164E-02    0.128E-02
RMM:   9    -0.359926496909E+03   -0.79882E-05   -0.39566E-05  3854   0.132E-02
  27 F= -.35992650E+03 E0= -.35993100E+03  d E =-.151799E-02
       N       E                     dE             d eps       ncg     rms          rms(c)
DAV:   1    -0.359926508544E+03   -0.19622E-04   -0.88264E-04  5200   0.872E-02    0.189E-02
RMM:   2    -0.359926511962E+03   -0.34188E-05   -0.62156E-05  5572   0.205E-02
  28 F= -.35992651E+03 E0= -.35993102E+03  d E =-.153304E-02
       N       E                     dE             d eps       ncg     rms          rms(c)
DAV:   1    -0.359927618691E+03   -0.11101E-02   -0.57361E-01  4368   0.226E+00    0.388E-01
RMM:   2    -0.359928136834E+03   -0.51814E-03   -0.23742E-02  6790   0.434E-01    0.164E-01
RMM:   3    -0.359927835765E+03    0.30107E-03   -0.36120E-03  6799   0.115E-01    0.111E-01
RMM:   4    -0.359927562526E+03    0.27324E-03   -0.10714E-03  6834   0.625E-02    0.607E-02
RMM:   5    -0.359927535838E+03    0.26688E-04   -0.44359E-04  6935   0.322E-02    0.415E-02
RMM:   6    -0.359927521800E+03    0.14038E-04   -0.14595E-04  5779   0.199E-02    0.242E-02
RMM:   7    -0.359927517147E+03    0.46526E-05   -0.62646E-05  4351   0.145E-02
  29 F= -.35992752E+03 E0= -.35993204E+03  d E =-.100519E-02
       N       E                     dE             d eps       ncg     rms          rms(c)
DAV:   1    -0.359927558780E+03   -0.36980E-04   -0.48966E-02  4384   0.658E-01    0.111E-01
RMM:   2    -0.359927608407E+03   -0.49627E-04   -0.20498E-03  6760   0.126E-01    0.461E-02
RMM:   3    -0.359927586566E+03    0.21841E-04   -0.33943E-04  6556   0.351E-02    0.298E-02
RMM:   4    -0.359927569054E+03    0.17511E-04   -0.11406E-04  5602   0.192E-02    0.165E-02
RMM:   5    -0.359927566139E+03    0.29157E-05   -0.35545E-05  3152   0.108E-02
  30 F= -.35992757E+03 E0= -.35993209E+03  d E =-.105418E-02
       N       E                     dE             d eps       ncg     rms          rms(c)
DAV:   1    -0.359927824833E+03   -0.25578E-03   -0.54626E-02  4376   0.654E-01    0.491E-02
RMM:   2    -0.359927942700E+03   -0.11787E-03   -0.15363E-03  6298   0.109E-01    0.275E-02
RMM:   3    -0.359927923990E+03    0.18711E-04   -0.23491E-04  5916   0.321E-02    0.207E-02
RMM:   4    -0.359927921544E+03    0.24455E-05   -0.50557E-05  3808   0.117E-02
  31 F= -.35992792E+03 E0= -.35993244E+03  d E =-.355405E-03
       N       E                     dE             d eps       ncg     rms          rms(c)
DAV:   1    -0.359927723676E+03    0.20031E-03   -0.49111E-01  4368   0.196E+00    0.150E-01
RMM:   2    -0.359928768889E+03   -0.10452E-02   -0.13482E-02  6368   0.324E-01    0.829E-02
RMM:   3    -0.359928619539E+03    0.14935E-03   -0.20324E-03  6595   0.918E-02    0.628E-02
RMM:   4    -0.359928609816E+03    0.97229E-05   -0.52780E-04  6644   0.304E-02    0.414E-02
RMM:   5    -0.359928604405E+03    0.54105E-05   -0.19153E-04  5897   0.197E-02    0.209E-02
RMM:   6    -0.359928602774E+03    0.16311E-05   -0.79617E-05  4392   0.142E-02
  32 F= -.35992860E+03 E0= -.35993309E+03  d E =-.103664E-02
       N       E                     dE             d eps       ncg     rms          rms(c)
DAV:   1    -0.359924712305E+03    0.38921E-02   -0.19645E+00  4368   0.392E+00    0.300E-01
RMM:   2    -0.359928906334E+03   -0.41940E-02   -0.53696E-02  6354   0.648E-01    0.163E-01
RMM:   3    -0.359928261252E+03    0.64508E-03   -0.77258E-03  6665   0.181E-01    0.122E-01
RMM:   4    -0.359928226721E+03    0.34531E-04   -0.19914E-03  7586   0.585E-02    0.819E-02
RMM:   5    -0.359928210205E+03    0.16516E-04   -0.72799E-04  6812   0.391E-02    0.431E-02
RMM:   6    -0.359928204227E+03    0.59776E-05   -0.30360E-04  6312   0.275E-02    0.163E-02
RMM:   7    -0.359928207679E+03   -0.34514E-05   -0.97357E-05  4148   0.143E-02
  33 F= -.35992821E+03 E0= -.35993263E+03  d E =-.641540E-03
       N       E                     dE             d eps       ncg     rms          rms(c)
DAV:   1    -0.359926983366E+03    0.12209E-02   -0.10889E+00  4368   0.292E+00    0.219E-01
RMM:   2    -0.359929220683E+03   -0.22373E-02   -0.29127E-02  6180   0.478E-01    0.117E-01
RMM:   3    -0.359928780160E+03    0.44052E-03   -0.37324E-03  6589   0.137E-01    0.886E-02
RMM:   4    -0.359928741095E+03    0.39065E-04   -0.91242E-04  7232   0.417E-02    0.574E-02
RMM:   5    -0.359928723343E+03    0.17752E-04   -0.31413E-04  6233   0.285E-02    0.303E-02
RMM:   6    -0.359928721037E+03    0.23062E-05   -0.12680E-04  5814   0.192E-02    0.120E-02
RMM:   7    -0.359928722472E+03   -0.14348E-05   -0.36378E-05  3193   0.113E-02
  34 F= -.35992872E+03 E0= -.35993319E+03  d E =-.115633E-02
       N       E                     dE             d eps       ncg     rms          rms(c)
DAV:   1    -0.359930224850E+03   -0.15038E-02   -0.23110E-01  4592   0.148E+00    0.376E-01
RMM:   2    -0.359929684033E+03    0.54082E-03   -0.13663E-02  6698   0.308E-01    0.142E-01
RMM:   3    -0.359929200818E+03    0.48322E-03   -0.26018E-03  6862   0.936E-02    0.101E-01
RMM:   4    -0.359928961455E+03    0.23936E-03   -0.77461E-04  6904   0.580E-02    0.566E-02
RMM:   5    -0.359928938745E+03    0.22709E-04   -0.23606E-04  6751   0.309E-02    0.408E-02
RMM:   6    -0.359928956098E+03   -0.17352E-04   -0.91826E-05  5258   0.171E-02    0.250E-02
RMM:   7    -0.359928964655E+03   -0.85569E-05   -0.36252E-05  3245   0.133E-02
  35 F= -.35992896E+03 E0= -.35993341E+03  d E =-.242183E-03
       N       E                     dE             d eps       ncg     rms          rms(c)
DAV:   1    -0.359929032450E+03   -0.76352E-04   -0.71197E-03  4704   0.260E-01    0.687E-02
RMM:   2    -0.359929026165E+03    0.62856E-05   -0.46290E-04  6722   0.558E-02    0.281E-02
RMM:   3    -0.359929009883E+03    0.16282E-04   -0.90154E-05  5291   0.177E-02    0.208E-02
RMM:   4    -0.359929000283E+03    0.95995E-05   -0.23969E-05  2709   0.135E-02
  36 F= -.35992900E+03 E0= -.35993345E+03  d E =-.277811E-03
       N       E                     dE             d eps       ncg     rms          rms(c)
DAV:   1    -0.359929109287E+03   -0.99405E-04   -0.49610E-02  4380   0.622E-01    0.451E-02
RMM:   2    -0.359929201497E+03   -0.92210E-04   -0.13195E-03  6485   0.103E-01    0.251E-02
RMM:   3    -0.359929183386E+03    0.18111E-04   -0.15842E-04  5736   0.278E-02    0.178E-02
RMM:   4    -0.359929181629E+03    0.17576E-05   -0.44890E-05  3620   0.117E-02
  37 F= -.35992918E+03 E0= -.35993361E+03  d E =-.181345E-03
       N       E                     dE             d eps       ncg     rms          rms(c)
DAV:   1    -0.359928956605E+03    0.22678E-03   -0.28643E-01  4376   0.149E+00    0.110E-01
RMM:   2    -0.359929500845E+03   -0.54424E-03   -0.77823E-03  6670   0.246E-01    0.643E-02
RMM:   3    -0.359929431864E+03    0.68981E-04   -0.11533E-03  6585   0.673E-02    0.453E-02
RMM:   4    -0.359929428986E+03    0.28786E-05   -0.33564E-04  6677   0.260E-02    0.294E-02
RMM:   5    -0.359929422000E+03    0.69858E-05   -0.10275E-04  4742   0.154E-02    0.142E-02
RMM:   6    -0.359929423592E+03   -0.15925E-05   -0.55103E-05  3943   0.119E-02
  38 F= -.35992942E+03 E0= -.35993380E+03  d E =-.423309E-03
       N       E                     dE             d eps       ncg     rms          rms(c)
DAV:   1    -0.359929409917E+03    0.12083E-04   -0.14930E-02  4520   0.341E-01    0.254E-02
RMM:   2    -0.359929443989E+03   -0.34073E-04   -0.45342E-04  6622   0.575E-02    0.150E-02
RMM:   3    -0.359929440008E+03    0.39812E-05   -0.63154E-05  3739   0.163E-02
  39 F= -.35992944E+03 E0= -.35993380E+03  d E =-.439725E-03
       N       E                     dE             d eps       ncg     rms          rms(c)
DAV:   1    -0.359930023647E+03   -0.57966E-03   -0.20611E-02  4888   0.508E-01    0.207E-01
RMM:   2    -0.359929775227E+03    0.24842E-03   -0.25217E-03  6824   0.135E-01    0.706E-02
RMM:   3    -0.359929658419E+03    0.11681E-03   -0.70166E-04  6829   0.457E-02    0.538E-02
RMM:   4    -0.359929571754E+03    0.86665E-04   -0.17677E-04  6379   0.310E-02    0.277E-02
RMM:   5    -0.359929560323E+03    0.11432E-04   -0.48346E-05  3447   0.161E-02    0.213E-02
RMM:   6    -0.359929556144E+03    0.41790E-05   -0.16769E-05  2644   0.111E-02
  40 F= -.35992956E+03 E0= -.35993392E+03  d E =-.116135E-03
       N       E                     dE             d eps       ncg     rms          rms(c)
DAV:   1    -0.359929566675E+03   -0.63525E-05   -0.61588E-04  5312   0.893E-02    0.330E-02
RMM:   2    -0.359929559769E+03    0.69059E-05   -0.72869E-05  4927   0.229E-02
  41 F= -.35992956E+03 E0= -.35993393E+03  d E =-.119761E-03
       N       E                     dE             d eps       ncg     rms          rms(c)
DAV:   1    -0.359929621550E+03   -0.54875E-04   -0.60613E-03  4380   0.227E-01    0.327E-02
RMM:   2    -0.359929620400E+03    0.11508E-05   -0.25968E-04  6739   0.431E-02    0.183E-02
RMM:   3    -0.359929614738E+03    0.56612E-05   -0.40845E-05  3295   0.125E-02
  42 F= -.35992961E+03 E0= -.35993398E+03  d E =-.549691E-04
       N       E                     dE             d eps       ncg     rms          rms(c)
DAV:   1    -0.359929751065E+03   -0.13066E-03   -0.54027E-02  4376   0.677E-01    0.101E-01
RMM:   2    -0.359929748193E+03    0.28716E-05   -0.23402E-03  6756   0.127E-01    0.528E-02
RMM:   3    -0.359929700261E+03    0.47931E-04   -0.45013E-04  6418   0.359E-02    0.379E-02
RMM:   4    -0.359929681195E+03    0.19067E-04   -0.17968E-04  5948   0.234E-02    0.191E-02
RMM:   5    -0.359929675911E+03    0.52837E-05   -0.59161E-05  3746   0.136E-02
  43 F= -.35992968E+03 E0= -.35993406E+03  d E =-.116142E-03
       N       E                     dE             d eps       ncg     rms          rms(c)
DAV:   1    -0.359929688451E+03   -0.72563E-05   -0.20868E-03  4452   0.133E-01    0.205E-02
RMM:   2    -0.359929687630E+03    0.82142E-06   -0.77920E-05  4889   0.258E-02
  44 F= -.35992969E+03 E0= -.35993407E+03  d E =-.127861E-03
