  32  32   0   0
  0.1628837E+02  0.8054636E-09  0.8016402E-09  0.8072504E-09  0.1500000E-15
  1.000000000000000E-004
  CAR 
 automatically generated by mexm         
     18.70019899     -1.29197005  301      9.67260685      1.00000000
     -1.292  0.0000E+00  0.0000E+00
     -1.225  0.0000E+00  0.0000E+00
     -1.159  0.0000E+00  0.0000E+00
     -1.092  0.0000E+00  0.0000E+00
     -1.025 -0.3705E-31 -0.2469E-32
     -0.959 -0.4283E-28 -0.2856E-29
     -0.892 -0.3326E-25 -0.2220E-26
     -0.825 -0.1734E-22 -0.1158E-23
     -0.759 -0.6065E-20 -0.4053E-21
     -0.692 -0.1422E-17 -0.9516E-19
     -0.626 -0.2160E-15 -0.1449E-16
     -0.559 -0.2256E-13 -0.1518E-14
     -0.492 -0.1570E-11 -0.1061E-12
     -0.426 -0.7255E-10 -0.4941E-11
     -0.359 -0.2218E-08 -0.1527E-09
     -0.292 -0.4450E-07 -0.3118E-08
     -0.226 -0.5792E-06 -0.4172E-07
     -0.159 -0.4783E-05 -0.3605E-06
     -0.092 -0.2391E-04 -0.1954E-05
     -0.026 -0.6320E-04 -0.6166E-05
      0.041 -0.3106E-04 -0.8236E-05
      0.107  0.3092E-03  0.1237E-04
      0.174  0.9506E-03  0.7572E-04
      0.241  0.1228E-02  0.1576E-03
      0.307  0.6265E-03  0.1993E-03
      0.374  0.6636E-04  0.2038E-03
      0.441  0.1549E-02  0.3070E-03
      0.507  0.5363E-02  0.6644E-03
      0.574  0.7776E-02  0.1183E-02
      0.641  0.5476E-02  0.1547E-02
      0.707  0.1968E-02  0.1679E-02
      0.774  0.4001E-02  0.1945E-02
      0.841  0.1159E-01  0.2718E-02
      0.907  0.1572E-01  0.3765E-02
      0.974  0.1086E-01  0.4489E-02
      1.040  0.4440E-02  0.4785E-02
      1.107  0.4999E-02  0.5118E-02
      1.174  0.9370E-02  0.5742E-02
      1.240  0.9236E-02  0.6358E-02
      1.307  0.4282E-02  0.6643E-02
      1.374  0.1240E-02  0.6726E-02
      1.440  0.3320E-02  0.6947E-02
      1.507  0.6415E-02  0.7374E-02
      1.574  0.5596E-02  0.7747E-02
      1.640  0.4759E-02  0.8064E-02
      1.707  0.1291E-01  0.8925E-02
      1.773  0.2639E-01  0.1068E-01
      1.840  0.3056E-01  0.1272E-01
      1.907  0.2670E-01  0.1450E-01
      1.973  0.2821E-01  0.1638E-01
      2.040  0.3017E-01  0.1839E-01
      2.107  0.2061E-01  0.1976E-01
      2.173  0.6344E-02  0.2019E-01
      2.240 -0.1175E-02  0.2011E-01
      2.307 -0.2809E-02  0.1992E-01
      2.373 -0.2797E-02  0.1973E-01
      2.440  0.2311E-02  0.1989E-01
      2.507  0.1928E-01  0.2117E-01
      2.573  0.4126E-01  0.2392E-01
      2.640  0.4872E-01  0.2717E-01
      2.706  0.3740E-01  0.2966E-01
      2.773  0.2149E-01  0.3109E-01
      2.840  0.1274E-01  0.3194E-01
      2.906  0.1998E-01  0.3327E-01
      2.973  0.4801E-01  0.3647E-01
      3.040  0.8419E-01  0.4208E-01
      3.106  0.1018E+00  0.4887E-01
      3.173  0.8805E-01  0.5474E-01
      3.240  0.6586E-01  0.5913E-01
      3.306  0.6600E-01  0.6353E-01
      3.373  0.8805E-01  0.6939E-01
      3.440  0.1158E+00  0.7711E-01
      3.506  0.1423E+00  0.8660E-01
      3.573  0.1646E+00  0.9757E-01
      3.639  0.1745E+00  0.1092E+00
      3.706  0.1634E+00  0.1201E+00
      3.773  0.1397E+00  0.1294E+00
      3.839  0.1276E+00  0.1379E+00
      3.906  0.1390E+00  0.1472E+00
      3.973  0.1656E+00  0.1582E+00
      4.039  0.1932E+00  0.1711E+00
      4.106  0.2079E+00  0.1849E+00
      4.173  0.2009E+00  0.1983E+00
      4.239  0.1729E+00  0.2098E+00
      4.306  0.1347E+00  0.2188E+00
      4.372  0.1101E+00  0.2261E+00
      4.439  0.1214E+00  0.2342E+00
      4.506  0.1576E+00  0.2447E+00
      4.572  0.1835E+00  0.2570E+00
      4.639  0.1808E+00  0.2690E+00
      4.706  0.1543E+00  0.2793E+00
      4.772  0.1193E+00  0.2872E+00
      4.839  0.9883E-01  0.2938E+00
      4.906  0.1053E+00  0.3009E+00
      4.972  0.1308E+00  0.3096E+00
      5.039  0.1594E+00  0.3202E+00
      5.106  0.1788E+00  0.3321E+00
      5.172  0.1831E+00  0.3443E+00
      5.239  0.1748E+00  0.3560E+00
      5.305  0.1657E+00  0.3670E+00
      5.372  0.1674E+00  0.3782E+00
      5.439  0.1793E+00  0.3901E+00
      5.505  0.1905E+00  0.4028E+00
      5.572  0.1949E+00  0.4158E+00
      5.639  0.1946E+00  0.4288E+00
      5.705  0.1918E+00  0.4415E+00
      5.772  0.1873E+00  0.4540E+00
      5.839  0.1845E+00  0.4663E+00
      5.905  0.1879E+00  0.4788E+00
      5.972  0.1948E+00  0.4918E+00
      6.038  0.1985E+00  0.5050E+00
      6.105  0.1994E+00  0.5183E+00
      6.172  0.2027E+00  0.5318E+00
      6.238  0.2099E+00  0.5458E+00
      6.305  0.2145E+00  0.5601E+00
      6.372  0.2116E+00  0.5742E+00
      6.438  0.2077E+00  0.5881E+00
      6.505  0.2108E+00  0.6021E+00
      6.572  0.2183E+00  0.6167E+00
      6.638  0.2218E+00  0.6314E+00
      6.705  0.2144E+00  0.6457E+00
      6.772  0.1974E+00  0.6589E+00
      6.838  0.1809E+00  0.6709E+00
      6.905  0.1711E+00  0.6823E+00
      6.971  0.1634E+00  0.6932E+00
      7.038  0.1541E+00  0.7035E+00
      7.105  0.1487E+00  0.7134E+00
      7.171  0.1499E+00  0.7234E+00
      7.238  0.1495E+00  0.7334E+00
      7.305  0.1423E+00  0.7428E+00
      7.371  0.1364E+00  0.7519E+00
      7.438  0.1386E+00  0.7612E+00
      7.505  0.1451E+00  0.7708E+00
      7.571  0.1506E+00  0.7809E+00
      7.638  0.1537E+00  0.7911E+00
      7.705  0.1575E+00  0.8016E+00
      7.771  0.1646E+00  0.8126E+00
      7.838  0.1712E+00  0.8240E+00
      7.904  0.1700E+00  0.8353E+00
      7.971  0.1599E+00  0.8460E+00
      8.038  0.1481E+00  0.8558E+00
      8.104  0.1397E+00  0.8652E+00
      8.171  0.1357E+00  0.8742E+00
      8.238  0.1392E+00  0.8835E+00
      8.304  0.1511E+00  0.8935E+00
      8.371  0.1624E+00  0.9044E+00
      8.438  0.1631E+00  0.9152E+00
      8.504  0.1567E+00  0.9257E+00
      8.571  0.1532E+00  0.9359E+00
      8.637  0.1525E+00  0.9461E+00
      8.704  0.1475E+00  0.9559E+00
      8.771  0.1389E+00  0.9651E+00
      8.837  0.1336E+00  0.9740E+00
      8.904  0.1343E+00  0.9830E+00
      8.971  0.1399E+00  0.9923E+00
      9.037  0.1484E+00  0.1002E+01
      9.104  0.1555E+00  0.1013E+01
      9.171  0.1579E+00  0.1023E+01
      9.237  0.1584E+00  0.1034E+01
      9.304  0.1618E+00  0.1044E+01
      9.371  0.1694E+00  0.1056E+01
      9.437  0.1775E+00  0.1068E+01
      9.504  0.1813E+00  0.1080E+01
      9.570  0.1773E+00  0.1091E+01
      9.637  0.1581E+00  0.1102E+01
      9.704  0.1234E+00  0.1110E+01
      9.770  0.9633E-01  0.1117E+01
      9.837  0.9823E-01  0.1123E+01
      9.904  0.1128E+00  0.1131E+01
      9.970  0.1093E+00  0.1138E+01
     10.037  0.8540E-01  0.1144E+01
     10.104  0.5764E-01  0.1147E+01
     10.170  0.3262E-01  0.1150E+01
     10.237  0.1176E-01  0.1150E+01
     10.303  0.1654E-02  0.1151E+01
     10.370  0.5500E-02  0.1151E+01
     10.437  0.1666E-01  0.1152E+01
     10.503  0.2390E-01  0.1154E+01
     10.570  0.2118E-01  0.1155E+01
     10.637  0.1235E-01  0.1156E+01
     10.703  0.5418E-02  0.1156E+01
     10.770  0.5492E-02  0.1157E+01
     10.837  0.1297E-01  0.1157E+01
     10.903  0.2496E-01  0.1159E+01
     10.970  0.3808E-01  0.1162E+01
     11.037  0.4963E-01  0.1165E+01
     11.103  0.5728E-01  0.1169E+01
     11.170  0.6025E-01  0.1173E+01
     11.236  0.5949E-01  0.1177E+01
     11.303  0.5477E-01  0.1180E+01
     11.370  0.4655E-01  0.1184E+01
     11.436  0.3757E-01  0.1186E+01
     11.503  0.2889E-01  0.1188E+01
     11.570  0.2355E-01  0.1190E+01
     11.636  0.2641E-01  0.1191E+01
     11.703  0.3069E-01  0.1193E+01
     11.770  0.2399E-01  0.1195E+01
     11.836  0.8953E-02  0.1196E+01
     11.903 -0.1165E-02  0.1195E+01
     11.970  0.2141E-02  0.1196E+01
     12.036  0.1962E-01  0.1197E+01
     12.103  0.4213E-01  0.1200E+01
     12.169  0.5598E-01  0.1203E+01
     12.236  0.5749E-01  0.1207E+01
     12.303  0.5401E-01  0.1211E+01
     12.369  0.5530E-01  0.1215E+01
     12.436  0.6157E-01  0.1219E+01
     12.503  0.5753E-01  0.1222E+01
     12.569  0.3509E-01  0.1225E+01
     12.636  0.9799E-02  0.1225E+01
     12.703 -0.2639E-02  0.1225E+01
     12.769 -0.2803E-02  0.1225E+01
     12.836  0.5257E-02  0.1225E+01
     12.902  0.1955E-01  0.1227E+01
     12.969  0.3246E-01  0.1229E+01
     13.036  0.3466E-01  0.1231E+01
     13.102  0.2588E-01  0.1233E+01
     13.169  0.1290E-01  0.1234E+01
     13.236  0.2265E-02  0.1234E+01
     13.302 -0.6182E-03  0.1234E+01
     13.369  0.9406E-02  0.1235E+01
     13.436  0.3266E-01  0.1237E+01
     13.502  0.5647E-01  0.1240E+01
     13.569  0.6161E-01  0.1245E+01
     13.636  0.4383E-01  0.1248E+01
     13.702  0.1995E-01  0.1249E+01
     13.769  0.8871E-02  0.1249E+01
     13.835  0.1540E-01  0.1250E+01
     13.902  0.3113E-01  0.1253E+01
     13.969  0.4176E-01  0.1255E+01
     14.035  0.3888E-01  0.1258E+01
     14.102  0.3101E-01  0.1260E+01
     14.169  0.3226E-01  0.1262E+01
     14.235  0.4015E-01  0.1265E+01
     14.302  0.4018E-01  0.1267E+01
     14.369  0.3065E-01  0.1270E+01
     14.435  0.2534E-01  0.1271E+01
     14.502  0.3057E-01  0.1273E+01
     14.568  0.3716E-01  0.1276E+01
     14.635  0.3674E-01  0.1278E+01
     14.702  0.2995E-01  0.1280E+01
     14.768  0.1997E-01  0.1282E+01
     14.835  0.1057E-01  0.1282E+01
     14.902  0.7975E-02  0.1283E+01
     14.968  0.1711E-01  0.1284E+01
     15.035  0.3800E-01  0.1286E+01
     15.102  0.6311E-01  0.1291E+01
     15.168  0.7890E-01  0.1296E+01
     15.235  0.7917E-01  0.1301E+01
     15.302  0.6606E-01  0.1306E+01
     15.368  0.4164E-01  0.1308E+01
     15.435  0.1524E-01  0.1309E+01
     15.501 -0.3896E-03  0.1309E+01
     15.568 -0.4065E-02  0.1309E+01
     15.635 -0.2692E-03  0.1309E+01
     15.701  0.1367E-01  0.1310E+01
     15.768  0.4110E-01  0.1313E+01
     15.835  0.6840E-01  0.1317E+01
     15.901  0.7194E-01  0.1322E+01
     15.968  0.4984E-01  0.1325E+01
     16.035  0.2508E-01  0.1327E+01
     16.101  0.1357E-01  0.1328E+01
     16.168  0.1064E-01  0.1329E+01
     16.234  0.7622E-02  0.1329E+01
     16.301  0.3526E-02  0.1329E+01
     16.368  0.6285E-03  0.1329E+01
     16.434 -0.5177E-03  0.1329E+01
     16.501 -0.5892E-03  0.1329E+01
     16.568  0.3322E-03  0.1329E+01
     16.634  0.2797E-02  0.1330E+01
     16.701  0.6645E-02  0.1330E+01
     16.768  0.1048E-01  0.1331E+01
     16.834  0.1186E-01  0.1331E+01
     16.901  0.8988E-02  0.1332E+01
     16.968  0.3877E-02  0.1332E+01
     17.034  0.1063E-02  0.1332E+01
     17.101  0.2148E-02  0.1333E+01
     17.167  0.4439E-02  0.1333E+01
     17.234  0.4603E-02  0.1333E+01
     17.301  0.2501E-02  0.1333E+01
     17.367  0.4859E-03  0.1333E+01
     17.434 -0.2154E-03  0.1333E+01
     17.501 -0.1717E-03  0.1333E+01
     17.567 -0.5280E-04  0.1333E+01
     17.634 -0.9298E-05  0.1333E+01
     17.701 -0.1023E-05  0.1333E+01
     17.767 -0.7266E-07  0.1333E+01
     17.834 -0.3391E-08  0.1333E+01
     17.901 -0.1049E-09  0.1333E+01
     17.967 -0.2161E-11  0.1333E+01
     18.034 -0.2979E-13  0.1333E+01
     18.100 -0.2748E-15  0.1333E+01
     18.167 -0.1645E-17  0.1333E+01
     18.234  0.0000E+00  0.1333E+01
     18.300  0.0000E+00  0.1333E+01
     18.367  0.0000E+00  0.1333E+01
     18.434  0.0000E+00  0.1333E+01
     18.500  0.0000E+00  0.1333E+01
     18.567  0.0000E+00  0.1333E+01
     18.634  0.0000E+00  0.1333E+01
     18.700  0.0000E+00  0.1333E+01
