   32   32  300    1
  0.1628837E+02  0.8054636E-09  0.8016402E-09  0.8072504E-09  0.1500000E-15
  1.000000000000000E-004
  CAR 
 automatically generated by mexm         
    332     14    200
 
  0.0000000E+00  0.0000000E+00  0.0000000E+00  0.3703704E-01
    1        0.208030   1.000000
    2        2.709245   1.000000
    3        2.727033   1.000000
    4        2.738989   1.000000
    5        2.750393   1.000000
    6        2.769876   1.000000
    7        2.801444   1.000000
    8        2.909384   1.000000
    9        2.919784   1.000000
   10        2.929791   1.000000
   11        2.936732   1.000000
   12        3.148824   1.000000
   13        3.183110   1.000000
   14        3.216652   1.000000
   15        3.537838   1.000000
   16        3.558374   1.000000
   17        3.578747   1.000000
   18        4.090354   1.000000
   19        4.112283   1.000000
   20        4.117106   1.000000
   21        4.134370   1.000000
   22        4.165418   1.000000
   23        4.172416   1.000000
   24        4.182627   1.000000
   25        4.202476   1.000000
   26        4.212259   1.000000
   27        4.238483   1.000000
   28        4.252099   1.000000
   29        4.275025   1.000000
   30        4.300782   1.000000
   31        4.319627   1.000000
   32        4.346724   1.000000
   33        4.357659   1.000000
   34        4.414270   1.000000
   35        4.455440   1.000000
   36        4.495659   1.000000
   37        4.540388   1.000000
   38        4.581836   1.000000
   39        4.599272   1.000000
   40        4.661571   1.000000
   41        4.782063   1.000000
   42        4.857108   1.000000
   43        4.920242   1.000000
   44        4.939835   1.000000
   45        4.973888   1.000000
   46        5.006269   1.000000
   47        5.077224   1.000000
   48        5.143718   1.000000
   49        5.167884   1.000000
   50        5.185824   1.000000
   51        5.207013   1.000000
   52        5.238238   1.000000
   53        5.256381   1.000000
   54        5.263675   1.000000
   55        5.293658   1.000000
   56        5.313477   1.000000
   57        5.323485   1.000000
   58        5.346645   1.000000
   59        5.377258   1.000000
   60        5.399095   1.000000
   61        5.414310   1.000000
   62        5.427960   1.000000
   63        5.479546   1.000000
   64        5.491932   1.000000
   65        5.519540   1.000000
   66        5.524752   1.000000
   67        5.560357   1.000000
   68        5.568539   1.000000
   69        5.581699   1.000000
   70        5.602771   1.000000
   71        5.607490   1.000000
   72        5.639941   1.000000
   73        5.650989   1.000000
   74        5.682072   1.000000
   75        5.701998   1.000000
   76        5.737980   1.000000
   77        5.777197   1.000000
   78        5.859138   1.000000
   79        5.896120   1.000000
   80        5.929815   1.000000
   81        5.985476   1.000000
   82        6.012731   1.000000
   83        6.064712   1.000000
   84        6.094494   1.000000
   85        6.146251   1.000000
   86        6.188105   1.000000
   87        6.216948   1.000000
   88        6.268165   1.000000
   89        6.318066   1.000000
   90        6.405821   1.000000
   91        6.479763   1.000000
   92        6.512514   1.000000
   93        6.655757   1.000000
   94        6.760336   1.000000
   95        6.823712   1.000000
   96        6.860235   1.000000
   97        6.912241   1.000000
   98        6.943504   1.000000
   99        6.956162   1.000000
  100        6.990155   1.000000
  101        7.008255   1.000000
  102        7.050257   1.000000
  103        7.075190   1.000000
  104        7.102609   1.000000
  105        7.133916   1.000000
  106        7.149310   1.000000
  107        7.185281   1.000000
  108        7.200069   1.000000
  109        7.207982   1.000000
  110        7.264398   1.000000
  111        7.315215   1.000000
  112        7.341539   1.000000
  113        7.353405   1.000000
  114        7.371893   1.000000
  115        7.413163   1.000000
  116        7.421540   1.000000
  117        7.452104   1.000000
  118        7.526618   1.000000
  119        7.537147   1.000000
  120        7.574810   1.000000
  121        7.640119   1.000000
  122        7.649805   1.000000
  123        7.706990   1.000000
  124        7.738304   1.000000
  125        7.762842   1.000000
  126        7.794265   1.000000
  127        7.848660   1.000000
  128        7.873074   1.000000
  129        7.899628   1.000000
  130        7.910332   1.000000
  131        7.980644   1.000000
  132        8.049151   1.000000
  133        8.061165   1.000000
  134        8.098485   1.000000
  135        8.135212   1.000000
  136        8.161380   1.000000
  137        8.188686   1.000000
  138        8.226135   1.000000
  139        8.325593   1.000000
  140        8.541672   1.000000
  141        8.613508   1.000000
  142        8.622888   1.000000
  143        8.697004   1.000000
  144        8.733966   1.000000
  145        9.064832   1.000000
  146        9.100607   1.000000
  147        9.145120   1.000004
  148        9.176913   1.000015
  149        9.220043   1.000085
  150        9.273307   1.000545
  151        9.282320   1.000726
  152        9.344435   1.004161
  153        9.366678   1.007021
  154        9.374909   1.008398
  155        9.392297   1.011933
  156        9.411937   1.016932
  157        9.422659   1.020037
  158        9.496836   1.034994
  159        9.527697   1.021238
  160        9.559638   0.977066
  161        9.606897   0.834210
  162        9.641847   0.669559
  163        9.653041   0.609351
  164        9.744311   0.142208
  165        9.750021   0.121190
  166        9.802552  -0.005119
  167        9.852184  -0.035336
  168        9.903887  -0.025753
  169        9.927322  -0.018630
  170        9.934324  -0.016641
  171        9.976518  -0.007342
  172       10.860570  -0.000000
  173       10.868575  -0.000000
  174       10.898993  -0.000000
  175       10.960096  -0.000000
  176       10.978665  -0.000000
  177       10.997219  -0.000000
  178       11.005120  -0.000000
  179       11.036713  -0.000000
  180       11.056143  -0.000000
  181       11.058669  -0.000000
  182       11.108483  -0.000000
  183       11.158316  -0.000000
  184       11.440761  -0.000000
  185       11.447514  -0.000000
  186       11.525785  -0.000000
  187       14.363214   0.000000
  188       14.407659   0.000000
  189       14.449126   0.000000
  190       14.479599   0.000000
  191       15.638105   0.000000
  192       15.733726   0.000000
  193       15.829095   0.000000
  194       15.879366   0.000000
  195       16.011129   0.000000
  196       16.115788   0.000000
  197       17.114566   0.000000
  198       17.166798   0.000000
  199       17.177554   0.000000
  200       17.200199   0.000000
 
  0.3333333E+00  0.8046813E-20 -0.3252607E-18  0.7407407E-01
    1        0.545827   1.000000
    2        1.496745   1.000000
    3        2.948955   1.000000
    4        2.978451   1.000000
    5        2.998177   1.000000
    6        3.022664   1.000000
    7        3.101805   1.000000
    8        3.108136   1.000000
    9        3.120349   1.000000
   10        3.126082   1.000000
   11        3.261796   1.000000
   12        3.385320   1.000000
   13        3.404140   1.000000
   14        3.419620   1.000000
   15        3.550164   1.000000
   16        3.568066   1.000000
   17        3.594618   1.000000
   18        3.610386   1.000000
   19        3.623438   1.000000
   20        3.653415   1.000000
   21        3.661573   1.000000
   22        3.689817   1.000000
   23        3.755949   1.000000
   24        3.784312   1.000000
   25        3.794058   1.000000
   26        3.970133   1.000000
   27        3.974220   1.000000
   28        4.068833   1.000000
   29        4.313389   1.000000
   30        4.324419   1.000000
   31        4.430734   1.000000
   32        4.445509   1.000000
   33        4.465197   1.000000
   34        4.493042   1.000000
   35        4.510522   1.000000
   36        4.554779   1.000000
   37        4.588718   1.000000
   38        4.609201   1.000000
   39        4.669912   1.000000
   40        4.693504   1.000000
   41        4.789472   1.000000
   42        4.810365   1.000000
   43        4.845228   1.000000
   44        4.863312   1.000000
   45        4.905295   1.000000
   46        4.930973   1.000000
   47        4.969105   1.000000
   48        4.996687   1.000000
   49        5.020960   1.000000
   50        5.058652   1.000000
   51        5.083115   1.000000
   52        5.112993   1.000000
   53        5.119904   1.000000
   54        5.151194   1.000000
   55        5.172768   1.000000
   56        5.202844   1.000000
   57        5.238917   1.000000
   58        5.288466   1.000000
   59        5.353439   1.000000
   60        5.380014   1.000000
   61        5.454058   1.000000
   62        5.473295   1.000000
   63        5.534255   1.000000
   64        5.577779   1.000000
   65        5.598150   1.000000
   66        5.650596   1.000000
   67        5.673928   1.000000
   68        5.714224   1.000000
   69        5.726659   1.000000
   70        5.772909   1.000000
   71        5.795528   1.000000
   72        5.838557   1.000000
   73        5.871108   1.000000
   74        5.907566   1.000000
   75        5.920663   1.000000
   76        5.960347   1.000000
   77        6.002415   1.000000
   78        6.032920   1.000000
   79        6.061058   1.000000
   80        6.082835   1.000000
   81        6.122383   1.000000
   82        6.149661   1.000000
   83        6.185523   1.000000
   84        6.250753   1.000000
   85        6.265416   1.000000
   86        6.285752   1.000000
   87        6.321717   1.000000
   88        6.344092   1.000000
   89        6.401201   1.000000
   90        6.422496   1.000000
   91        6.474013   1.000000
   92        6.535295   1.000000
   93        6.575771   1.000000
   94        6.640455   1.000000
   95        6.685770   1.000000
   96        6.750104   1.000000
   97        6.797823   1.000000
   98        6.848143   1.000000
   99        6.869763   1.000000
  100        6.911158   1.000000
  101        6.970400   1.000000
  102        7.005404   1.000000
  103        7.105046   1.000000
  104        7.160995   1.000000
  105        7.188247   1.000000
  106        7.211106   1.000000
  107        7.262741   1.000000
  108        7.300558   1.000000
  109        7.350795   1.000000
  110        7.401587   1.000000
  111        7.421575   1.000000
  112        7.497700   1.000000
  113        7.507771   1.000000
  114        7.537692   1.000000
  115        7.583706   1.000000
  116        7.596757   1.000000
  117        7.623308   1.000000
  118        7.661808   1.000000
  119        7.690982   1.000000
  120        7.715277   1.000000
  121        7.753539   1.000000
  122        7.792580   1.000000
  123        7.816995   1.000000
  124        7.845286   1.000000
  125        7.851961   1.000000
  126        7.869703   1.000000
  127        7.899644   1.000000
  128        7.918215   1.000000
  129        7.989797   1.000000
  130        8.029576   1.000000
  131        8.087208   1.000000
  132        8.144166   1.000000
  133        8.219328   1.000000
  134        8.239008   1.000000
  135        8.247605   1.000000
  136        8.310151   1.000000
  137        8.341054   1.000000
  138        8.376745   1.000000
  139        8.413637   1.000000
  140        8.488631   1.000000
  141        8.514452   1.000000
  142        8.556283   1.000000
  143        8.579200   1.000000
  144        8.620802   1.000000
  145        8.678910   1.000000
  146        8.735406   1.000000
  147        8.818736   1.000000
  148        8.832377   1.000000
  149        8.879131   1.000000
  150        8.922985   1.000000
  151        8.992753   1.000000
  152        9.032480   1.000000
  153        9.065544   1.000000
  154        9.112326   1.000001
  155        9.198992   1.000038
  156        9.241922   1.000188
  157        9.323542   1.002421
  158        9.352305   1.005039
  159        9.371868   1.007868
  160        9.419241   1.019025
  161        9.459045   1.030872
  162        9.522400   1.025270
  163        9.536413   1.012751
  164        9.554069   0.987511
  165        9.589158   0.899453
  166        9.803139  -0.005894
  167        9.858074  -0.035437
  168        9.880667  -0.032235
  169        9.919169  -0.021057
  170        9.956131  -0.011214
  171        9.964645  -0.009454
  172       10.049359  -0.001099
  173       10.454262  -0.000000
  174       10.462343  -0.000000
  175       10.503303  -0.000000
  176       10.528383  -0.000000
  177       10.937059  -0.000000
  178       10.955936  -0.000000
  179       10.971426  -0.000000
  180       10.986028  -0.000000
  181       12.158446  -0.000000
  182       12.238293  -0.000000
  183       12.268192  -0.000000
  184       12.340263  -0.000000
  185       12.904821  -0.000000
  186       12.972643  -0.000000
  187       13.979533   0.000000
  188       14.121071   0.000000
  189       14.175464   0.000000
  190       14.259028   0.000000
  191       15.063153   0.000000
  192       15.128147   0.000000
  193       15.187701   0.000000
  194       15.248301   0.000000
  195       15.270968   0.000000
  196       15.344408   0.000000
  197       16.109274   0.000000
  198       16.136799   0.000000
  199       16.778536   0.000000
  200       16.849535   0.000000
 
  0.1450544E-19  0.3333333E+00 -0.1084202E-18  0.7407407E-01
    1        0.549540   1.000000
    2        1.511170   1.000000
    3        2.941669   1.000000
    4        2.967101   1.000000
    5        2.980763   1.000000
    6        2.999372   1.000000
    7        3.098562   1.000000
    8        3.110473   1.000000
    9        3.123122   1.000000
   10        3.131094   1.000000
   11        3.283084   1.000000
   12        3.362250   1.000000
   13        3.388303   1.000000
   14        3.478933   1.000000
   15        3.564797   1.000000
   16        3.585762   1.000000
   17        3.596751   1.000000
   18        3.608995   1.000000
   19        3.629108   1.000000
   20        3.654445   1.000000
   21        3.690448   1.000000
   22        3.699790   1.000000
   23        3.748134   1.000000
   24        3.764891   1.000000
   25        3.799467   1.000000
   26        3.944901   1.000000
   27        4.031616   1.000000
   28        4.083802   1.000000
   29        4.251010   1.000000
   30        4.283622   1.000000
   31        4.388935   1.000000
   32        4.407313   1.000000
   33        4.434007   1.000000
   34        4.463608   1.000000
   35        4.530043   1.000000
   36        4.552354   1.000000
   37        4.573114   1.000000
   38        4.585353   1.000000
   39        4.655608   1.000000
   40        4.673890   1.000000
   41        4.751049   1.000000
   42        4.798050   1.000000
   43        4.870047   1.000000
   44        4.895948   1.000000
   45        4.937061   1.000000
   46        4.973054   1.000000
   47        4.997731   1.000000
   48        5.034907   1.000000
   49        5.045470   1.000000
   50        5.087774   1.000000
   51        5.149153   1.000000
   52        5.156481   1.000000
   53        5.179768   1.000000
   54        5.210314   1.000000
   55        5.231402   1.000000
   56        5.244841   1.000000
   57        5.282494   1.000000
   58        5.317461   1.000000
   59        5.355800   1.000000
   60        5.380960   1.000000
   61        5.428087   1.000000
   62        5.453833   1.000000
   63        5.504814   1.000000
   64        5.525057   1.000000
   65        5.587979   1.000000
   66        5.618432   1.000000
   67        5.640440   1.000000
   68        5.677960   1.000000
   69        5.695535   1.000000
   70        5.713492   1.000000
   71        5.735550   1.000000
   72        5.749393   1.000000
   73        5.819542   1.000000
   74        5.856336   1.000000
   75        5.882050   1.000000
   76        5.941604   1.000000
   77        5.958136   1.000000
   78        5.984389   1.000000
   79        6.018389   1.000000
   80        6.058360   1.000000
   81        6.091429   1.000000
   82        6.145940   1.000000
   83        6.177597   1.000000
   84        6.243828   1.000000
   85        6.277120   1.000000
   86        6.302163   1.000000
   87        6.334206   1.000000
   88        6.360863   1.000000
   89        6.436864   1.000000
   90        6.463573   1.000000
   91        6.520683   1.000000
   92        6.582217   1.000000
   93        6.645107   1.000000
   94        6.662680   1.000000
   95        6.703023   1.000000
   96        6.754539   1.000000
   97        6.805224   1.000000
   98        6.831983   1.000000
   99        6.870048   1.000000
  100        6.902456   1.000000
  101        6.924960   1.000000
  102        6.960584   1.000000
  103        7.036588   1.000000
  104        7.115516   1.000000
  105        7.163483   1.000000
  106        7.240785   1.000000
  107        7.303853   1.000000
  108        7.332337   1.000000
  109        7.394439   1.000000
  110        7.405932   1.000000
  111        7.423068   1.000000
  112        7.483169   1.000000
  113        7.520086   1.000000
  114        7.543270   1.000000
  115        7.572880   1.000000
  116        7.610394   1.000000
  117        7.648291   1.000000
  118        7.686490   1.000000
  119        7.710933   1.000000
  120        7.733468   1.000000
  121        7.770955   1.000000
  122        7.826770   1.000000
  123        7.846141   1.000000
  124        7.865846   1.000000
  125        7.894265   1.000000
  126        7.917730   1.000000
  127        7.934883   1.000000
  128        7.985535   1.000000
  129        8.003553   1.000000
  130        8.038394   1.000000
  131        8.060527   1.000000
  132        8.129179   1.000000
  133        8.143003   1.000000
  134        8.236697   1.000000
  135        8.283482   1.000000
  136        8.301003   1.000000
  137        8.332462   1.000000
  138        8.368973   1.000000
  139        8.410065   1.000000
  140        8.436713   1.000000
  141        8.477389   1.000000
  142        8.527704   1.000000
  143        8.617842   1.000000
  144        8.659053   1.000000
  145        8.696245   1.000000
  146        8.742706   1.000000
  147        8.775844   1.000000
  148        8.844516   1.000000
  149        8.893876   1.000000
  150        8.932896   1.000000
  151        8.990327   1.000000
  152        9.045730   1.000000
  153        9.092346   1.000000
  154        9.119192   1.000001
  155        9.183553   1.000020
  156        9.239807   1.000175
  157        9.298280   1.001181
  158        9.361035   1.006182
  159        9.376755   1.008733
  160        9.435521   1.023965
  161        9.459116   1.030891
  162        9.503540   1.033786
  163        9.547219   0.998675
  164        9.592979   0.886569
  165        9.610195   0.820593
  166        9.662073   0.559270
  167        9.860668  -0.035333
  168        9.877173  -0.033011
  169        9.957867  -0.010839
  170        9.983643  -0.006258
  171       10.019471  -0.002568
  172       10.061794  -0.000751
  173       10.390445  -0.000000
  174       10.425592  -0.000000
  175       10.500632  -0.000000
  176       10.619669  -0.000000
  177       10.795833  -0.000000
  178       10.852020  -0.000000
  179       10.928485  -0.000000
  180       11.030245  -0.000000
  181       12.203586  -0.000000
  182       12.242338  -0.000000
  183       12.280578  -0.000000
  184       12.353442  -0.000000
  185       12.924409  -0.000000
  186       12.937639  -0.000000
  187       14.056105   0.000000
  188       14.168533   0.000000
  189       14.239036   0.000000
  190       14.297285   0.000000
  191       15.087303   0.000000
  192       15.121187   0.000000
  193       15.221477   0.000000
  194       15.263007   0.000000
  195       15.300116   0.000000
  196       15.344734   0.000000
  197       16.014428   0.000000
  198       16.132754   0.000000
  199       16.659189   0.000000
  200       16.808225   0.000000
 
  0.3333333E+00  0.3333333E+00 -0.2168404E-18  0.7407407E-01
    1        0.869673   1.000000
    2        1.779829   1.000000
    3        1.796011   1.000000
    4        2.547060   1.000000
    5        3.024252   1.000000
    6        3.026529   1.000000
    7        3.101846   1.000000
    8        3.158874   1.000000
    9        3.294711   1.000000
   10        3.325038   1.000000
   11        3.334762   1.000000
   12        3.377316   1.000000
   13        3.435941   1.000000
   14        3.459954   1.000000
   15        3.490275   1.000000
   16        3.530475   1.000000
   17        3.541551   1.000000
   18        3.652077   1.000000
   19        3.693823   1.000000
   20        3.845790   1.000000
   21        3.868872   1.000000
   22        3.926269   1.000000
   23        3.962704   1.000000
   24        3.986421   1.000000
   25        4.037229   1.000000
   26        4.063701   1.000000
   27        4.101406   1.000000
   28        4.108864   1.000000
   29        4.120317   1.000000
   30        4.167953   1.000000
   31        4.216057   1.000000
   32        4.231892   1.000000
   33        4.255908   1.000000
   34        4.293757   1.000000
   35        4.325897   1.000000
   36        4.380632   1.000000
   37        4.418240   1.000000
   38        4.477180   1.000000
   39        4.511736   1.000000
   40        4.539942   1.000000
   41        4.604226   1.000000
   42        4.657056   1.000000
   43        4.706930   1.000000
   44        4.733573   1.000000
   45        4.814999   1.000000
   46        4.847015   1.000000
   47        4.916802   1.000000
   48        5.004327   1.000000
   49        5.065856   1.000000
   50        5.095941   1.000000
   51        5.129886   1.000000
   52        5.158194   1.000000
   53        5.234694   1.000000
   54        5.304942   1.000000
   55        5.346626   1.000000
   56        5.372801   1.000000
   57        5.394438   1.000000
   58        5.428211   1.000000
   59        5.476000   1.000000
   60        5.498080   1.000000
   61        5.549703   1.000000
   62        5.565028   1.000000
   63        5.593355   1.000000
   64        5.634874   1.000000
   65        5.666013   1.000000
   66        5.699842   1.000000
   67        5.734494   1.000000
   68        5.784296   1.000000
   69        5.805409   1.000000
   70        5.827839   1.000000
   71        5.848566   1.000000
   72        5.915791   1.000000
   73        5.936449   1.000000
   74        5.972246   1.000000
   75        5.991398   1.000000
   76        6.045725   1.000000
   77        6.072009   1.000000
   78        6.108917   1.000000
   79        6.130287   1.000000
   80        6.151743   1.000000
   81        6.205716   1.000000
   82        6.233534   1.000000
   83        6.267338   1.000000
   84        6.300505   1.000000
   85        6.327585   1.000000
   86        6.379456   1.000000
   87        6.414074   1.000000
   88        6.445018   1.000000
   89        6.474467   1.000000
   90        6.521542   1.000000
   91        6.542529   1.000000
   92        6.560626   1.000000
   93        6.581864   1.000000
   94        6.610091   1.000000
   95        6.650875   1.000000
   96        6.672707   1.000000
   97        6.701199   1.000000
   98        6.735116   1.000000
   99        6.755876   1.000000
  100        6.800568   1.000000
  101        6.850041   1.000000
  102        6.878353   1.000000
  103        6.894936   1.000000
  104        6.924892   1.000000
  105        6.957105   1.000000
  106        6.992842   1.000000
  107        7.033615   1.000000
  108        7.045384   1.000000
  109        7.111698   1.000000
  110        7.142436   1.000000
  111        7.202213   1.000000
  112        7.226858   1.000000
  113        7.257647   1.000000
  114        7.370719   1.000000
  115        7.409785   1.000000
  116        7.497190   1.000000
  117        7.571708   1.000000
  118        7.613945   1.000000
  119        7.732054   1.000000
  120        7.752940   1.000000
  121        7.789659   1.000000
  122        7.798218   1.000000
  123        7.906497   1.000000
  124        7.942803   1.000000
  125        7.981102   1.000000
  126        8.007867   1.000000
  127        8.063733   1.000000
  128        8.098303   1.000000
  129        8.155118   1.000000
  130        8.179612   1.000000
  131        8.213509   1.000000
  132        8.258138   1.000000
  133        8.311273   1.000000
  134        8.380726   1.000000
  135        8.416552   1.000000
  136        8.452839   1.000000
  137        8.463349   1.000000
  138        8.490246   1.000000
  139        8.527872   1.000000
  140        8.539481   1.000000
  141        8.591460   1.000000
  142        8.629650   1.000000
  143        8.665427   1.000000
  144        8.720199   1.000000
  145        8.742656   1.000000
  146        8.788504   1.000000
  147        8.827938   1.000000
  148        8.859445   1.000000
  149        8.920694   1.000000
  150        8.955191   1.000000
  151        9.007456   1.000000
  152        9.042021   1.000000
  153        9.047378   1.000000
  154        9.123341   1.000001
  155        9.158512   1.000007
  156        9.207756   1.000053
  157        9.239966   1.000176
  158        9.275977   1.000594
  159        9.339880   1.003712
  160        9.350838   1.004865
  161        9.393961   1.012316
  162        9.417733   1.018584
  163        9.455578   1.029942
  164        9.531007   1.018297
  165        9.570194   0.953709
  166        9.600672   0.858669
  167        9.645912   0.647994
  168        9.692766   0.387398
  169        9.791162   0.012457
  170        9.837864  -0.032717
  171        9.875319  -0.033389
  172        9.892633  -0.029102
  173        9.910348  -0.023763
  174        9.941365  -0.014752
  175       11.048324  -0.000000
  176       11.133779  -0.000000
  177       11.401577  -0.000000
  178       11.583366  -0.000000
  179       12.060816  -0.000000
  180       12.092893  -0.000000
  181       12.382996  -0.000000
  182       12.445632  -0.000000
  183       12.469211  -0.000000
  184       12.486544  -0.000000
  185       12.958846  -0.000000
  186       13.060107  -0.000000
  187       13.481237  -0.000000
  188       13.907232   0.000000
  189       14.186555   0.000000
  190       14.238714   0.000000
  191       14.510021   0.000000
  192       14.659067   0.000000
  193       15.003027   0.000000
  194       15.087878   0.000000
  195       15.122630   0.000000
  196       15.136855   0.000000
  197       15.765544   0.000000
  198       15.812606   0.000000
  199       15.823362   0.000000
  200       15.896672   0.000000
 
 -0.3333333E+00  0.3333333E+00  0.3252607E-18  0.7407407E-01
    1        0.874003   1.000000
    2        1.759176   1.000000
    3        1.801734   1.000000
    4        2.563732   1.000000
    5        3.045601   1.000000
    6        3.075323   1.000000
    7        3.091351   1.000000
    8        3.126013   1.000000
    9        3.266750   1.000000
   10        3.268429   1.000000
   11        3.366842   1.000000
   12        3.407034   1.000000
   13        3.439229   1.000000
   14        3.466110   1.000000
   15        3.484612   1.000000
   16        3.534801   1.000000
   17        3.554294   1.000000
   18        3.652958   1.000000
   19        3.685699   1.000000
   20        3.845468   1.000000
   21        3.874355   1.000000
   22        3.889521   1.000000
   23        3.952496   1.000000
   24        3.972763   1.000000
   25        4.004107   1.000000
   26        4.041286   1.000000
   27        4.096276   1.000000
   28        4.099788   1.000000
   29        4.138048   1.000000
   30        4.166373   1.000000
   31        4.210993   1.000000
   32        4.243769   1.000000
   33        4.271201   1.000000
   34        4.299750   1.000000
   35        4.334244   1.000000
   36        4.404705   1.000000
   37        4.477148   1.000000
   38        4.500859   1.000000
   39        4.521021   1.000000
   40        4.579343   1.000000
   41        4.626504   1.000000
   42        4.656249   1.000000
   43        4.686253   1.000000
   44        4.703929   1.000000
   45        4.735506   1.000000
   46        4.834816   1.000000
   47        4.925702   1.000000
   48        4.978804   1.000000
   49        5.016805   1.000000
   50        5.038325   1.000000
   51        5.125098   1.000000
   52        5.179290   1.000000
   53        5.225082   1.000000
   54        5.311833   1.000000
   55        5.358481   1.000000
   56        5.401280   1.000000
   57        5.427973   1.000000
   58        5.459000   1.000000
   59        5.480174   1.000000
   60        5.511196   1.000000
   61        5.541050   1.000000
   62        5.563398   1.000000
   63        5.595481   1.000000
   64        5.655304   1.000000
   65        5.678946   1.000000
   66        5.714690   1.000000
   67        5.739232   1.000000
   68        5.772940   1.000000
   69        5.785054   1.000000
   70        5.842757   1.000000
   71        5.889469   1.000000
   72        5.914427   1.000000
   73        5.941111   1.000000
   74        5.963750   1.000000
   75        6.018641   1.000000
   76        6.024700   1.000000
   77        6.071353   1.000000
   78        6.098848   1.000000
   79        6.124869   1.000000
   80        6.169636   1.000000
   81        6.196047   1.000000
   82        6.229764   1.000000
   83        6.271654   1.000000
   84        6.287521   1.000000
   85        6.304341   1.000000
   86        6.348245   1.000000
   87        6.386906   1.000000
   88        6.432703   1.000000
   89        6.491843   1.000000
   90        6.514362   1.000000
   91        6.542427   1.000000
   92        6.571438   1.000000
   93        6.588165   1.000000