automatically generated by mexm         
           1
     8.067304    0.010058   -0.015820
     0.010392    8.028583   -0.006229
    -0.016159   -0.006089    8.083754
   Au   Pt
  12  20
Direct configuration=     1
   0.00147700  0.24941800  0.25288400
   0.25138500  0.75071400  0.49848400
   0.00007700  0.24886100  0.74944800
   0.49944100  0.50131200  0.49950600
   0.99942600  0.99960400  0.49923500
   0.75025400  0.75058100  0.50089200
   0.25060300  0.00144500  0.75098700
   0.74827100  0.24906300  0.00121300
   0.50124800  0.25086900  0.24931100
   0.74843100  0.49934500  0.74856800
   0.00162500  0.49879200  0.00059900
   0.74930000  0.74936900  0.00012600
   0.00271600  0.74977500  0.75297800
   0.00342700  0.49812700  0.49713000
   0.25158300  0.24971900  0.00170300
   0.49883100  0.75165400  0.24477500
   0.24763700  0.50079500  0.24870100
   0.25130800  0.25194600  0.49671800
   0.74520300  0.99975200  0.75078800
   0.75425000  0.50056400  0.25375000
   0.75051600  0.24841400  0.49846400
   0.00096400  0.99795600  0.00466200
   0.49765800  0.24822000  0.74934300
   0.49840600  0.99878900  0.00070500
   0.50333700  0.00294300  0.49948100
   0.49195900  0.50179600  0.99923800
   0.25031000  0.00114000  0.24538600
   0.25009000  0.74990200  0.00182300
   0.49643200  0.75224200  0.75421600
   0.00171900  0.75025600  0.24828700
   0.75056900  0.99759600  0.24938000
   0.25154500  0.49903500  0.75122000
automatically generated by mexm         
           1
     8.075520    0.009391   -0.015559
     0.009731    8.036475   -0.005184
    -0.015900   -0.005036    8.091050
   Au   Pt
  12  20
Direct configuration=     2
   0.00130724  0.24933879  0.25261424
   0.25136356  0.75070598  0.49846096
   0.00007755  0.24885661  0.74944099
   0.49943383  0.50128968  0.49948812
   0.99942762  0.99946601  0.49936784
   0.75028296  0.75056401  0.50088734
   0.25058558  0.00146123  0.75099990
   0.74807411  0.24907202  0.00104158
   0.50124258  0.25087687  0.24930991
   0.74844157  0.49933585  0.74855648
   0.00163333  0.49893219  0.00047444
   0.74932677  0.74937802  0.00015074
   0.00271606  0.74977183  0.75295228
   0.00344296  0.49847075  0.49744166
   0.25190689  0.24978170  0.00142563
   0.49877666  0.75167864  0.24479308
   0.24796827  0.50104655  0.24867679
   0.25164484  0.25195625  0.49701077
   0.74521556  0.99974731  0.75081392
   0.75393499  0.50094387  0.25380911
   0.75017201  0.24839623  0.49876779
   0.00094908  0.99758765  0.00437604
   0.49772242  0.24822705  0.74940159
   0.49839925  0.99876896  0.00071476
   0.50333678  0.00302151  0.49941356
   0.49193761  0.50176452  0.99927073
   0.25069525  0.00080614  0.24539493
   0.25009099  0.74992555  0.00185865
   0.49641147  0.75225232  0.75424954
   0.00171950  0.75027451  0.24828581
   0.75023955  0.99730062  0.24939436
   0.25152113  0.49899479  0.75115747
automatically generated by mexm         
           1
     8.074509    0.008428   -0.015312
     0.008777    8.034887   -0.003412
    -0.015658   -0.003251    8.087926
   Au   Pt
  12  20
Direct configuration=     3
   0.00119754  0.24928762  0.25243989
   0.25134971  0.75070080  0.49844607
   0.00007791  0.24885377  0.74943645
   0.49942920  0.50127525  0.49947657
   0.99942866  0.99937680  0.49945372
   0.75030168  0.75055303  0.50088433
   0.25057433  0.00147171  0.75100824
   0.74794687  0.24907786  0.00093079
   0.50123907  0.25088196  0.24930920
   0.74844840  0.49932993  0.74854903
   0.00163873  0.49902281  0.00039390
   0.74934407  0.74938385  0.00016674
   0.00271610  0.74976979  0.75293565
   0.00345329  0.49869288  0.49764307
   0.25211623  0.24982229  0.00124632
   0.49874155  0.75169455  0.24480476
   0.24818238  0.50120915  0.24866110
   0.25186253  0.25196287  0.49720000
   0.74522367  0.99974427  0.75083068
   0.75373144  0.50118935  0.25384728
   0.74994969  0.24838467  0.49896417
   0.00093942  0.99734961  0.00419125
   0.49776406  0.24823161  0.74943945
   0.49839489  0.99875601  0.00072107
   0.50333665  0.00307227  0.49936996
   0.49192379  0.50174417  0.99929189
   0.25094419  0.00059040  0.24540072
   0.25009164  0.74994077  0.00188169
   0.49639819  0.75225898  0.75427121
   0.00171982  0.75028648  0.24828503
   0.75002661  0.99710968  0.24940368
   0.25150570  0.49896881  0.75111707
automatically generated by mexm         
           1
     8.071814    0.005861   -0.014653
     0.006232    8.030653    0.001312
    -0.015013    0.001507    8.079598
   Au   Pt
  12  20
Direct configuration=     4
   0.00101530  0.24919561  0.25214620
   0.25133851  0.75068901  0.49843504
   0.00007905  0.24883235  0.74941332
   0.49941315  0.50127809  0.49947255
   0.99940834  0.99926114  0.49956239
   0.75032812  0.75055108  0.50091261
   0.25057826  0.00149034  0.75103690
   0.74770484  0.24907212  0.00075006
   0.50124506  0.25089669  0.24929955
   0.74843545  0.49933137  0.74853374
   0.00168403  0.49917907  0.00028095
   0.74934832  0.74938772  0.00018029
   0.00273022  0.74976101  0.75291522
   0.00348981  0.49907061  0.49796737
   0.25252387  0.24990065  0.00092133
   0.49866884  0.75172668  0.24480085
   0.24854876  0.50150001  0.24862616
   0.25223406  0.25199712  0.49751660
   0.74520988  0.99971869  0.75085870
   0.75336578  0.50165764  0.25394448
   0.74954599  0.24834953  0.49931703
   0.00093764  0.99687632  0.00386873
   0.49784725  0.24822317  0.74952289
   0.49838219  0.99870712  0.00071694
   0.50335337  0.00316585  0.49931426
   0.49186497  0.50174195  0.99931089
   0.25140134  0.00020465  0.24537864
   0.25010899  0.74995932  0.00191163
   0.49635958  0.75228372  0.75433427
   0.00172806  0.75030961  0.24827789
   0.74961815  0.99674439  0.24942265
   0.25150081  0.49893138  0.75105087
automatically generated by mexm         
           1
     8.071931    0.005972   -0.014681
     0.006342    8.030836    0.001108
    -0.015040    0.001301    8.079957
   Au   Pt
  12  20
Direct configuration=     5
   0.00052939  0.24895040  0.25136302
   0.25130867  0.75065758  0.49840564
   0.00008210  0.24877525  0.74935164
   0.49937034  0.50128566  0.49946183
   0.99935413  0.99895268  0.49985228
   0.75039860  0.75054588  0.50098802
   0.25058877  0.00154001  0.75111334
   0.74705954  0.24905682  0.00026811
   0.50126103  0.25093596  0.24927379
   0.74840091  0.49933520  0.74849295
   0.00180486  0.49959582 -0.00002038
   0.74935965  0.74939801  0.00021645
   0.00276786  0.74973760  0.75286075
   0.00358726  0.50007764  0.49883201
   0.25361081  0.25010989  0.00005449
   0.49847499  0.75181230  0.24479042
   0.24952573  0.50227570  0.24853279
   0.25322463  0.25208840  0.49836091
   0.74517310  0.99965046  0.75093345
   0.75239099  0.50290614  0.25420347
   0.74846957  0.24825549  0.50025814
   0.00093277  0.99561450  0.00300885
   0.49806905  0.24820067  0.74974540
   0.49834832  0.99857676  0.00070597
   0.50339799  0.00341541  0.49916564
   0.49170816  0.50173598  0.99936157
   0.25262009 -0.00082379  0.24531993
   0.25015526  0.75000880  0.00199148
   0.49625664  0.75234964  0.75450241
   0.00175004  0.75037130  0.24825882
   0.74852899  0.99577023  0.24947347
   0.25148778  0.49883160  0.75087436
automatically generated by mexm         
           1
     8.072891    0.006677   -0.014993
     0.007043    8.031693    0.000796
    -0.015355    0.000986    8.079431
   Au   Pt
  12  20
Direct configuration=     6
   0.00055038  0.24896098  0.25139686
   0.25130996  0.75065894  0.49840691
   0.00008197  0.24877771  0.74935430
   0.49937219  0.50128533  0.49946229
   0.99935647  0.99896602  0.49983974
   0.75039556  0.75054610  0.50098476
   0.25058831  0.00153787  0.75111004
   0.74708741  0.24905748  0.00028893
   0.50126034  0.25093427  0.24927490
   0.74840240  0.49933503  0.74849471
   0.00179964  0.49957781 -0.00000735
   0.74935916  0.74939757  0.00021489
   0.00276623  0.74973861  0.75286310
   0.00358304  0.50003416  0.49879467
   0.25356386  0.25010081  0.00009197
   0.49848336  0.75180861  0.24479087
   0.24948352  0.50224218  0.24853685
   0.25318184  0.25208447  0.49832442
   0.74517469  0.99965341  0.75093022
   0.75243307  0.50285223  0.25419231
   0.74851606  0.24825959  0.50021746
   0.00093300  0.99566899  0.00304598
   0.49805947  0.24820164  0.74973578
   0.49834979  0.99858239  0.00070644
   0.50339606  0.00340463  0.49917207
   0.49171493  0.50173624  0.99935938
   0.25256746 -0.00077938  0.24532244
   0.25015326  0.75000666  0.00198803
   0.49626109  0.75234680  0.75449514
   0.00174909  0.75036863  0.24825964
   0.74857605  0.99581233  0.24947124
   0.25148835  0.49883591  0.75088198
automatically generated by mexm         
           1
     8.075772    0.008791   -0.015927
     0.009145    8.034267   -0.000143
    -0.016297    0.000039    8.077853
   Au   Pt
  12  20
Direct configuration=     7
   0.00052478  0.24892933  0.25135563
   0.25135617  0.75070469  0.49850356
   0.00007049  0.24875197  0.74933837
   0.49937290  0.50138830  0.49955600
   0.99934571  0.99913342  0.49970238
   0.75033669  0.75058907  0.50113906
   0.25061900  0.00150309  0.75107661
   0.74709072  0.24905502  0.00033033
   0.50128092  0.25098091  0.24925910
   0.74837448  0.49940571  0.74854328
   0.00183833  0.49951936  0.00007666
   0.74930251  0.74931531  0.00012223
   0.00278739  0.74971357  0.75282893
   0.00362489  0.50003017  0.49876184
   0.25366821  0.25012321  0.00001848
   0.49847093  0.75176457  0.24481833
   0.24949441  0.50222176  0.24855015
   0.25313410  0.25211809  0.49829299
   0.74515130  0.99955839  0.75093289
   0.75232785  0.50300755  0.25425746
   0.74845569  0.24824698  0.50029236
   0.00094605  0.99550410  0.00295542
   0.49814675  0.24818970  0.74980466
   0.49837164  0.99853198  0.00062900
   0.50338271  0.00336080  0.49925366
   0.49174171  0.50183056  0.99929812
   0.25266061 -0.00079220  0.24530564
   0.25017280  0.74997453  0.00188601
   0.49623094  0.75236131  0.75449881
   0.00176422  0.75037694  0.24828849
   0.74842584  0.99572174  0.24948438
   0.25152726  0.49887406  0.75084018
automatically generated by mexm         
           1
     8.073608    0.009080   -0.016049
     0.009432    8.031831   -0.000164
    -0.016423    0.000017    8.073398
   Au   Pt
  12  20
Direct configuration=     8
   0.00044799  0.24883440  0.25123192
   0.25149481  0.75084194  0.49879353
   0.00003607  0.24867477  0.74929058
   0.49937502  0.50169717  0.49983714
   0.99931335  0.99963555  0.49929030
   0.75016010  0.75071799  0.50160197
   0.25071105  0.00139875  0.75097631
   0.74710067  0.24904763  0.00045452
   0.50134266  0.25112081  0.24921170
   0.74829069  0.49961773  0.74868901
   0.00195440  0.49934403  0.00032871
   0.74913260  0.74906858 -0.00015577
   0.00285086  0.74963847  0.75272641
   0.00375043  0.50001821  0.49866335
   0.25398119  0.25019036 -0.00020199
   0.49843365  0.75163246  0.24490069
   0.24952707  0.50216052  0.24859006
   0.25299089  0.25221896  0.49819870
   0.74508119  0.99927337  0.75094089
   0.75201218  0.50347349  0.25445293
   0.74827458  0.24820917  0.50051705
   0.00098525  0.99500947  0.00268369
   0.49840859  0.24815385  0.75001129
   0.49843719  0.99838073  0.00039666
   0.50334266  0.00322937  0.49949844
   0.49182200  0.50211349  0.99911435
   0.25294003 -0.00083067  0.24525525
   0.25023142  0.74987812  0.00157992
   0.49614051  0.75240485  0.75450980
   0.00180962  0.75040188  0.24837504
   0.74797531  0.99545006  0.24952379
   0.25164396  0.49898849  0.75071477
automatically generated by mexm         
           1
     8.073777    0.009057   -0.016040
     0.009410    8.032021   -0.000162
    -0.016413    0.000019    8.073745
   Au   Pt
  12  20
Direct configuration=     9
   0.00037437  0.24877384  0.25112129
   0.25145601  0.75094808  0.49883225
   0.00000997  0.24865527  0.74932845
   0.49934428  0.50174327  0.49997661
   0.99929988  0.99981748  0.49904568
   0.75019922  0.75082577  0.50179895
   0.25069330  0.00147224  0.75088243
   0.74722494  0.24901637  0.00059653
   0.50137903  0.25121109  0.24923963
   0.74837823  0.49961261  0.74877558
   0.00200775  0.49922603  0.00046585
   0.74914178  0.74895725 -0.00020930
   0.00288386  0.74958533  0.75262316
   0.00375567  0.49996812  0.49853706
   0.25405381  0.25018297 -0.00025503
   0.49836340  0.75157362  0.24491778
   0.24950925  0.50210524  0.24862100
   0.25294708  0.25228789  0.49809193
   0.74514474  0.99919534  0.75098008
   0.75195618  0.50359749  0.25458454
   0.74821843  0.24825824  0.50053659
   0.00097986  0.99485753  0.00265341
   0.49849066  0.24814758  0.75005921
   0.49846385  0.99832643  0.00035536
   0.50327762  0.00324960  0.49958881
   0.49183572  0.50219952  0.99906968
   0.25301642 -0.00077815  0.24516301
   0.25021528  0.74980473  0.00149552
   0.49608933  0.75243200  0.75451372
   0.00181859  0.75043574  0.24844261
   0.74783286  0.99534814  0.24949135
   0.25163664  0.49895734  0.75067725
automatically generated by mexm         
           1
     8.074610    0.009021   -0.015996
     0.009375    8.032619   -0.000031
    -0.016373    0.000151    8.072846
   Au   Pt
  12  20
Direct configuration=    10
   0.00038011  0.24877856  0.25112992
   0.25145903  0.75093980  0.49882923
   0.00001201  0.24865679  0.74932550
   0.49934668  0.50173968  0.49996573
   0.99930094  0.99980330  0.49906476
   0.75019617  0.75081737  0.50178359
   0.25069468  0.00146651  0.75088975
   0.74721525  0.24901881  0.00058546
   0.50137619  0.25120405  0.24923745
   0.74837140  0.49961301  0.74876883
   0.00200359  0.49923523  0.00045515
   0.74914106  0.74896593 -0.00020512
   0.00288129  0.74958947  0.75263121
   0.00375526  0.49997202  0.49854691
   0.25404815  0.25018355 -0.00025089
   0.49836888  0.75157820  0.24491645
   0.24951064  0.50210955  0.24861859
   0.25295050  0.25228252  0.49810026
   0.74513978  0.99920142  0.75097702
   0.75196054  0.50358782  0.25457428
   0.74822281  0.24825442  0.50053506
   0.00098028  0.99486938  0.00265577
   0.49848426  0.24814807  0.75005547
   0.49846177  0.99833066  0.00035858
   0.50328269  0.00324802  0.49958176
   0.49183465  0.50219281  0.99907316
   0.25301046 -0.00078225  0.24517020
   0.25021654  0.74981045  0.00150210
   0.49609332  0.75242988  0.75451342
   0.00181789  0.75043310  0.24843734
   0.74784397  0.99535609  0.24949388
   0.25163721  0.49895977  0.75068017
automatically generated by mexm         
           1
     8.076084    0.008958   -0.015918
     0.009313    8.033676    0.000201
    -0.016302    0.000384    8.071255
   Au   Pt
  12  20
Direct configuration=    11
   0.00030909  0.24872891  0.25102366
   0.25139614  0.75103590  0.49882662
  -0.00001097  0.24864522  0.74937209
   0.49931558  0.50175356  0.50008133
   0.99929065  0.99993109  0.49886992
   0.75025663  0.75090957  0.50192398
   0.25065323  0.00156228  0.75079984
   0.74733573  0.24898841  0.00071602
   0.50140863  0.25127969  0.24927006
   0.74848307  0.49957232  0.74884305
   0.00204011  0.49914515  0.00056358
   0.74918024  0.74887543 -0.00021647
   0.00291503  0.74954021  0.75253337
   0.00373732  0.49992142  0.49843053
   0.25408411  0.25016322 -0.00028035
   0.49830068  0.75153100  0.24493416
   0.24949373  0.50206562  0.24865080
   0.25292316  0.25233889  0.49800259
   0.74522856  0.99916974  0.75101888
   0.75193835  0.50366375  0.25469378
   0.74818675  0.24831042  0.50052775
   0.00096997  0.99476691  0.00265235
   0.49854670  0.24814823  0.75008178
   0.49848670  0.99829816  0.00034690
   0.50322219  0.00329267  0.49963859
   0.49185189  0.50223432  0.99905393
   0.25305860 -0.00072367  0.24507791
   0.25018089  0.74974750  0.00145251
   0.49605277  0.75245207  0.75450934
   0.00181896  0.75046326  0.24849277
   0.74774256  0.99527709  0.24945749
   0.25160093  0.49890566  0.75065228
automatically generated by mexm         
           1
     8.076817    0.008927   -0.015880
     0.009282    8.034203    0.000316
    -0.016267    0.000499    8.070464
   Au   Pt
  12  20
Direct configuration=    12
   0.00018348  0.24864107  0.25083566
   0.25128488  0.75120589  0.49882201
  -0.00005160  0.24862474  0.74945451
   0.49926056  0.50177812  0.50028585
   0.99927247  0.00015715  0.49852520
   0.75036359  0.75107267  0.50217235
   0.25057990  0.00173171  0.75064076
   0.74754883  0.24893462  0.00094701
   0.50146602  0.25141349  0.24932775
   0.74868061  0.49950035  0.74897438
   0.00210472  0.49898581  0.00075541
   0.74924953  0.74871534 -0.00023655
   0.00297472  0.74945307  0.75236026
   0.00370558  0.49983191  0.49822462
   0.25414773  0.25012725 -0.00033246
   0.49818005  0.75144749  0.24496549
   0.24946384  0.50198792  0.24870779
   0.25287481  0.25243861  0.49782978
   0.74538560  0.99911370  0.75109293
   0.75189908  0.50379806  0.25490520
   0.74812297  0.24840950  0.50051481
   0.00095172  0.99458565  0.00264629
   0.49865716  0.24814850  0.75012832
   0.49853080  0.99824068  0.00032622
   0.50311517  0.00337165  0.49973913
   0.49188238  0.50230775  0.99901990
   0.25314375 -0.00062005  0.24491460
   0.25011784  0.74963615  0.00136477
   0.49598104  0.75249131  0.75450213
   0.00182084  0.75051660  0.24859083
   0.74756318  0.99513736  0.24939312
   0.25153676  0.49880995  0.75060294
automatically generated by mexm         
           1
     8.076519    0.008940   -0.015895
     0.009295    8.033989    0.000269
    -0.016281    0.000452    8.070786
   Au   Pt
  12  20
Direct configuration=    13
   0.00012098  0.24859737  0.25074210
   0.25122953  0.75129046  0.49881971
  -0.00007182  0.24861455  0.74949553
   0.49923318  0.50179034  0.50038764
   0.99926343  0.00026962  0.49835364
   0.75041680  0.75115381  0.50229596
   0.25054342  0.00181600  0.75056159
   0.74765485  0.24890786  0.00106197
   0.50149457  0.25148005  0.24935645
   0.74877888  0.49946454  0.74903973
   0.00213686  0.49890654  0.00085088
   0.74928401  0.74863569 -0.00024654
   0.00300441  0.74940972  0.75227411
   0.00368978  0.49978738  0.49812215
   0.25417938  0.25010935 -0.00035840
   0.49812004  0.75140595  0.24498108
   0.24944896  0.50194926  0.24873615
   0.25285076  0.25248822  0.49774378
   0.74546373  0.99908582  0.75112979
   0.75187955  0.50386487  0.25501041
   0.74809123  0.24845879  0.50050837
   0.00094265  0.99449547  0.00264328
   0.49871211  0.24814864  0.75015148
   0.49855274  0.99821208  0.00031593
   0.50306193  0.00341094  0.49978916
   0.49189755  0.50234428  0.99900296
   0.25318611 -0.00056849  0.24483333
   0.25008647  0.74958075  0.00132110
   0.49594535  0.75251084  0.75449854
   0.00182177  0.75054314  0.24863964
   0.74747394  0.99506784  0.24936108
   0.25150483  0.49876233  0.75057838
automatically generated by mexm         
           1
     8.077900    0.008740   -0.015882
     0.009097    8.035629    0.000392
    -0.016268    0.000576    8.072543
   Au   Pt
  12  20
Direct configuration=    14
   0.00014637  0.24861512  0.25078012
   0.25125202  0.75125611  0.49882064
  -0.00006360  0.24861869  0.74947886
   0.49924430  0.50178538  0.50034628
   0.99926710  0.00022393  0.49842335
   0.75039518  0.75112085  0.50224574
   0.25055824  0.00178176  0.75059375
   0.74761179  0.24891873  0.00101526
   0.50148298  0.25145301  0.24934479
   0.74873896  0.49947908  0.74901318
   0.00212381  0.49893874  0.00081209
   0.74927001  0.74866805 -0.00024248
   0.00299235  0.74942733  0.75230911
   0.00369620  0.49980547  0.49816378
   0.25416652  0.25011662 -0.00034786
   0.49814442  0.75142282  0.24497475
   0.24945500  0.50196496  0.24872463
   0.25286053  0.25246807  0.49777872
   0.74543199  0.99909715  0.75111481
   0.75188748  0.50383773  0.25496767
   0.74810412  0.24843876  0.50051099
   0.00094633  0.99453210  0.00264451
   0.49868979  0.24814858  0.75014207
   0.49854383  0.99822370  0.00032011
   0.50308356  0.00339498  0.49976883
   0.49189139  0.50232944  0.99900984
   0.25316890 -0.00058944  0.24486635
   0.25009922  0.74960326  0.00133884
   0.49595985  0.75250291  0.75449999
   0.00182139  0.75053236  0.24861981
   0.74751019  0.99509608  0.24937410
   0.25151780  0.49878167  0.75058836
automatically generated by mexm         
           1
     8.077944    0.008734   -0.015882
     0.009090    8.035681    0.000396
    -0.016267    0.000580    8.072598
   Au   Pt
  12  20
Direct configuration=    15
   0.00015070  0.24860463  0.25077368
   0.25123580  0.75123079  0.49876763
  -0.00005823  0.24860290  0.74945480
   0.49925348  0.50182655  0.50037217
   0.99925159  0.00022361  0.49846086
   0.75037532  0.75111172  0.50220002
   0.25051761  0.00182103  0.75060175
   0.74753843  0.24891025  0.00099416
   0.50149723  0.25145192  0.24932301
   0.74875605  0.49943878  0.74901244
   0.00213399  0.49900188  0.00079448
   0.74929918  0.74865599 -0.00020090
   0.00303569  0.74941684  0.75231865
   0.00367730  0.49979717  0.49817535
   0.25418767  0.25009860 -0.00033411
   0.49813349  0.75142664  0.24499771
   0.24948251  0.50199193  0.24872971
   0.25285880  0.25246547  0.49777990
   0.74546160  0.99916793  0.75113659
   0.75188416  0.50384469  0.25499931
   0.74812034  0.24842918  0.50051147
   0.00096614  0.99451313  0.00263807
   0.49871814  0.24814900  0.75017188
   0.49854729  0.99823149  0.00032269
   0.50311186  0.00342866  0.49974141
   0.49188992  0.50227111  0.99902236
   0.25317908 -0.00058441  0.24481983
   0.25007385  0.74961642  0.00134743
   0.49595927  0.75251305  0.75450657
   0.00181351  0.75052367  0.24858633
   0.74747509  0.99506917  0.24938177
   0.25147113  0.49874421  0.75059397
automatically generated by mexm         
           1
     8.077315    0.008481   -0.015872
     0.008838    8.035464    0.000574
    -0.016256    0.000759    8.072399
   Au   Pt
  12  20
Direct configuration=    16
   0.00015084  0.24860430  0.25077347
   0.25123528  0.75122998  0.49876595
  -0.00005806  0.24860240  0.74945404
   0.49925377  0.50182786  0.50037299
   0.99925110  0.00022360  0.49846205
   0.75037469  0.75111143  0.50219857
   0.25051633  0.00182228  0.75060200
   0.74753610  0.24890998  0.00099349
   0.50149768  0.25145189  0.24932232
   0.74875659  0.49943750  0.74901242
   0.00213431  0.49900388  0.00079393
   0.74930010  0.74865561 -0.00019958
   0.00303707  0.74941651  0.75231895
   0.00367670  0.49979691  0.49817571
   0.25418834  0.25009802 -0.00033367
   0.49813314  0.75142676  0.24499844
   0.24948338  0.50199279  0.24872987
   0.25285875  0.25246539  0.49777994
   0.74546254  0.99917017  0.75113728
   0.75188406  0.50384491  0.25500032
   0.74812085  0.24842887  0.50051149
   0.00096677  0.99451253  0.00263786
   0.49871904  0.24814901  0.75017282
   0.49854740  0.99823173  0.00032277
   0.50311276  0.00342973  0.49974054
   0.49188987  0.50226926  0.99902275
   0.25317940 -0.00058425  0.24481836
   0.25007305  0.74961684  0.00134771
   0.49595925  0.75251337  0.75450678
   0.00181326  0.75052339  0.24858527
   0.74747398  0.99506832  0.24938201
   0.25146965  0.49874302  0.75059415
automatically generated by mexm         
           1
     8.077315    0.008481   -0.015872
     0.008838    8.035464    0.000574
    -0.016256    0.000759    8.072399
   Au   Pt
  12  20
Direct configuration=    17
   0.00015542  0.24858831  0.25075797
   0.25120953  0.75120117  0.49869755
  -0.00004959  0.24858167  0.74943023
   0.49925827  0.50187961  0.50041670
   0.99922780  0.00021372  0.49850403
   0.75035125  0.75110560  0.50215203
   0.25047558  0.00187241  0.75060957
   0.74745198  0.24890219  0.00097165
   0.50151308  0.25145809  0.24930657
   0.74877898  0.49938987  0.74901093
   0.00214923  0.49907827  0.00077139
   0.74932785  0.74863825 -0.00015110
   0.00309442  0.74940308  0.75232657
   0.00365229  0.49978451  0.49818838
   0.25421155  0.25007986 -0.00031362
   0.49811373  0.75143393  0.24501756
   0.24952012  0.50202669  0.24873408
   0.25286764  0.25246532  0.49777788
   0.74549895  0.99925555  0.75116673
   0.75188408  0.50384515  0.25504264
   0.74813934  0.24841541  0.50050567
   0.00098873  0.99449075  0.00263285
   0.49874865  0.24814889  0.75020362
   0.49855117  0.99822703  0.00032006
   0.50315165  0.00348109  0.49970939
   0.49187702  0.50220140  0.99903529
   0.25319102 -0.00057817  0.24475574
   0.25005558  0.74963401  0.00135674
   0.49595598  0.75253220  0.75452591
   0.00180324  0.75051600  0.24854470
   0.74743043  0.99503285  0.24939085
   0.25141305  0.49868927  0.75060245
