 vasp.5.4.1 05Feb16 (build Jan 29 2020 16:04:39) complex                        
  
 executed on           IFC91_ompi date 2020.06.15  05:50:24
 running on  160 total cores
 distrk:  each k-point on   20 cores,    8 groups
 distr:  one band on NCORES_PER_BAND=   5 cores,    4 groups


--------------------------------------------------------------------------------------------------------


 INCAR:
 POTCAR:    PAW_PBE Ta 17Jan2003                  
 POTCAR:    PAW_PBE Nb_sv 25May2007               
 POTCAR:    PAW_PBE Hf 20Jan2003                  
 POTCAR:    PAW_PBE Zr_sv 04Jan2005               

 ----------------------------------------------------------------------------- 
|                                                                             |
|           W    W    AA    RRRRR   N    N  II  N    N   GGGG   !!!           |
|           W    W   A  A   R    R  NN   N  II  NN   N  G    G  !!!           |
|           W    W  A    A  R    R  N N  N  II  N N  N  G       !!!           |
|           W WW W  AAAAAA  RRRRR   N  N N  II  N  N N  G  GGG   !            |
|           WW  WW  A    A  R   R   N   NN  II  N   NN  G    G                |
|           W    W  A    A  R    R  N    N  II  N    N   GGGG   !!!           |
|                                                                             |
|      For optimal performance we recommend to set                            |
|        NCORE= 4 - approx SQRT( number of cores)                             |
|      NCORE specifies how many cores store one orbital (NPAR=cpu/NCORE).     |
|      This setting can  greatly improve the performance of VASP for DFT.     |
|      The default, NPAR=number of cores might be grossly inefficient         |
|      on modern multi-core architectures or massively parallel machines.     |
|      Do your own testing !!!!                                               |
|      Unfortunately you need to use the default for GW and RPA calculations. |
|      (for HF NCORE is supported but not extensively tested yet)             |
|                                                                             |
 ----------------------------------------------------------------------------- 


 ----------------------------------------------------------------------------- 
|                                                                             |
|           W    W    AA    RRRRR   N    N  II  N    N   GGGG   !!!           |
|           W    W   A  A   R    R  NN   N  II  NN   N  G    G  !!!           |
|           W    W  A    A  R    R  N N  N  II  N N  N  G       !!!           |
|           W WW W  AAAAAA  RRRRR   N  N N  II  N  N N  G  GGG   !            |
|           WW  WW  A    A  R   R   N   NN  II  N   NN  G    G                |
|           W    W  A    A  R    R  N    N  II  N    N   GGGG   !!!           |
|                                                                             |
|      You have enabled k-point parallelism (KPAR>1).                         |
|      This developmental code was originally  written by Paul Kent at ORNL,  |
|      and carefully double checked in Vienna.                                |
|      GW as well as linear response parallelism added by Martijn Marsman     |
|      and Georg Kresse.                                                      |
|      Carefully verify results versus KPAR=1.                                |
|      Report problems to Paul Kent and Vienna.                               |
|                                                                             |
 ----------------------------------------------------------------------------- 

 POTCAR:    PAW_PBE Ta 17Jan2003                  
   VRHFIN =Ta:  6s5d                                                            
   LEXCH  = PE                                                                  
   EATOM  =   130.6506 eV,    9.6025 Ry                                         
                                                                                
   TITEL  = PAW_PBE Ta 17Jan2003                                                
   LULTRA =        F    use ultrasoft PP ?                                      
   IUNSCR =        1    unscreen: 0-lin 1-nonlin 2-no                           
   RPACOR =    2.330    partial core radius                                     
   POMASS =  180.948; ZVAL   =    5.000    mass and valenz                      
   RCORE  =    2.900    outmost cutoff radius                                   
   RWIGS  =    2.840; RWIGS  =    1.503    wigner-seitz radius (au A)           
   ENMAX  =  223.667; ENMIN  =  167.750 eV                                      
   RCLOC  =    2.205    cutoff for local pot                                    
   LCOR   =        T    correct aug charges                                     
   LPAW   =        T    paw PP                                                  
   EAUG   =  332.075                                                            
   DEXC   =    0.000                                                            
   RMAX   =    2.970    core radius for proj-oper                               
   RAUG   =    1.300    factor for augmentation sphere                          
   RDEP   =    3.060    radius for radial grids                                 
   RDEPT  =    2.354    core radius for aug-charge                              
                                                                                
   Atomic configuration                                                         
   16 entries                                                                   
     n  l   j            E        occ.                                          
     1  0  0.50    -67341.2807   2.0000                                         
     2  0  0.50    -11566.9376   2.0000                                         
     2  1  1.50    -10134.1182   6.0000                                         
     3  0  0.50     -2648.5620   2.0000                                         
     3  1  1.50     -2222.6012   6.0000                                         
     3  2  2.50     -1726.3120  10.0000                                         
     4  0  0.50      -538.6961   2.0000                                         
     4  1  1.50      -399.0129   6.0000                                         
     4  2  2.50      -220.3959  10.0000                                         
     4  3  3.50       -23.0374  14.0000                                         
     5  0  0.50       -71.2901   2.0000                                         
     5  1  1.50       -37.8225   6.0000                                         
     5  2  2.50        -2.6455   4.0000                                         
     6  0  0.50        -4.9623   1.0000                                         
     6  1  1.50        -1.3606   0.0000                                         
     5  3  2.50        -1.3606   0.0000                                         
   Description                                                                  
     l       E           TYP  RCUT    TYP  RCUT                                 
     2     -2.6455043     23  2.500                                             
     2     -0.6258895     23  2.500                                             
     0     -4.9622780     23  2.500                                             
     0      4.7531321     23  2.500                                             
     1     -1.3605826     23  2.900                                             
     1     27.2116520     23  2.900                                             
  local pseudopotential read in
  partial core-charges read in
  partial kinetic energy density read in
  atomic valenz-charges read in
  non local Contribution for L=           2  read in
    real space projection operators read in
  non local Contribution for L=           2  read in
    real space projection operators read in
  non local Contribution for L=           0  read in
    real space projection operators read in
  non local Contribution for L=           0  read in
    real space projection operators read in
  non local Contribution for L=           1  read in
    real space projection operators read in
  non local Contribution for L=           1  read in
    real space projection operators read in
    PAW grid and wavefunctions read in
 
   number of l-projection  operators is LMAX  =           6
   number of lm-projection operators is LMMAX =          18
 
 POTCAR:    PAW_PBE Nb_sv 25May2007               
   VRHFIN =Nb: 4p5s4d                                                           
   LEXCH  = PE                                                                  
   EATOM  =  1555.1913 eV,  114.3033 Ry                                         
                                                                                
   TITEL  = PAW_PBE Nb_sv 25May2007                                             
   LULTRA =        F    use ultrasoft PP ?                                      
   IUNSCR =        1    unscreen: 0-lin 1-nonlin 2-no                           
   RPACOR =    1.800    partial core radius                                     
   POMASS =   92.910; ZVAL   =   13.000    mass and valenz                      
   RCORE  =    2.400    outmost cutoff radius                                   
   RWIGS  =    2.400; RWIGS  =    1.270    wigner-seitz radius (au A)           
   ENMAX  =  293.235; ENMIN  =  219.927 eV                                      
   ICORE  =        3    local potential                                         
   LCOR   =        T    correct aug charges                                     
   LPAW   =        T    paw PP                                                  
   EAUG   =  455.659                                                            
   DEXC   =    0.000                                                            
   RMAX   =    2.456    core radius for proj-oper                               
   RAUG   =    1.300    factor for augmentation sphere                          
   RDEP   =    2.451    radius for radial grids                                 
   RDEPT  =    1.956    core radius for aug-charge                              
                                                                                
   Atomic configuration                                                         
   11 entries                                                                   
     n  l   j            E        occ.                                          
     1  0  0.50    -18805.2457   2.0000                                         
     2  0  0.50     -2630.2869   2.0000                                         
     2  1  1.50     -2348.4046   6.0000                                         
     3  0  0.50      -438.8757   2.0000                                         
     3  1  1.50      -346.7588   6.0000                                         
     3  2  2.50      -196.2560  10.0000                                         
     4  0  0.50       -58.3859   2.0000                                         
     5  0  0.50        -3.9816   1.0000                                         
     4  1  1.50       -34.5141   6.0000                                         
     4  2  2.50        -3.0408   4.0000                                         
     4  3  2.50        -1.3606   0.0000                                         
   Description                                                                  
     l       E           TYP  RCUT    TYP  RCUT                                 
     0    -58.3859094     23  2.200                                             
     0     -3.9816262     23  2.200                                             
     1    -34.5140738     23  2.200                                             
     1     13.6058260     23  2.200                                             
     2     -3.0408010     23  2.200                                             
     2     -0.1283038     23  2.200                                             
     3     -1.3605826     23  2.400                                             
  local pseudopotential read in
  partial core-charges read in
  partial kinetic energy density read in
  atomic valenz-charges read in
  non local Contribution for L=           0  read in
    real space projection operators read in
  non local Contribution for L=           0  read in
    real space projection operators read in
  non local Contribution for L=           1  read in
    real space projection operators read in
  non local Contribution for L=           1  read in
    real space projection operators read in
  non local Contribution for L=           2  read in
    real space projection operators read in
  non local Contribution for L=           2  read in
    real space projection operators read in
    PAW grid and wavefunctions read in
 
   number of l-projection  operators is LMAX  =           6
   number of lm-projection operators is LMMAX =          18
 
 POTCAR:    PAW_PBE Hf 20Jan2003                  
   VRHFIN =Hf: 6s5d                                                             
   LEXCH  = PE                                                                  
   EATOM  =    75.9011 eV,    5.5786 Ry                                         
                                                                                
   TITEL  = PAW_PBE Hf 20Jan2003                                                
   LULTRA =        F    use ultrasoft PP ?                                      
   IUNSCR =        1    unscreen: 0-lin 1-nonlin 2-no                           
   RPACOR =    2.500    partial core radius                                     
   POMASS =  178.490; ZVAL   =    4.000    mass and valenz                      
   RCORE  =    3.000    outmost cutoff radius                                   
   RWIGS  =    3.050; RWIGS  =    1.614    wigner-seitz radius (au A)           
   ENMAX  =  220.334; ENMIN  =  165.250 eV                                      
   RCLOC  =    2.212    cutoff for local pot                                    
   LCOR   =        T    correct aug charges                                     
   LPAW   =        T    paw PP                                                  
   EAUG   =  335.116                                                            
   DEXC   =    0.000                                                            
   RMAX   =    3.077    core radius for proj-oper                               
   RAUG   =    1.300    factor for augmentation sphere                          
   RDEP   =    3.047    radius for radial grids                                 
   RDEPT  =    2.344    core radius for aug-charge                              
                                                                                
   Atomic configuration                                                         
   16 entries                                                                   
     n  l   j            E        occ.                                          
     1  0  0.50    -65259.4397   2.0000                                         
     2  0  0.50    -11157.9882   2.0000                                         
     2  1  1.50     -9795.2113   6.0000                                         
     3  0  0.50     -2541.4058   2.0000                                         
     3  1  1.50     -2134.4770   6.0000                                         
     3  2  2.50     -1653.5418  10.0000                                         
     4  0  0.50      -510.9575   2.0000                                         
     4  1  1.50      -377.5023   6.0000                                         
     4  2  2.50      -205.2085  10.0000                                         
     4  3  3.50       -15.4905  14.0000                                         
     5  0  0.50       -65.6020   2.0000                                         
     5  1  1.50       -34.2798   6.0000                                         
     5  2  2.50        -1.9877   3.0000                                         
     6  0  0.50        -4.7357   1.0000                                         
     6  1  1.50        -1.3606   0.0000                                         
     5  3  2.50        -1.3606   0.0000                                         
   Description                                                                  
     l       E           TYP  RCUT    TYP  RCUT                                 
     2     -1.9876627     23  2.500                                             
     2      0.0744703     23  2.500                                             
     0     -4.7356889     23  2.600                                             
     0      3.2364747     23  2.600                                             
     1     -1.3605826     23  3.000                                             
     1     27.2116520     23  3.000                                             
  local pseudopotential read in
  partial core-charges read in
  partial kinetic energy density read in
  atomic valenz-charges read in
  non local Contribution for L=           2  read in
    real space projection operators read in
  non local Contribution for L=           2  read in
    real space projection operators read in
  non local Contribution for L=           0  read in
    real space projection operators read in
  non local Contribution for L=           0  read in
    real space projection operators read in
  non local Contribution for L=           1  read in
    real space projection operators read in
  non local Contribution for L=           1  read in
    real space projection operators read in
    PAW grid and wavefunctions read in
 
   number of l-projection  operators is LMAX  =           6
   number of lm-projection operators is LMMAX =          18
 
 POTCAR:    PAW_PBE Zr_sv 04Jan2005               
   VRHFIN =Zr: 4s4p5s4d                                                         
   LEXCH  = PE                                                                  
   EATOM  =  1284.2219 eV,   94.3876 Ry                                         
                                                                                
   TITEL  = PAW_PBE Zr_sv 04Jan2005                                             
   LULTRA =        F    use ultrasoft PP ?                                      
   IUNSCR =        1    unscreen: 0-lin 1-nonlin 2-no                           
   RPACOR =    2.200    partial core radius                                     
   POMASS =   91.224; ZVAL   =   12.000    mass and valenz                      
   RCORE  =    2.500    outmost cutoff radius                                   
   RWIGS  =    3.070; RWIGS  =    1.625    wigner-seitz radius (au A)           
   ENMAX  =  229.898; ENMIN  =  172.424 eV                                      
   ICORE  =        3    local potential                                         
   LCOR   =        T    correct aug charges                                     
   LPAW   =        T    paw PP                                                  
   EAUG   =  461.257                                                            
   DEXC   =    0.000                                                            
   RMAX   =    2.561    core radius for proj-oper                               
   RAUG   =    1.300    factor for augmentation sphere                          
   RDEP   =    2.597    radius for radial grids                                 
   RDEPT  =    2.007    core radius for aug-charge                              
                                                                                
   Atomic configuration                                                         
   11 entries                                                                   
     n  l   j            E        occ.                                          
     1  0  0.50    -17820.0161   2.0000                                         
     2  0  0.50     -2467.0882   2.0000                                         
     2  1  1.50     -2199.6095   6.0000                                         
     3  0  0.50      -402.4863   2.0000                                         
     3  1  1.50      -315.3675   6.0000                                         
     3  2  2.50      -172.4472  10.0000                                         
     4  0  0.50       -52.4146   2.0000                                         
     5  0  0.50        -3.8421   1.0000                                         
     4  1  1.50       -30.5054   6.0000                                         
     4  2  2.50        -2.3341   3.0000                                         
     4  3  2.50        -1.3606   0.0000                                         
   Description                                                                  
     l       E           TYP  RCUT    TYP  RCUT                                 
     0    -52.4145962     23  2.200                                             
     0     -3.8421270     23  2.500                                             
     1    -30.5053914     23  2.200                                             
     1     20.4087390     23  2.200                                             
     2     -2.3340816     23  2.500                                             
     2     -0.6120942     23  2.500                                             
     3     -4.0817478     23  2.500                                             
  local pseudopotential read in
  partial core-charges read in
  partial kinetic energy density read in
  atomic valenz-charges read in
  non local Contribution for L=           0  read in
    real space projection operators read in
  non local Contribution for L=           0  read in
    real space projection operators read in
  non local Contribution for L=           1  read in
    real space projection operators read in
  non local Contribution for L=           1  read in
    real space projection operators read in
  non local Contribution for L=           2  read in
    real space projection operators read in
  non local Contribution for L=           2  read in
    real space projection operators read in
    PAW grid and wavefunctions read in
 
   number of l-projection  operators is LMAX  =           6
   number of lm-projection operators is LMMAX =          18
 
 Optimization of the real space projectors (new method)

 maximal supplied QI-value         = 12.85
 optimisation between [QCUT,QGAM] = [  8.87, 17.73] = [ 22.01, 88.06] Ry 
 Optimized for a Real-space Cutoff    1.90 Angstroem

   l    n(q)    QCUT    max X(q) W(low)/X(q) W(high)/X(q)  e(spline) 
   2      9     8.867    62.315    0.23E-03    0.62E-04    0.11E-05
   2      9     8.867    52.185    0.23E-03    0.62E-04    0.11E-05
   0     10     8.867   103.837    0.15E-04    0.23E-04    0.98E-07
   0     10     8.867    59.728    0.12E-04    0.21E-04    0.89E-07
   1     10     8.867    13.958    0.50E-04    0.22E-04    0.14E-06
   1     10     8.867     8.441    0.36E-04    0.19E-04    0.98E-07
 Optimization of the real space projectors (new method)

 maximal supplied QI-value         = 15.68
 optimisation between [QCUT,QGAM] = [  8.78, 17.72] = [ 21.60, 87.97] Ry 
 Optimized for a Real-space Cutoff    1.96 Angstroem

   l    n(q)    QCUT    max X(q) W(low)/X(q) W(high)/X(q)  e(spline) 
   0     10     8.783    10.201    0.29E-04    0.25E-05    0.69E-07
   0     10     8.783     8.174    0.45E-04    0.57E-05    0.14E-06
   1     10     8.783     3.488    0.76E-05    0.24E-04    0.95E-07
   1     10     8.783     4.917    0.78E-04    0.14E-03    0.46E-06
   2      9     8.783   153.744    0.22E-03    0.34E-04    0.15E-05
   2      9     8.783   126.342    0.22E-03    0.35E-04    0.15E-05
 Optimization of the real space projectors (new method)

 maximal supplied QI-value         = 12.47
 optimisation between [QCUT,QGAM] = [  8.86, 17.71] = [ 21.96, 87.83] Ry 
 Optimized for a Real-space Cutoff    1.90 Angstroem

   l    n(q)    QCUT    max X(q) W(low)/X(q) W(high)/X(q)  e(spline) 
   2      9     8.855    48.111    0.22E-03    0.80E-04    0.10E-05
   2      9     8.855    40.545    0.21E-03    0.76E-04    0.95E-06
   0     10     8.855   121.658    0.27E-04    0.12E-04    0.11E-06
   0     10     8.855    71.177    0.22E-04    0.11E-04    0.99E-07
   1     10     8.855    14.183    0.65E-04    0.10E-03    0.98E-07
   1     10     8.855     8.257    0.43E-04    0.73E-04    0.72E-07
 Optimization of the real space projectors (new method)

 maximal supplied QI-value         = 15.12
 optimisation between [QCUT,QGAM] = [  8.77, 17.69] = [ 21.53, 87.61] Ry 
 Optimized for a Real-space Cutoff    1.74 Angstroem

   l    n(q)    QCUT    max X(q) W(low)/X(q) W(high)/X(q)  e(spline) 
   0      9     8.768    12.107    0.28E-04    0.53E-06    0.29E-07
   0      9     8.768     9.948    0.36E-04    0.50E-05    0.64E-07
   1      9     8.768     3.563    0.14E-04    0.16E-04    0.88E-07
   1      9     8.768     4.524    0.21E-03    0.33E-03    0.19E-06
   2      8     8.768    87.261    0.19E-03    0.25E-03    0.24E-06
   2      8     8.768    70.950    0.19E-03    0.24E-03    0.24E-06
  PAW_PBE Ta 17Jan2003                  :
 energy of atom  1       EATOM= -130.6506
 kinetic energy error for atom=    0.0121 (will be added to EATOM!!)
  PAW_PBE Nb_sv 25May2007               :
 energy of atom  2       EATOM=-1555.1913
 kinetic energy error for atom=    0.0655 (will be added to EATOM!!)
  PAW_PBE Hf 20Jan2003                  :
 energy of atom  3       EATOM=  -75.9011
 kinetic energy error for atom=    0.0071 (will be added to EATOM!!)
  PAW_PBE Zr_sv 04Jan2005               :
 energy of atom  4       EATOM=-1284.2219
 kinetic energy error for atom=    0.0483 (will be added to EATOM!!)
 
 
 POSCAR: generated by pypospack                  
  positions in direct lattice
  No initial velocities read in
 exchange correlation table for  LEXCH =        8
   RHO(1)=    0.500       N(1)  =     2000
   RHO(2)=  100.500       N(2)  =     4000
 


--------------------------------------------------------------------------------------------------------


 ion  position               nearest neighbor table
   1  0.243  0.170  0.511-   2 2.77   3 2.81   7 2.84  27 2.89  36 2.91  16 2.92  28 2.98  34 3.07
                            19 3.20   9 3.37  26 3.37   5 3.46  26 3.54
   2  0.036  0.331  0.343-   1 2.77   9 2.83  14 2.88  27 2.95  26 2.96  29 3.00  24 3.01  30 3.03
                            35 3.15   3 3.34  28 3.45  25 3.57  32 3.70
   3  0.013  0.332  0.671-   1 2.81   9 2.89  19 2.92  17 2.96   4 2.98  26 2.98  30 3.03  23 3.05
                            32 3.14   7 3.26   2 3.34  36 3.41  33 3.45
   4  0.265  0.502  0.834-  20 2.80   7 2.85   8 2.91  32 2.93   3 2.98  12 3.00  33 3.01  15 3.12
                            23 3.24  24 3.24   9 3.31  21 3.34  23 3.67
   5  0.284  0.832  0.511-  20 2.78  10 2.81  16 2.88  34 2.94  25 2.98  22 2.99  33 3.00  36 3.04
                            28 3.05  21 3.34   9 3.39   1 3.46
   6  0.264  0.823  0.152-  12 2.74  10 2.84  15 2.85  11 2.92  25 2.92  34 2.93  31 3.02  28 3.06
                            21 3.18  24 3.22  18 3.31
   7  0.484  0.332  0.668-  19 2.82   1 2.84   4 2.85   9 2.86  17 2.87  23 2.97  26 3.00  30 3.00
                             3 3.26  16 3.29   8 3.29  20 3.32  27 3.39
   8  0.488  0.318  0.991-  19 2.80  14 2.83  17 2.83   4 2.91  23 2.97  29 3.00  24 3.03  35 3.17
                            11 3.21   7 3.29  32 3.29  27 3.50  32 3.62
   9  0.249  0.500  0.509-   2 2.83  20 2.83  27 2.85   7 2.86   3 2.89  33 2.91  10 2.96  25 2.99
                             4 3.31   1 3.37   5 3.39  30 3.45  30 3.46  24 3.62
  10  0.480  0.669  0.331-   5 2.81   6 2.84  24 2.94  22 2.94   9 2.96  18 2.96  35 3.04  30 3.08
                            25 3.19  12 3.33  34 3.39  27 3.41  25 3.73
  11  0.508  0.004  0.002-  13 2.90   6 2.92  18 2.92  14 2.93  17 2.94  19 2.94  21 2.95  29 3.07
                             8 3.21  34 3.24  31 3.35  31 3.56
  12  0.513  0.674  0.005-   6 2.74  13 2.76  18 2.78  21 2.87  23 2.91  24 2.92  35 2.95   4 3.00
                            10 3.33
  13  0.735  0.827  0.839-  12 2.76  15 2.86  11 2.90  31 2.97  16 2.99  20 2.99  33 3.00  36 3.06
                            21 3.23  23 3.35  22 3.43
  14  0.247  0.169  0.159-   8 2.83  27 2.88   2 2.88  34 2.89  32 2.91  11 2.93  31 2.98  28 2.99
                            29 3.39  24 3.46
  15  0.989  0.678  0.003-  18 2.82   6 2.85  13 2.86  24 2.92  35 2.97  21 2.98  23 3.07   4 3.12
                            31 3.26  33 3.41  25 3.41
  16  0.498  0.010  0.674-  19 2.70  17 2.77   5 2.88  22 2.92   1 2.92  21 2.95  13 2.99  26 3.03
                             7 3.29  36 3.46  36 3.46
  17  0.735  0.170  0.824-  16 2.77   8 2.83   7 2.87  11 2.94  32 2.95   3 2.96  36 2.98  31 3.07
                            26 3.31  23 3.36
  18  0.742  0.829  0.165-  12 2.78  15 2.82  11 2.92  34 2.95  10 2.96  31 2.97  25 3.01  28 3.08
                             6 3.31  35 3.37  22 3.44
  19  0.264  0.160  0.825-  16 2.70   8 2.80   7 2.82  32 2.87   3 2.92  11 2.94  36 2.95  31 3.06
                             1 3.20  21 3.37
  20  0.492  0.657  0.667-   5 2.78   4 2.80   9 2.83  23 2.88  22 2.91  21 2.92  30 2.97  13 2.99
                             7 3.32  33 3.38
  21  0.268  0.830  0.839-  12 2.87  20 2.92  11 2.95  16 2.95  15 2.98  33 3.02  31 3.02  36 3.07
                             6 3.18  13 3.23   5 3.34   4 3.34  19 3.37
  22  0.717  0.834  0.503-  20 2.91  16 2.92  10 2.94  34 2.99   5 2.99  36 3.08  33 3.09  25 3.09
                            28 3.13  13 3.43  18 3.44  30 3.47  26 3.48
  23  0.734  0.499  0.834-  20 2.88  12 2.91   7 2.97   8 2.97  32 3.02   3 3.05  33 3.05  15 3.07
                             4 3.24  13 3.35  17 3.36  35 3.40  30 3.42   4 3.67
  24  0.247  0.508  0.153-  15 2.92  12 2.92  10 2.94  27 2.97   2 3.01  25 3.01   8 3.03  32 3.05
                             6 3.22   4 3.24  35 3.42  14 3.46  35 3.50   9 3.62
  25  0.019  0.681  0.338-   6 2.92   5 2.98   9 2.99  18 3.01  24 3.01  22 3.09  30 3.12  35 3.15
                            28 3.18  10 3.19  33 3.35  15 3.41   2 3.57  10 3.73
  26  0.756  0.174  0.498-   2 2.96   3 2.98   7 3.00  36 3.01  16 3.03  28 3.06  27 3.09  34 3.16
                            30 3.26  29 3.27  17 3.31   1 3.37  22 3.48   1 3.54
  27  0.463  0.334  0.335-   9 2.85  14 2.88   1 2.89   2 2.95  24 2.97  29 3.02  30 3.05  26 3.09
                            35 3.10   7 3.39  34 3.41  10 3.41   8 3.50
  28  0.017  0.993  0.336-   1 2.98  14 2.99   5 3.05   6 3.06  26 3.06  18 3.08  29 3.08  22 3.13
                            25 3.18  34 3.23  36 3.38  31 3.44   2 3.45  34 3.69
  29  0.757  0.181  0.177-   2 3.00   8 3.00  34 3.01  27 3.02  32 3.03  31 3.06  11 3.07  28 3.08
                            35 3.24  26 3.27  14 3.39
  30  0.748  0.494  0.498-  20 2.97   7 3.00   2 3.03   3 3.03  33 3.05  27 3.05  10 3.08  25 3.12
                            26 3.26  35 3.35  23 3.42   9 3.45   9 3.46  22 3.47
  31  0.992  0.998  0.998-  18 2.97  13 2.97  14 2.98   6 3.02  21 3.02  19 3.06  29 3.06  17 3.07
                            15 3.26  32 3.33  11 3.35  36 3.36  28 3.44  11 3.56
  32  0.012  0.324  0.980-  19 2.87  14 2.91   4 2.93  17 2.95  23 3.02  29 3.03  24 3.05   3 3.14
                            35 3.16   8 3.29  31 3.33   8 3.62   2 3.70
  33  0.003  0.670  0.668-   9 2.91  13 3.00   5 3.00   4 3.01  21 3.02  23 3.05  30 3.05  22 3.09
                            36 3.34  25 3.35  20 3.38  15 3.41   3 3.45
  34  0.484  0.001  0.321-  14 2.89   6 2.93   5 2.94  18 2.95  22 2.99  29 3.01   1 3.07  26 3.16
                            28 3.23  11 3.24  10 3.39  27 3.41  28 3.69
  35  0.752  0.498  0.168-  12 2.95  15 2.97  10 3.04  27 3.10  25 3.15   2 3.15  32 3.16   8 3.17
                            29 3.24  30 3.35  18 3.37  23 3.40  24 3.42  24 3.50
  36  0.999  0.998  0.668-   1 2.91  19 2.95  17 2.98  26 3.01   5 3.04  13 3.06  21 3.07  22 3.08
                            33 3.34  31 3.36  28 3.38   3 3.41  16 3.46  16 3.46
 
  LATTYP: Found a triclinic cell.
 ALAT       =    10.1677699157
 B/A-ratio  =     1.4159978754
 C/A-ratio  =     1.5721267424
 COS(alpha) =     0.0000567931
 COS(beta)  =     0.6384890846
 COS(gamma) =     0.7061425265
  
  Lattice vectors:
  
 A1 = (  -0.0277100620,   0.0006983634, -10.1677321327)
 A2 = (  -0.0405749135, -10.1937561460, -10.1673430445)
 A3 = (  -6.9270815295,  10.1866178744, -10.1867226289)


Analysis of symmetry for initial positions (statically):
=====================================================================
 Subroutine PRICEL returns:
 Original cell was already a primitive cell.
 

 Routine SETGRP: Setting up the symmetry group for a 
 triclinic supercell.


 Subroutine GETGRP returns: Found  1 space group operations
 (whereof  1 operations were pure point group operations)
 out of a pool of  2 trial point group operations.


The static configuration has the point symmetry C_1 .


Analysis of symmetry for dynamics (positions and initial velocities):
=====================================================================
 Subroutine PRICEL returns:
 Original cell was already a primitive cell.
 

 Routine SETGRP: Setting up the symmetry group for a 
 triclinic supercell.


 Subroutine GETGRP returns: Found  1 space group operations
 (whereof  1 operations were pure point group operations)
 out of a pool of  2 trial point group operations.


The dynamic configuration has the point symmetry C_1 .


 Subroutine INISYM returns: Found  1 space group operations
 (whereof  1 operations are pure point group operations),
 and found     1 'primitive' translations

 
 
 KPOINTS: k-points                                

Automatic generation of k-mesh.
Space group operators:
 irot       det(A)        alpha          n_x          n_y          n_z        tau_x        tau_y        tau_z
    1     1.000000     0.000000     1.000000     0.000000     0.000000     0.000000     0.000000     0.000000
 
 Subroutine IBZKPT returns following result:
 ===========================================
 
 Found     14 irreducible k-points:
 
 Following reciprocal coordinates:
            Coordinates               Weight
  0.000000  0.000000  0.000000      1.000000
  0.333333  0.000000  0.000000      2.000000
 -0.000000  0.333333 -0.000000      2.000000
  0.333333  0.333333 -0.000000      2.000000
 -0.333333  0.333333  0.000000      2.000000
 -0.000000 -0.000000  0.333333      2.000000
  0.333333 -0.000000  0.333333      2.000000
 -0.333333  0.000000  0.333333      2.000000
 -0.000000  0.333333  0.333333      2.000000
  0.333333  0.333333  0.333333      2.000000
 -0.333333  0.333333  0.333333      2.000000
 -0.000000 -0.333333  0.333333      2.000000
  0.333333 -0.333333  0.333333      2.000000
 -0.333333 -0.333333  0.333333      2.000000
 
 Following cartesian coordinates:
            Coordinates               Weight
  0.000000  0.000000  0.000000      1.000000
  0.240557 -0.000304 -0.000656      2.000000
 -0.000201  0.163106  0.000012      2.000000
  0.240355  0.162802 -0.000644      2.000000
 -0.240758  0.163409  0.000667      2.000000
 -0.000440  0.000007  0.163535      2.000000
  0.240117 -0.000297  0.162880      2.000000
 -0.240997  0.000310  0.164191      2.000000
 -0.000642  0.163112  0.163547      2.000000
  0.239915  0.162809  0.162891      2.000000
 -0.241198  0.163416  0.164203      2.000000
 -0.000239 -0.163099  0.163523      2.000000
  0.240318 -0.163402  0.162868      2.000000
 -0.240795 -0.162795  0.164179      2.000000
 


--------------------------------------------------------------------------------------------------------




 Dimension of arrays:
   k-points           NKPTS =     14   k-points in BZ     NKDIM =     14   number of bands    NBANDS=    176
   number of dos      NEDOS =    301   number of ions     NIONS =     36
   non local maximal  LDIM  =      6   non local SUM 2l+1 LMDIM =     18
   total plane-waves  NPLWV = 144000
   max r-space proj   IRMAX =   6394   max aug-charges    IRDMAX=  13879
   dimension x,y,z NGX =    40 NGY =   60 NGZ =   60
   dimension x,y,z NGXF=    80 NGYF=  120 NGZF=  120
   support grid    NGXF=    80 NGYF=  120 NGZF=  120
   ions per type =              11   9   9   7
 NGX,Y,Z   is equivalent  to a cutoff of   9.62,  9.78,  9.81 a.u.
 NGXF,Y,Z  is equivalent  to a cutoff of  19.24, 19.57, 19.62 a.u.


 I would recommend the setting:
   dimension x,y,z NGX =    39 NGY =   58 NGZ =   57
 SYSTEM =  automatically generated by mexm         
 POSCAR =  generated by pypospack                  

 Startparameter for this run:
   NWRITE =      2    write-flag & timer
   PREC   = accura    normal or accurate (medium, high low for compatibility)
   ISTART =      0    job   : 0-new  1-cont  2-samecut
   ICHARG =      2    charge: 1-file 2-atom 10-const
   ISPIN  =      1    spin polarized calculation?
   LNONCOLLINEAR =      F non collinear calculations
   LSORBIT =      F    spin-orbit coupling
   INIWAV =      1    electr: 0-lowe 1-rand  2-diag
   LASPH  =      F    aspherical Exc in radial PAW
   METAGGA=      F    non-selfconsistent MetaGGA calc.

 Electronic Relaxation 1
   ENCUT  =  300.0 eV  22.05 Ry    4.70 a.u.   9.76 14.40 14.36*2*pi/ulx,y,z
   ENINI  =  300.0     initial cutoff
   ENAUG  =  461.3 eV  augmentation charge cutoff
   NELM   =     70;   NELMIN=  2; NELMDL= -5     # of ELM steps 
   EDIFF  = 0.1E-04   stopping-criterion for ELM
   LREAL  =      T    real-space projection
   NLSPLINE    = F    spline interpolate recip. space projectors
   LCOMPAT=      F    compatible to vasp.4.4
   GGA_COMPAT  = T    GGA compatible to vasp.4.4-vasp.4.6
   LMAXPAW     = -100 max onsite density
   LMAXMIX     =    2 max onsite mixed and CHGCAR
   VOSKOWN=      0    Vosko Wilk Nusair interpolation
   ROPT   =   -0.00025  -0.00025  -0.00025  -0.00025
 Ionic relaxation
   EDIFFG = -.1E-01   stopping-criterion for IOM
   NSW    =    300    number of steps for IOM
   NBLOCK =      1;   KBLOCK =    300    inner block; outer block 
   IBRION =      2    ionic relax: 0-MD 1-quasi-New 2-CG
   NFREE  =      1    steps in history (QN), initial steepest desc. (CG)
   ISIF   =      3    stress and relaxation
   IWAVPR =     11    prediction:  0-non 1-charg 2-wave 3-comb
   ISYM   =      1    0-nonsym 1-usesym 2-fastsym
   LCORR  =      T    Harris-Foulkes like correction to forces

   POTIM  = 0.1500    time-step for ionic-motion
   TEIN   =    0.0    initial temperature
   TEBEG  =    0.0;   TEEND  =   0.0 temperature during run
   SMASS  =  -3.00    Nose mass-parameter (am)
   estimated Nose-frequenzy (Omega)   =  0.10E-29 period in steps =****** mass=  -0.109E-26a.u.
   SCALEE = 1.0000    scale energy and forces
   NPACO  =    256;   APACO  = 16.0  distance and # of slots for P.C.
   PSTRESS=    0.0 pullay stress

  Mass of Ions in am
   POMASS = 180.95 92.91178.49 91.22
  Ionic Valenz
   ZVAL   =   5.00 13.00  4.00 12.00
  Atomic Wigner-Seitz radii
   RWIGS  =  -1.00 -1.00 -1.00 -1.00
  virtual crystal weights 
   VCA    =   1.00  1.00  1.00  1.00
   NELECT =     292.0000    total number of electrons
   NUPDOWN=      -1.0000    fix difference up-down

 DOS related values:
   EMIN   =  10.00;   EMAX   =-10.00  energy-range for DOS
   EFERMI =   0.00
   ISMEAR =     1;   SIGMA  =   0.15  broadening in eV -4-tet -1-fermi 0-gaus

 Electronic relaxation 2 (details)
   IALGO  =     68    algorithm
   LDIAG  =      T    sub-space diagonalisation (order eigenvalues)
   LSUBROT=      F    optimize rotation matrix (better conditioning)
   TURBO    =      0    0=normal 1=particle mesh
   IRESTART =      0    0=no restart 2=restart with 2 vectors
   NREBOOT  =      0    no. of reboots
   NMIN     =      0    reboot dimension
   EREF     =   0.00    reference energy to select bands
   IMIX   =      4    mixing-type and parameters
     AMIX     =   0.40;   BMIX     =  1.00
     AMIX_MAG =   1.60;   BMIX_MAG =  1.00
     AMIN     =   0.10
     WC   =   100.;   INIMIX=   1;  MIXPRE=   1;  MAXMIX= -45

 Intra band minimization:
   WEIMIN = 0.0010     energy-eigenvalue tresh-hold
   EBREAK =  0.14E-07  absolut break condition
   DEPER  =   0.30     relativ break condition  

   TIME   =   0.40     timestep for ELM

  volume/ion in A,a.u.               =      19.90       134.31
  Fermi-wavevector in a.u.,A,eV,Ry     =   1.213766  2.293685 20.044471  1.473227
  Thomas-Fermi vector in A             =   2.349207
 
 Write flags
   LWAVE  =      F    write WAVECAR
   LCHARG =      F    write CHGCAR
   LVTOT  =      F    write LOCPOT, total local potential
   LVHAR  =      F    write LOCPOT, Hartree potential only
   LELF   =      F    write electronic localiz. function (ELF)
   LORBIT =      0    0 simple, 1 ext, 2 COOP (PROOUT)


 Dipole corrections
   LMONO  =      F    monopole corrections only (constant potential shift)
   LDIPOL =      F    correct potential (dipole corrections)
   IDIPOL =      0    1-x, 2-y, 3-z, 4-all directions 
   EPSILON=  1.0000000 bulk dielectric constant

 Exchange correlation treatment:
   GGA     =    --    GGA type
   LEXCH   =     8    internal setting for exchange type
   VOSKOWN=      0    Vosko Wilk Nusair interpolation
   LHFCALC =     F    Hartree Fock is set to
   LHFONE  =     F    Hartree Fock one center treatment
   AEXX    =    0.0000 exact exchange contribution

 Linear response parameters
   LEPSILON=     F    determine dielectric tensor
   LRPA    =     F    only Hartree local field effects (RPA)
   LNABLA  =     F    use nabla operator in PAW spheres
   LVEL    =     F    velocity operator in full k-point grid
   LINTERFAST=   F  fast interpolation
   KINTER  =     0    interpolate to denser k-point grid
   CSHIFT  =0.1000    complex shift for real part using Kramers Kronig
   OMEGAMAX=  -1.0    maximum frequency
   DEG_THRESHOLD= 0.2000000E-02 threshold for treating states as degnerate
   RTIME   =    0.100 relaxation time in fs

 Orbital magnetization related:
   ORBITALMAG=     F  switch on orbital magnetization
   LCHIMAG   =     F  perturbation theory with respect to B field
   DQ        =  0.001000  dq finite difference perturbation B field



--------------------------------------------------------------------------------------------------------


 conjugate gradient relaxation of ions
 charge density and potential will be updated during run
 non-spin polarized calculation
 RMM-DIIS sequential band-by-band and
  variant of blocked Davidson during initial phase
 perform sub-space diagonalisation
    before iterative eigenvector-optimisation
 modified Broyden-mixing scheme, WC =      100.0
 initial mixing is a Kerker type mixing with AMIX =  0.4000 and BMIX =      1.0000
 Hartree-type preconditioning will be used
 using additional bands           30
 real space projection scheme for non local part
 use partial core corrections
 calculate Harris-corrections to forces 
   (improved forces if not selfconsistent)
 use gradient corrections 
 use of overlap-Matrix (Vanderbilt PP)
 Methfessel and Paxton  Order N= 1 SIGMA  =   0.15


--------------------------------------------------------------------------------------------------------


  energy-cutoff  :      300.00
  volume of cell :      716.48
      direct lattice vectors                 reciprocal lattice vectors
     6.912236319  0.008534998  0.018601408     0.144672266 -0.000182584 -0.000394287
     0.012864851 10.194454509 -0.000389088    -0.000121141  0.098092699  0.000007068
     0.027710062 -0.000698363 10.167732133    -0.000264676  0.000004088  0.098351070

  length of vectors
     6.912266617 10.194462634 10.167769916     0.144672919  0.098092774  0.098351426


 
 k-points in units of 2pi/SCALE and weight: k-points                                
   0.00000000  0.00000000  0.00000000       0.037
   0.24055670 -0.00030359 -0.00065561       0.074
  -0.00020143  0.16310560  0.00001175       0.074
   0.24035528  0.16280200 -0.00064386       0.074
  -0.24075813  0.16340919  0.00066736       0.074
  -0.00044010  0.00000680  0.16353521       0.074
   0.24011661 -0.00029680  0.16287960       0.074
  -0.24099680  0.00031039  0.16419082       0.074
  -0.00064152  0.16311239  0.16354696       0.074
   0.23991518  0.16280880  0.16289135       0.074
  -0.24119823  0.16341599  0.16420257       0.074
  -0.00023867 -0.16309880  0.16352346       0.074
   0.24031804 -0.16340240  0.16286785       0.074
  -0.24079537 -0.16279521  0.16417907       0.074
 
 k-points in reciprocal lattice and weights: k-points                                
   0.00000000  0.00000000  0.00000000       0.037
   0.33333333  0.00000000  0.00000000       0.074
  -0.00000000  0.33333333 -0.00000000       0.074
   0.33333333  0.33333333 -0.00000000       0.074
  -0.33333333  0.33333333  0.00000000       0.074
  -0.00000000 -0.00000000  0.33333333       0.074
   0.33333333 -0.00000000  0.33333333       0.074
  -0.33333333  0.00000000  0.33333333       0.074
  -0.00000000  0.33333333  0.33333333       0.074
   0.33333333  0.33333333  0.33333333       0.074
  -0.33333333  0.33333333  0.33333333       0.074
  -0.00000000 -0.33333333  0.33333333       0.074
   0.33333333 -0.33333333  0.33333333       0.074
  -0.33333333 -0.33333333  0.33333333       0.074
 
 position of ions in fractional coordinates (direct lattice) 
   0.24337600  0.16951200  0.51105300
   0.03643400  0.33101500  0.34324600
   0.01250900  0.33184000  0.67143400
   0.26523500  0.50225600  0.83417800
   0.28414300  0.83150700  0.51120100
   0.26370500  0.82344300  0.15162100
   0.48432100  0.33182200  0.66756600
   0.48786400  0.31762500  0.99114800
   0.24913200  0.49975000  0.50867800
   0.47979100  0.66861400  0.33106500
   0.50767200  0.00359000  0.00245600
   0.51274000  0.67367000  0.00457600
   0.73539200  0.82731800  0.83920900
   0.24725800  0.16858000  0.15933100
   0.98933200  0.67796500  0.00314100
   0.49849800  0.00970100  0.67443400
   0.73495100  0.17007300  0.82373000
   0.74206900  0.82903900  0.16513300
   0.26417000  0.16006000  0.82522500
   0.49193200  0.65713900  0.66680100
   0.26811300  0.82967800  0.83909800
   0.71723700  0.83382200  0.50267900
   0.73398600  0.49900900  0.83422600
   0.24656600  0.50760300  0.15299400
   0.01934300  0.68079200  0.33826000
   0.75583100  0.17446800  0.49817400
   0.46343400  0.33442700  0.33491900
   0.01738900  0.99320000  0.33583500
   0.75748500  0.18073600  0.17675800
   0.74829200  0.49408800  0.49815400
   0.99211600  0.99757600  0.99829300
   0.01170400  0.32365200  0.98016200
   0.00260200  0.66974600  0.66787700
   0.48439700  0.00058100  0.32081600
   0.75233200  0.49826300  0.16836300
   0.99863700  0.99785500  0.66816300
 
 position of ions in cartesian coordinates  (Angst):
   1.69861448  1.72980269  5.20071119
   0.26561024  3.37458861  3.49058231
   0.10933971  3.38256564  6.82706463
   1.86294357  5.12190716  8.48643678
   1.98892619  8.47882844  5.20271676
   1.83758618  8.39669704  1.54622661
   3.37050834  3.38641176  6.79651221
   3.40378223  3.24148535 10.08667874
   1.74258397  5.09644974  5.17654140
   3.33420423  6.82001882  3.37484488
   3.50926308  0.04092936  0.03441397
   3.55297352  6.87207121  0.05580311
   5.11710115  8.43974621  8.54620974
   1.71568956  1.72058022  1.62456868
   6.84730554  6.91992510  0.05007603
   3.46454939  0.10268008  6.86673324
   5.10516857  1.73949900  8.38907094
   5.14459760  8.45781861  1.69250907
   1.85093165  1.63340277  8.39551841
   3.42728133  6.70290661  6.78874890
   1.88718556  8.45981698  8.53638816
   4.98236790  8.50613101  5.12412261
   5.10302082  5.09280653  8.49564552
   1.71509217  5.17673329  1.55999098
   0.15183488  6.94023194  3.43943199
   5.24053143  1.78470920  5.07929142
   3.21694831  3.41302235  3.41385708
   0.14228026 10.12504610  3.41461734
   5.24313845  1.84884662  1.81124796
   5.19253139  5.04299642  5.07882347
   6.89823668 10.17751369 10.16844242
   0.11222490  3.29887098  9.96611644
   0.04510873  6.82725092  6.79058224
   3.35716384  0.00983326  3.27098139
   5.21137200  5.08582306  1.72567045
   6.93416704 10.18064415  6.81189021
 


--------------------------------------------------------------------------------------------------------


 k-point  1 :   0.0000 0.0000 0.0000  plane waves:    8503
 k-point  2 :   0.3333 0.0000 0.0000  plane waves:    8454
 k-point  3 :  -0.0000 0.3333-0.0000  plane waves:    8449
 k-point  4 :   0.3333 0.3333-0.0000  plane waves:    8449
 k-point  5 :  -0.3333 0.3333 0.0000  plane waves:    8457
 k-point  6 :  -0.0000-0.0000 0.3333  plane waves:    8455
 k-point  7 :   0.3333-0.0000 0.3333  plane waves:    8444
 k-point  8 :  -0.3333 0.0000 0.3333  plane waves:    8449
 k-point  9 :  -0.0000 0.3333 0.3333  plane waves:    8441
 k-point 10 :   0.3333 0.3333 0.3333  plane waves:    8454
 k-point 11 :  -0.3333 0.3333 0.3333  plane waves:    8455
 k-point 12 :  -0.0000-0.3333 0.3333  plane waves:    8441
 k-point 13 :   0.3333-0.3333 0.3333  plane waves:    8455
 k-point 14 :  -0.3333-0.3333 0.3333  plane waves:    8451

 maximum and minimum number of plane-waves per node :      1714     1669

 maximum number of plane-waves:      8503
 maximum index in each direction: 
   IXMAX=   10   IYMAX=   14   IZMAX=   14
   IXMIN=  -10   IYMIN=  -14   IZMIN=  -14

 WARNING: aliasing errors must be expected set NGX to  42 to avoid them
 NGY is ok and might be reduce to  58
 NGZ is ok and might be reduce to  58
 aliasing errors are usually negligible using standard VASP settings
 and one can safely disregard these warnings

 real space projection operators:
  total allocation   :      27875.95 KBytes
  max/ min on nodes  :       5616.56       5526.56


 parallel 3D FFT for wavefunctions:
    minimum data exchange during FFTs selected (reduces bandwidth)
 parallel 3D FFT for charge:
    minimum data exchange during FFTs selected (reduces bandwidth)


 total amount of memory used by VASP on root node    67288. kBytes
========================================================================

   base      :      30000. kBytes
   nonlr-proj:      10698. kBytes
   fftplans  :       2814. kBytes
   grid      :       5360. kBytes
   one-center:        124. kBytes
   wavefun   :      18292. kBytes
 
     INWAV:  cpu time    0.0000: real time    0.0000
 Broyden mixing: mesh for mixing (old mesh)
   NGX = 19   NGY = 29   NGZ = 29
  (NGX  = 80   NGY  =120   NGZ  =120)
  gives a total of  15979 points

 initial charge density was supplied:
 charge density of overlapping atoms calculated
 number of electron     292.0000000 magnetization 
 keeping initial charge density in first step


--------------------------------------------------------------------------------------------------------


 Maximum index for non-local projection operator         1241
 Maximum index for augmentation-charges          688 (set IRDMAX)


--------------------------------------------------------------------------------------------------------


 First call to EWALD:  gamma=   0.198
 Maximum number of real-space cells 3x 2x 2
 Maximum number of reciprocal cells 2x 3x 3

 FEWALD executed in parallel
    FEWALD:  cpu time    0.0302: real time    0.0304


----------------------------------------- Iteration    1(   1)  ---------------------------------------


    POTLOK:  cpu time    0.0367: real time    0.0537
    SETDIJ:  cpu time    0.0354: real time    0.0355
     EDDAV:  cpu time    1.0725: real time    1.0895
       DOS:  cpu time    0.0023: real time    0.0023
    --------------------------------------------
      LOOP:  cpu time    1.1553: real time    1.6091

 eigenvalue-minimisations  :  5416
 total energy-change (2. order) : 0.1823402E+04  (-0.1097616E+05)
 number of electron     292.0000000 magnetization 
 augmentation part      292.0000000 magnetization 

 Free energy of the ion-electron system (eV)
  ---------------------------------------------------
  alpha Z        PSCENC =      1536.38966304
  Ewald energy   TEWEN  =    -18989.22549610
  -Hartree energ DENC   =     -7072.44468930
  -exchange      EXHF   =         0.00000000
  -V(xc)+E(xc)   XCENC  =      -349.94832349
  PAW double counting   =     21326.61790982   -19679.27816132
  entropy T*S    EENTRO =         0.00187020
  eigenvalues    EBANDS =       -54.12816467
  atomic energy  EATOM  =     25105.41708605
  Solvation  Ediel_sol  =         0.00000000
  ---------------------------------------------------
  free energy    TOTEN  =      1823.40169422 eV

  energy without entropy =     1823.39982403  energy(sigma->0) =     1823.40107082


--------------------------------------------------------------------------------------------------------




----------------------------------------- Iteration    1(   2)  ---------------------------------------


     EDDAV:  cpu time    0.9961: real time    1.1365
       DOS:  cpu time    0.0010: real time    0.0010
    --------------------------------------------
      LOOP:  cpu time    0.9979: real time    1.3497

 eigenvalue-minimisations  :  5688
 total energy-change (2. order) :-0.1930203E+04  (-0.1864131E+04)
 number of electron     292.0000000 magnetization 
 augmentation part      292.0000000 magnetization 

 Free energy of the ion-electron system (eV)
  ---------------------------------------------------
  alpha Z        PSCENC =      1536.38966304
  Ewald energy   TEWEN  =    -18989.22549610
  -Hartree energ DENC   =     -7072.44468930
  -exchange      EXHF   =         0.00000000
  -V(xc)+E(xc)   XCENC  =      -349.94832349
  PAW double counting   =     21326.61790982   -19679.27816132
  entropy T*S    EENTRO =         0.00121102
  eigenvalues    EBANDS =     -1984.33017222
  atomic energy  EATOM  =     25105.41708605
  Solvation  Ediel_sol  =         0.00000000
  ---------------------------------------------------
  free energy    TOTEN  =      -106.80097250 eV

  energy without entropy =     -106.80218352  energy(sigma->0) =     -106.80137617


--------------------------------------------------------------------------------------------------------




----------------------------------------- Iteration    1(   3)  ---------------------------------------


     EDDAV:  cpu time    1.3619: real time    1.3687
       DOS:  cpu time    0.0013: real time    0.0013
    --------------------------------------------
      LOOP:  cpu time    1.3636: real time    1.4130

 eigenvalue-minimisations  :  8280
 total energy-change (2. order) :-0.2456924E+03  (-0.2334569E+03)
 number of electron     292.0000000 magnetization 
 augmentation part      292.0000000 magnetization 

 Free energy of the ion-electron system (eV)
  ---------------------------------------------------
  alpha Z        PSCENC =      1536.38966304
  Ewald energy   TEWEN  =    -18989.22549610
  -Hartree energ DENC   =     -7072.44468930
  -exchange      EXHF   =         0.00000000
  -V(xc)+E(xc)   XCENC  =      -349.94832349
  PAW double counting   =     21326.61790982   -19679.27816132
  entropy T*S    EENTRO =        -0.00534122
  eigenvalues    EBANDS =     -2230.01598879
  atomic energy  EATOM  =     25105.41708605
  Solvation  Ediel_sol  =         0.00000000
  ---------------------------------------------------
  free energy    TOTEN  =      -352.49334131 eV

  energy without entropy =     -352.48800009  energy(sigma->0) =     -352.49156091


--------------------------------------------------------------------------------------------------------




----------------------------------------- Iteration    1(   4)  ---------------------------------------


     EDDAV:  cpu time    1.3682: real time    1.3745
       DOS:  cpu time    0.0013: real time    0.0013
    --------------------------------------------
      LOOP:  cpu time    1.3698: real time    1.4198

 eigenvalue-minimisations  :  8400
 total energy-change (2. order) :-0.2832743E+02  (-0.2701082E+02)
 number of electron     292.0000000 magnetization 
 augmentation part      292.0000000 magnetization 

 Free energy of the ion-electron system (eV)
  ---------------------------------------------------
  alpha Z        PSCENC =      1536.38966304
  Ewald energy   TEWEN  =    -18989.22549610
  -Hartree energ DENC   =     -7072.44468930
  -exchange      EXHF   =         0.00000000
  -V(xc)+E(xc)   XCENC  =      -349.94832349
  PAW double counting   =     21326.61790982   -19679.27816132
  entropy T*S    EENTRO =        -0.00260832
  eigenvalues    EBANDS =     -2258.34615100
  atomic energy  EATOM  =     25105.41708605
  Solvation  Ediel_sol  =         0.00000000
  ---------------------------------------------------
  free energy    TOTEN  =      -380.82077062 eV

  energy without entropy =     -380.81816230  energy(sigma->0) =     -380.81990118


--------------------------------------------------------------------------------------------------------




----------------------------------------- Iteration    1(   5)  ---------------------------------------


     EDDAV:  cpu time    1.3327: real time    1.3444
       DOS:  cpu time    0.0012: real time    0.0012
    CHARGE:  cpu time    0.0335: real time    0.0337
    MIXING:  cpu time    0.0014: real time    0.0015
    --------------------------------------------
      LOOP:  cpu time    1.3692: real time    1.4298

 eigenvalue-minimisations  :  7856
 total energy-change (2. order) :-0.2791491E+01  (-0.2732316E+01)
 number of electron     292.0000000 magnetization 
 augmentation part       17.7198340 magnetization 

 Broyden mixing:
  rms(total) = 0.65274E+01    rms(broyden)= 0.65269E+01
  rms(prec ) = 0.67946E+01
  weight for this iteration     100.00

 Free energy of the ion-electron system (eV)
  ---------------------------------------------------
  alpha Z        PSCENC =      1536.38966304
  Ewald energy   TEWEN  =    -18989.22549610
  -Hartree energ DENC   =     -7072.44468930
  -exchange      EXHF   =         0.00000000
  -V(xc)+E(xc)   XCENC  =      -349.94832349
  PAW double counting   =     21326.61790982   -19679.27816132
  entropy T*S    EENTRO =        -0.00153203
  eigenvalues    EBANDS =     -2261.13871839
  atomic energy  EATOM  =     25105.41708605
  Solvation  Ediel_sol  =         0.00000000
  ---------------------------------------------------
  free energy    TOTEN  =      -383.61226172 eV

  energy without entropy =     -383.61072970  energy(sigma->0) =     -383.61175105


--------------------------------------------------------------------------------------------------------




----------------------------------------- Iteration    1(   6)  ---------------------------------------


    POTLOK:  cpu time    0.0296: real time    0.0297
    SETDIJ:  cpu time    0.0036: real time    0.0036
    EDDIAG:  cpu time    0.0755: real time    0.0757
  RMM-DIIS:  cpu time    0.7154: real time    0.7178
    ORTHCH:  cpu time    0.0118: real time    0.0119
       DOS:  cpu time    0.0011: real time    0.0011
    CHARGE:  cpu time    0.0295: real time    0.0297
    MIXING:  cpu time    0.0015: real time    0.0023
    --------------------------------------------
      LOOP:  cpu time    0.8687: real time    0.9153

 eigenvalue-minimisations  :  6828
 total energy-change (2. order) : 0.1079225E+02  (-0.2312757E+01)
 number of electron     292.0000000 magnetization 
 augmentation part       18.4075208 magnetization 

 Broyden mixing:
  rms(total) = 0.31365E+01    rms(broyden)= 0.31365E+01
  rms(prec ) = 0.33192E+01
  weight for this iteration     100.00

 eigenvalues of (default mixing * dielectric matrix)
  average eigenvalue GAMMA=   1.8553
  1.8553

 Free energy of the ion-electron system (eV)
  ---------------------------------------------------
  alpha Z        PSCENC =      1536.38966304
  Ewald energy   TEWEN  =    -18989.22549610
  -Hartree energ DENC   =     -6912.43901845
  -exchange      EXHF   =         0.00000000
  -V(xc)+E(xc)   XCENC  =      -352.76036728
  PAW double counting   =     26695.57137982   -25055.94025976
  entropy T*S    EENTRO =         0.00630191
  eigenvalues    EBANDS =     -2399.83930206
  atomic energy  EATOM  =     25105.41708605
  Solvation  Ediel_sol  =         0.00000000
  ---------------------------------------------------
  free energy    TOTEN  =      -372.82001282 eV

  energy without entropy =     -372.82631473  energy(sigma->0) =     -372.82211346


--------------------------------------------------------------------------------------------------------




----------------------------------------- Iteration    1(   7)  ---------------------------------------


    POTLOK:  cpu time    0.0284: real time    0.0285
    SETDIJ:  cpu time    0.0036: real time    0.0036
    EDDIAG:  cpu time    0.0745: real time    0.0747
  RMM-DIIS:  cpu time    0.7192: real time    0.7263
    ORTHCH:  cpu time    0.0118: real time    0.0118
       DOS:  cpu time    0.0019: real time    0.0019
    CHARGE:  cpu time    0.0299: real time    0.0300
    MIXING:  cpu time    0.0013: real time    0.0013
    --------------------------------------------
      LOOP:  cpu time    0.8711: real time    0.9236

 eigenvalue-minimisations  :  6903
 total energy-change (2. order) : 0.1704243E+01  (-0.2332054E+01)
 number of electron     292.0000000 magnetization 
 augmentation part       18.9711562 magnetization 

 Broyden mixing:
  rms(total) = 0.76507E+00    rms(broyden)= 0.76480E+00
  rms(prec ) = 0.16562E+01
  weight for this iteration     100.00

 eigenvalues of (default mixing * dielectric matrix)
  average eigenvalue GAMMA=   1.2740
  0.6890  1.8589

 Free energy of the ion-electron system (eV)
  ---------------------------------------------------
  alpha Z        PSCENC =      1536.38966304
  Ewald energy   TEWEN  =    -18989.22549610
  -Hartree energ DENC   =     -6824.95310893
  -exchange      EXHF   =         0.00000000
  -V(xc)+E(xc)   XCENC  =      -351.51367047
  PAW double counting   =     32433.85600429   -30788.47892069
  entropy T*S    EENTRO =         0.02131432
  eigenvalues    EBANDS =     -2492.62864089
  atomic energy  EATOM  =     25105.41708605
  Solvation  Ediel_sol  =         0.00000000
  ---------------------------------------------------
  free energy    TOTEN  =      -371.11576938 eV

  energy without entropy =     -371.13708370  energy(sigma->0) =     -371.12287415


--------------------------------------------------------------------------------------------------------




----------------------------------------- Iteration    1(   8)  ---------------------------------------


    POTLOK:  cpu time    0.0292: real time    0.0294
    SETDIJ:  cpu time    0.0038: real time    0.0038
    EDDIAG:  cpu time    0.0765: real time    0.0770
  RMM-DIIS:  cpu time    0.8545: real time    0.8589
    ORTHCH:  cpu time    0.0137: real time    0.0138
       DOS:  cpu time    0.0009: real time    0.0009
    CHARGE:  cpu time    0.0315: real time    0.0347
    MIXING:  cpu time    0.0014: real time    0.0014
    --------------------------------------------
      LOOP:  cpu time    1.0122: real time    1.0657

 eigenvalue-minimisations  :  7685
 total energy-change (2. order) : 0.2508258E+01  (-0.4284691E+00)
 number of electron     292.0000000 magnetization 
 augmentation part       18.7719912 magnetization 

 Broyden mixing:
  rms(total) = 0.38311E+00    rms(broyden)= 0.38284E+00
  rms(prec ) = 0.62341E+00
  weight for this iteration     100.00

 eigenvalues of (default mixing * dielectric matrix)
  average eigenvalue GAMMA=   1.3061
  1.7068  1.7068  0.5047

 Free energy of the ion-electron system (eV)
  ---------------------------------------------------
  alpha Z        PSCENC =      1536.38966304
  Ewald energy   TEWEN  =    -18989.22549610
  -Hartree energ DENC   =     -6820.35527924
  -exchange      EXHF   =         0.00000000
  -V(xc)+E(xc)   XCENC  =      -351.00573827
  PAW double counting   =     33071.80984646   -31423.70954158
  entropy T*S    EENTRO =         0.01585880
  eigenvalues    EBANDS =     -2497.94391083
  atomic energy  EATOM  =     25105.41708605
  Solvation  Ediel_sol  =         0.00000000
  ---------------------------------------------------
  free energy    TOTEN  =      -368.60751166 eV

  energy without entropy =     -368.62337046  energy(sigma->0) =     -368.61279792


--------------------------------------------------------------------------------------------------------




----------------------------------------- Iteration    1(   9)  ---------------------------------------


    POTLOK:  cpu time    0.0354: real time    0.0366
    SETDIJ:  cpu time    0.0047: real time    0.0047
    EDDIAG:  cpu time    0.1376: real time    0.1382
  RMM-DIIS:  cpu time    0.7557: real time    0.8874
    ORTHCH:  cpu time    0.0121: real time    0.0121
       DOS:  cpu time    0.0016: real time    0.0016
    CHARGE:  cpu time    0.0298: real time    0.0299
    MIXING:  cpu time    0.0015: real time    0.0015
    --------------------------------------------
      LOOP:  cpu time    0.9792: real time    1.1827

 eigenvalue-minimisations  :  7560
 total energy-change (2. order) : 0.3166428E-01  (-0.1378754E+00)
 number of electron     292.0000000 magnetization 
 augmentation part       18.6430009 magnetization 

 Broyden mixing:
  rms(total) = 0.27215E+00    rms(broyden)= 0.27206E+00
  rms(prec ) = 0.43112E+00
  weight for this iteration     100.00

 eigenvalues of (default mixing * dielectric matrix)
  average eigenvalue GAMMA=   1.1812
  1.9109  1.9109  0.4918  0.4112

 Free energy of the ion-electron system (eV)
  ---------------------------------------------------
  alpha Z        PSCENC =      1536.38966304
  Ewald energy   TEWEN  =    -18989.22549610
  -Hartree energ DENC   =     -6826.85424037
  -exchange      EXHF   =         0.00000000
  -V(xc)+E(xc)   XCENC  =      -350.43123631
  PAW double counting   =     33169.64664061   -31517.82248024
  entropy T*S    EENTRO =         0.01344951
  eigenvalues    EBANDS =     -2495.70923357
  atomic energy  EATOM  =     25105.41708605
  Solvation  Ediel_sol  =         0.00000000
  ---------------------------------------------------
  free energy    TOTEN  =      -368.57584738 eV

  energy without entropy =     -368.58929688  energy(sigma->0) =     -368.58033054


--------------------------------------------------------------------------------------------------------




----------------------------------------- Iteration    1(  10)  ---------------------------------------


    POTLOK:  cpu time    0.0301: real time    0.0302
    SETDIJ:  cpu time    0.0038: real time    0.0038
    EDDIAG:  cpu time    0.0764: real time    0.0767
  RMM-DIIS:  cpu time    0.8753: real time    0.8794
    ORTHCH:  cpu time    0.0117: real time    0.0118
       DOS:  cpu time    0.0022: real time    0.0022
    CHARGE:  cpu time    0.0298: real time    0.0299
    MIXING:  cpu time    0.0014: real time    0.0014
    --------------------------------------------
      LOOP:  cpu time    1.0315: real time    1.0845

 eigenvalue-minimisations  :  7502
 total energy-change (2. order) : 0.7836030E-01  (-0.3077868E-01)
 number of electron     292.0000000 magnetization 
 augmentation part       18.5545203 magnetization 

 Broyden mixing:
  rms(total) = 0.10844E+00    rms(broyden)= 0.10837E+00
  rms(prec ) = 0.17113E+00
  weight for this iteration     100.00

 eigenvalues of (default mixing * dielectric matrix)
  average eigenvalue GAMMA=   1.1464
  1.9878  1.9878  0.8601  0.5170  0.3792

 Free energy of the ion-electron system (eV)
  ---------------------------------------------------
  alpha Z        PSCENC =      1536.38966304
  Ewald energy   TEWEN  =    -18989.22549610
  -Hartree energ DENC   =     -6840.90281111
  -exchange      EXHF   =         0.00000000
  -V(xc)+E(xc)   XCENC  =      -349.40398782
  PAW double counting   =     33373.18257197   -31713.99495455
  entropy T*S    EENTRO =         0.01619217
  eigenvalues    EBANDS =     -2489.97575073
  atomic energy  EATOM  =     25105.41708605
  Solvation  Ediel_sol  =         0.00000000
  ---------------------------------------------------
  free energy    TOTEN  =      -368.49748708 eV

  energy without entropy =     -368.51367925  energy(sigma->0) =     -368.50288447


--------------------------------------------------------------------------------------------------------




----------------------------------------- Iteration    1(  11)  ---------------------------------------


    POTLOK:  cpu time    0.0285: real time    0.0287
    SETDIJ:  cpu time    0.0037: real time    0.0037
    EDDIAG:  cpu time    0.1277: real time    0.1282
  RMM-DIIS:  cpu time    0.7867: real time    0.7902
    ORTHCH:  cpu time    0.0118: real time    0.0118
       DOS:  cpu time    0.0012: real time    0.0012
    CHARGE:  cpu time    0.0323: real time    0.0324
    MIXING:  cpu time    0.0015: real time    0.0015
    --------------------------------------------
      LOOP:  cpu time    0.9940: real time    1.0446

 eigenvalue-minimisations  :  7546
 total energy-change (2. order) : 0.1648479E-01  (-0.9823060E-02)
 number of electron     292.0000000 magnetization 
 augmentation part       18.5433619 magnetization 

 Broyden mixing:
  rms(total) = 0.53348E-01    rms(broyden)= 0.53317E-01
  rms(prec ) = 0.80118E-01
  weight for this iteration     100.00

 eigenvalues of (default mixing * dielectric matrix)
  average eigenvalue GAMMA=   1.1347
  2.2656  1.7687  1.3420  0.5359  0.5359  0.3603

 Free energy of the ion-electron system (eV)
  ---------------------------------------------------
  alpha Z        PSCENC =      1536.38966304
  Ewald energy   TEWEN  =    -18989.22549610
  -Hartree energ DENC   =     -6844.09705151
  -exchange      EXHF   =         0.00000000
  -V(xc)+E(xc)   XCENC  =      -349.09599733
  PAW double counting   =     33537.42336998   -31875.44048125
  entropy T*S    EENTRO =         0.01580518
  eigenvalues    EBANDS =     -2489.86790035
  atomic energy  EATOM  =     25105.41708605
  Solvation  Ediel_sol  =         0.00000000
  ---------------------------------------------------
  free energy    TOTEN  =      -368.48100229 eV

  energy without entropy =     -368.49680747  energy(sigma->0) =     -368.48627068


--------------------------------------------------------------------------------------------------------




----------------------------------------- Iteration    1(  12)  ---------------------------------------


    POTLOK:  cpu time    0.0286: real time    0.0300
    SETDIJ:  cpu time    0.0037: real time    0.0038
    EDDIAG:  cpu time    0.0760: real time    0.0796
  RMM-DIIS:  cpu time    0.7704: real time    0.7889
    ORTHCH:  cpu time    0.0119: real time    0.0120
       DOS:  cpu time    0.0019: real time    0.0019
    CHARGE:  cpu time    0.0296: real time    0.0298
    MIXING:  cpu time    0.0015: real time    0.0015
    --------------------------------------------
      LOOP:  cpu time    0.9242: real time    0.9968

 eigenvalue-minimisations  :  7601
 total energy-change (2. order) : 0.5717423E-03  (-0.3298650E-02)
 number of electron     292.0000000 magnetization 
 augmentation part       18.5432069 magnetization 

 Broyden mixing:
  rms(total) = 0.33243E-01    rms(broyden)= 0.33229E-01
  rms(prec ) = 0.58472E-01
  weight for this iteration     100.00

 eigenvalues of (default mixing * dielectric matrix)
  average eigenvalue GAMMA=   1.0991
  2.3202  1.8200  1.4811  0.6527  0.5841  0.4734  0.3622

 Free energy of the ion-electron system (eV)
  ---------------------------------------------------
  alpha Z        PSCENC =      1536.38966304
  Ewald energy   TEWEN  =    -18989.22549610
  -Hartree energ DENC   =     -6843.91387834
  -exchange      EXHF   =         0.00000000
  -V(xc)+E(xc)   XCENC  =      -349.04351243
  PAW double counting   =     33651.78120215   -31988.47766580
  entropy T*S    EENTRO =         0.01650256
  eigenvalues    EBANDS =     -2491.42433169
  atomic energy  EATOM  =     25105.41708605
  Solvation  Ediel_sol  =         0.00000000
  ---------------------------------------------------
  free energy    TOTEN  =      -368.48043055 eV

  energy without entropy =     -368.49693311  energy(sigma->0) =     -368.48593140


--------------------------------------------------------------------------------------------------------




----------------------------------------- Iteration    1(  13)  ---------------------------------------


    POTLOK:  cpu time    0.0281: real time    0.0283
    SETDIJ:  cpu time    0.0036: real time    0.0036
    EDDIAG:  cpu time    0.0803: real time    0.0807
  RMM-DIIS:  cpu time    0.8408: real time    0.8443
    ORTHCH:  cpu time    0.0117: real time    0.0117
       DOS:  cpu time    0.0063: real time    0.0063
    CHARGE:  cpu time    0.0342: real time    0.0349
    MIXING:  cpu time    0.0016: real time    0.0016
    --------------------------------------------
      LOOP:  cpu time    1.0071: real time    1.0656

 eigenvalue-minimisations  :  7801
 total energy-change (2. order) : 0.6304497E-03  (-0.1124801E-02)
 number of electron     292.0000000 magnetization 
 augmentation part       18.5413636 magnetization 

 Broyden mixing:
  rms(total) = 0.20469E-01    rms(broyden)= 0.20462E-01
  rms(prec ) = 0.30436E-01
  weight for this iteration     100.00

 eigenvalues of (default mixing * dielectric matrix)
  average eigenvalue GAMMA=   1.1097
  2.4462  1.9709  1.6181  0.9635  0.5635  0.5247  0.3635  0.4268

 Free energy of the ion-electron system (eV)
  ---------------------------------------------------
  alpha Z        PSCENC =      1536.38966304
  Ewald energy   TEWEN  =    -18989.22549610
  -Hartree energ DENC   =     -6844.50882732
  -exchange      EXHF   =         0.00000000
  -V(xc)+E(xc)   XCENC  =      -349.02334143
  PAW double counting   =     33693.60793583   -32029.71477494
  entropy T*S    EENTRO =         0.01619818
  eigenvalues    EBANDS =     -2491.43824341
  atomic energy  EATOM  =     25105.41708605
  Solvation  Ediel_sol  =         0.00000000
  ---------------------------------------------------
  free energy    TOTEN  =      -368.47980010 eV

  energy without entropy =     -368.49599828  energy(sigma->0) =     -368.48519949


--------------------------------------------------------------------------------------------------------




----------------------------------------- Iteration    1(  14)  ---------------------------------------


    POTLOK:  cpu time    0.0301: real time    0.0307
    SETDIJ:  cpu time    0.0037: real time    0.0037
    EDDIAG:  cpu time    0.0775: real time    0.0779
  RMM-DIIS:  cpu time    0.8452: real time    0.8508
    ORTHCH:  cpu time    0.0118: real time    0.0119
       DOS:  cpu time    0.0024: real time    0.0024
    CHARGE:  cpu time    0.0301: real time    0.0311
    MIXING:  cpu time    0.0016: real time    0.0016
    --------------------------------------------
      LOOP:  cpu time    1.0030: real time    1.0577

 eigenvalue-minimisations  :  7784
 total energy-change (2. order) :-0.9199166E-04  (-0.5060924E-03)
 number of electron     292.0000000 magnetization 
 augmentation part       18.5398185 magnetization 

 Broyden mixing:
  rms(total) = 0.10541E-01    rms(broyden)= 0.10537E-01
  rms(prec ) = 0.16684E-01
  weight for this iteration     100.00

 eigenvalues of (default mixing * dielectric matrix)
  average eigenvalue GAMMA=   1.1002
  2.6060  2.0707  1.5527  1.2186  0.6169  0.6169  0.4922  0.3586  0.3692

 Free energy of the ion-electron system (eV)
  ---------------------------------------------------
  alpha Z        PSCENC =      1536.38966304
  Ewald energy   TEWEN  =    -18989.22549610
  -Hartree energ DENC   =     -6844.80171476
  -exchange      EXHF   =         0.00000000
  -V(xc)+E(xc)   XCENC  =      -349.01775897
  PAW double counting   =     33722.31571842   -32057.91791680
  entropy T*S    EENTRO =         0.01615417
  eigenvalues    EBANDS =     -2491.65562714
  atomic energy  EATOM  =     25105.41708605
  Solvation  Ediel_sol  =         0.00000000
  ---------------------------------------------------
  free energy    TOTEN  =      -368.47989209 eV

  energy without entropy =     -368.49604626  energy(sigma->0) =     -368.48527681


--------------------------------------------------------------------------------------------------------




----------------------------------------- Iteration    1(  15)  ---------------------------------------


    POTLOK:  cpu time    0.0289: real time    0.0291
    SETDIJ:  cpu time    0.0037: real time    0.0037
    EDDIAG:  cpu time    0.0778: real time    0.0783
  RMM-DIIS:  cpu time    0.7887: real time    0.8034
    ORTHCH:  cpu time    0.0118: real time    0.0118
       DOS:  cpu time    0.0009: real time    0.0009
    CHARGE:  cpu time    0.0296: real time    0.0305
    MIXING:  cpu time    0.0016: real time    0.0016
    --------------------------------------------
      LOOP:  cpu time    0.9437: real time    1.0017

 eigenvalue-minimisations  :  7572
 total energy-change (2. order) :-0.8653800E-04  (-0.2322019E-03)
 number of electron     292.0000000 magnetization 
 augmentation part       18.5379451 magnetization 

 Broyden mixing:
  rms(total) = 0.47188E-02    rms(broyden)= 0.47153E-02
  rms(prec ) = 0.93569E-02
  weight for this iteration     100.00

 eigenvalues of (default mixing * dielectric matrix)
  average eigenvalue GAMMA=   1.0697
  2.6572  2.0342  1.6245  1.2503  0.8325  0.6139  0.4866  0.4866  0.3612  0.3498

 Free energy of the ion-electron system (eV)
  ---------------------------------------------------
  alpha Z        PSCENC =      1536.38966304
  Ewald energy   TEWEN  =    -18989.22549610
  -Hartree energ DENC   =     -6845.11330245
  -exchange      EXHF   =         0.00000000
  -V(xc)+E(xc)   XCENC  =      -349.01123876
  PAW double counting   =     33736.65297918   -32071.94118126
  entropy T*S    EENTRO =         0.01623765
  eigenvalues    EBANDS =     -2491.66472598
  atomic energy  EATOM  =     25105.41708605
  Solvation  Ediel_sol  =         0.00000000
  ---------------------------------------------------
  free energy    TOTEN  =      -368.47997863 eV

  energy without entropy =     -368.49621628  energy(sigma->0) =     -368.48539118


--------------------------------------------------------------------------------------------------------




----------------------------------------- Iteration    1(  16)  ---------------------------------------


    POTLOK:  cpu time    0.0293: real time    0.0295
    SETDIJ:  cpu time    0.0037: real time    0.0037
    EDDIAG:  cpu time    0.1545: real time    0.1554
  RMM-DIIS:  cpu time    0.5787: real time    0.7444
    ORTHCH:  cpu time    0.0120: real time    0.0153
       DOS:  cpu time    0.0012: real time    0.0012
    CHARGE:  cpu time    0.0298: real time    0.0315
    MIXING:  cpu time    0.0017: real time    0.0017
    --------------------------------------------
      LOOP:  cpu time    0.8116: real time    1.0326

 eigenvalue-minimisations  :  6533
 total energy-change (2. order) :-0.3325610E-04  (-0.9419414E-04)
 number of electron     292.0000000 magnetization 
 augmentation part       18.5376259 magnetization 

 Broyden mixing:
  rms(total) = 0.26903E-02    rms(broyden)= 0.26890E-02
  rms(prec ) = 0.57581E-02
  weight for this iteration     100.00

 eigenvalues of (default mixing * dielectric matrix)
  average eigenvalue GAMMA=   1.0464
  2.6882  2.0118  1.6647  1.3878  0.9004  0.6510  0.5385  0.5385  0.4199  0.3631
  0.3465

 Free energy of the ion-electron system (eV)
  ---------------------------------------------------
  alpha Z        PSCENC =      1536.38966304
  Ewald energy   TEWEN  =    -18989.22549610
  -Hartree energ DENC   =     -6845.29126239
[...]
     98       5.4414      2.00000
     99       5.4757      2.00000
    100       5.5222      2.00000
    101       5.5795      2.00000
    102       5.6170      2.00000
    103       5.7123      2.00000
    104       5.7706      2.00000
    105       5.8084      2.00000
    106       5.9932      2.00000
    107       6.0510      2.00000
    108       6.1119      2.00000
    109       6.1334      2.00000
    110       6.1818      2.00000
    111       6.2279      2.00000
    112       6.2443      2.00000
    113       6.2604      2.00000
    114       6.2993      2.00000
    115       6.3337      2.00000
    116       6.3533      2.00000
    117       6.3963      2.00000
    118       6.4277      2.00000
    119       6.4383      2.00000
    120       6.4769      2.00000
    121       6.5168      2.00000
    122       6.5641      2.00000
    123       6.5906      2.00000
    124       6.6150      2.00000
    125       6.6517      2.00000
    126       6.6993      2.00000
    127       6.7585      2.00000
    128       6.8040      2.00000
    129       6.8538      2.00000
    130       6.8838      2.00000
    131       6.9159      2.00000
    132       6.9659      2.00000
    133       6.9844      2.00000
    134       7.0341      2.00002
    135       7.0689      2.00010
    136       7.1334      2.00099
    137       7.1640      2.00256
    138       7.2108      2.00904
    139       7.2337      2.01534
    140       7.2528      2.02270
    141       7.3087      2.05415
    142       7.3543      2.07084
    143       7.3623      2.06929
    144       7.3957      2.03346
    145       7.4284      1.93017
    146       7.4644      1.71219
    147       7.4851      1.53645
    148       7.5170      1.20858
    149       7.5781      0.54208
    150       7.6166      0.21765
    151       7.6373      0.09630
    152       7.6704     -0.02220
    153       7.7156     -0.07072
    154       7.7362     -0.06759
    155       7.7780     -0.04468
    156       7.8456     -0.01284
    157       7.8612     -0.00889
    158       7.9092     -0.00242
    159       7.9400     -0.00092
    160       7.9786     -0.00024
    161       8.0304     -0.00003
    162       8.0715     -0.00001
    163       8.1106     -0.00000
    164       8.1642     -0.00000
    165       8.2170     -0.00000
    166       8.2860     -0.00000
    167       8.3795     -0.00000
    168       8.4253     -0.00000
    169       8.6665     -0.00000
    170       8.7699     -0.00000
    171       8.8433     -0.00000
    172       9.3955     -0.00000
    173       9.4887     -0.00000
    174       9.5284     -0.00000
    175       9.5787     -0.00000
    176       9.6430     -0.00000


--------------------------------------------------------------------------------------------------------


 soft charge-density along one line, spin component           1
         0         1         2         3         4         5         6         7         8         9
 total charge-density along one line
 
 pseudopotential strength for first ion, spin component:           1
 -6.367   0.003   0.000   0.002  -0.000  -7.561   0.004   0.000
  0.003  -6.360   0.000  -0.003  -0.001   0.004  -7.553   0.001
  0.000   0.000  -6.372   0.001   0.002   0.000   0.001  -7.568
  0.002  -0.003   0.001  -6.368   0.001   0.003  -0.004   0.001
 -0.000  -0.001   0.002   0.001  -6.374  -0.000  -0.002   0.003
 -7.561   0.004   0.000   0.003  -0.000  -8.957   0.005   0.001
  0.004  -7.553   0.001  -0.004  -0.002   0.005  -8.947   0.001
  0.000   0.001  -7.568   0.001   0.003   0.001   0.001  -8.965
  0.003  -0.004   0.001  -7.563   0.002   0.003  -0.005   0.001
 -0.000  -0.002   0.003   0.002  -7.570  -0.000  -0.002   0.003
  0.001  -0.001  -0.001  -0.002   0.002   0.001  -0.002  -0.001
  0.002  -0.002  -0.002  -0.003   0.003   0.002  -0.003  -0.002
 -0.001  -0.005   0.001   0.001   0.002  -0.001  -0.006   0.001
  0.001  -0.001  -0.007  -0.000  -0.000   0.001  -0.001  -0.008
 -0.001   0.001  -0.001  -0.005   0.003  -0.001   0.001  -0.001
  0.003   0.006   0.000  -0.001   0.001   0.004   0.008   0.000
 -0.001  -0.002   0.009   0.002   0.000  -0.001  -0.002   0.010
 -0.002  -0.001   0.001   0.007  -0.003  -0.003  -0.001   0.001
 total augmentation occupancy for first ion, spin component:           1
  5.109   0.192  -0.076   0.017   0.009  -2.643  -0.107   0.026  -0.003  -0.007  -0.028   0.020  -0.038   0.003   0.107   0.000
  0.192   5.617  -0.066  -0.165   0.069  -0.107  -2.918   0.035   0.084  -0.044  -0.028  -0.017   0.000   0.143   0.008   0.005
 -0.076  -0.066   5.001   0.010   0.044   0.026   0.035  -2.785  -0.016  -0.038   0.066  -0.017  -0.020   0.052   0.040  -0.002
  0.017  -0.165   0.010   5.124   0.033  -0.003   0.084  -0.017  -2.662  -0.034   0.112  -0.038  -0.005  -0.007   0.074  -0.001
  0.009   0.069   0.044   0.033   4.884  -0.007  -0.045  -0.037  -0.034  -2.718  -0.062   0.032  -0.064   0.020  -0.051  -0.004
 -2.643  -0.107   0.026  -0.003  -0.007   1.390   0.058  -0.006  -0.003   0.005   0.017  -0.010   0.019  -0.000  -0.061  -0.000
 -0.107  -2.918   0.035   0.084  -0.045   0.058   1.541  -0.019  -0.042   0.028   0.017   0.008  -0.002  -0.078  -0.002  -0.003
  0.026   0.035  -2.785  -0.017  -0.037  -0.006  -0.019   1.562   0.015   0.029  -0.045   0.010   0.018  -0.030  -0.023   0.001
 -0.003   0.084  -0.016  -2.662  -0.034  -0.003  -0.042   0.015   1.406   0.027  -0.071   0.020   0.003   0.004  -0.038   0.000
 -0.007  -0.044  -0.038  -0.034  -2.718   0.005   0.028   0.029   0.027   1.524   0.046  -0.019   0.045  -0.011   0.030   0.002
 -0.028  -0.028   0.066   0.112  -0.062   0.017   0.017  -0.045  -0.071   0.046   2.240  -0.236   0.040   0.018  -0.016   0.000
  0.020  -0.017  -0.017  -0.038   0.032  -0.010   0.008   0.010   0.020  -0.019  -0.236   0.027  -0.002   0.000  -0.000   0.000
 -0.038   0.000  -0.020  -0.005  -0.064   0.019  -0.002   0.018   0.003   0.045   0.040  -0.002   0.302   0.006  -0.009   0.008
  0.003   0.143   0.052  -0.007   0.020  -0.000  -0.078  -0.030   0.004  -0.011   0.018   0.000   0.006   0.295   0.013   0.000
  0.107   0.008   0.040   0.074  -0.051  -0.061  -0.002  -0.023  -0.038   0.030  -0.016  -0.000  -0.009   0.013   0.289  -0.000
  0.000   0.005  -0.002  -0.001  -0.004  -0.000  -0.003   0.001   0.000   0.002   0.000   0.000   0.008   0.000  -0.000   0.000
 -0.001   0.003   0.005   0.000   0.000   0.000  -0.001  -0.003  -0.000  -0.000   0.002  -0.000   0.000   0.007   0.000   0.000
  0.003  -0.001   0.002   0.005  -0.003  -0.001   0.000  -0.001  -0.003   0.002  -0.000  -0.000  -0.000   0.000   0.007  -0.000


------------------------ aborting loop because EDIFF is reached ----------------------------------------


    CHARGE:  cpu time    0.0490: real time    0.0494
    FORLOC:  cpu time    0.0127: real time    0.0128
    FORNL :  cpu time    0.3045: real time    0.3070
    STRESS:  cpu time    0.9004: real time    0.9112
    FORCOR:  cpu time    0.0430: real time    0.0431
    FORHAR:  cpu time    0.0181: real time    0.0182
    MIXING:  cpu time    0.0012: real time    0.0013
    OFIELD:  cpu time    0.0000: real time    0.0000

  FORCE on cell =-STRESS in cart. coord.  units (eV):
  Direction    XX          YY          ZZ          XY          YZ          ZX
  --------------------------------------------------------------------------------------
  Alpha Z  1534.79306  1534.79306  1534.79306
  Ewald   -5423.10962 -6116.43442 -7449.47354  -166.26350   271.06112    37.54695
  Hartree  3123.27099  2496.35558  1220.98420  -137.14836   219.06867    44.03538
  E(xc)   -1280.06736 -1280.48291 -1280.64301     0.01995     0.04305     0.10562
  Local   -2775.85297 -1458.81266  1149.38052   303.93779  -489.40189   -80.86877
  n-local  -283.18484  -288.06408  -287.01375     0.65505     0.24928     1.91914
  augment   227.37034   228.13633   228.14230    -0.13301    -0.14847    -0.26206
  Kinetic  4876.79092  4884.51242  4883.78109    -1.05300    -0.87857    -2.46253
  Fock        0.00000     0.00000     0.00000     0.00000     0.00000     0.00000
  -------------------------------------------------------------------------------------
  Total       0.01052     0.00332    -0.04913     0.01493    -0.00681     0.01374
  in kB       0.02350     0.00742    -0.10976     0.03336    -0.01522     0.03069
  external pressure =       -0.03 kB  Pullay stress =        0.00 kB


 VOLUME and BASIS-vectors are now :
 -----------------------------------------------------------------------------
  energy-cutoff  :      300.00
  volume of cell :      717.22
      direct lattice vectors                 reciprocal lattice vectors
     6.917175629  0.007093885  0.016880841     0.144568706 -0.000152496 -0.000358198
     0.010750476 10.195568760 -0.001666181    -0.000100635  0.098081935  0.000019292
     0.025195895 -0.001974479 10.169912146    -0.000239983  0.000016322  0.098329864

  length of vectors
     6.917199865 10.195574564 10.169943549     0.144569230  0.098081989  0.098330158


 FORCES acting on ions
    electron-ion (+dipol)            ewald-force                    non-local-force                 convergence-correction
 -----------------------------------------------------------------------------------------------
   0.217E+02 -.774E+02 0.109E+03   -.220E+02 0.780E+02 -.109E+03   0.232E+00 -.588E+00 -.586E+00   -.100E-02 -.641E-02 0.549E-02
   0.273E+01 -.947E+01 -.456E+02   -.167E+01 0.902E+01 0.459E+02   -.106E+01 0.458E+00 -.330E+00   -.109E-02 -.538E-02 0.164E-02
   -.319E+01 -.493E+02 0.121E+03   0.412E+01 0.492E+02 -.121E+03   -.929E+00 0.109E+00 -.139E+00   0.292E-03 -.728E-02 0.233E-02
   0.441E+00 0.540E+02 0.217E+02   0.353E+00 -.541E+02 -.218E+02   -.795E+00 0.119E+00 0.192E+00   -.195E-02 -.197E-02 0.348E-02
   0.542E+02 0.219E+02 0.122E+03   -.533E+02 -.223E+02 -.122E+03   -.891E+00 0.450E+00 -.405E+00   -.343E-02 0.835E-02 -.111E-02
   0.292E+02 0.176E+02 -.137E+03   -.286E+02 -.183E+02 0.137E+03   -.612E+00 0.690E+00 0.817E+00   -.117E-02 0.271E-02 -.247E-02
   0.332E+01 -.584E+02 0.112E+03   -.427E+01 0.584E+02 -.112E+03   0.958E+00 0.756E-01 -.513E-01   -.598E-03 -.928E-02 0.276E-02
   -.272E+02 -.842E+02 -.761E+02   0.266E+02 0.836E+02 0.757E+02   0.631E+00 0.585E+00 0.439E+00   0.231E-02 -.293E-02 -.381E-02
   0.138E+02 0.571E+02 0.101E+03   -.136E+02 -.573E+02 -.101E+03   -.186E+00 0.215E+00 -.362E+00   -.227E-02 -.186E-02 0.336E-03
   0.607E+02 0.521E+02 -.499E+02   -.615E+02 -.518E+02 0.498E+02   0.795E+00 -.344E+00 0.106E+00   -.409E-02 0.628E-02 -.539E-02
   0.267E+02 -.398E+02 -.921E+02   -.266E+02 0.398E+02 0.923E+02   -.124E+00 -.154E-01 -.251E+00   0.106E-02 -.166E-02 -.321E-02
   0.256E+03 0.263E+03 -.128E+03   -.256E+03 -.262E+03 0.129E+03   -.327E+00 -.894E+00 -.279E+00   -.141E-01 0.786E-02 0.325E-02
   0.117E+02 0.224E+02 0.155E+03   -.127E+02 -.231E+02 -.154E+03   0.925E+00 0.615E+00 -.571E+00   0.261E-02 0.225E-01 0.486E-02
   -.323E+02 -.153E+03 -.338E+03   0.326E+02 0.153E+03 0.338E+03   -.225E+00 -.610E+00 0.254E+00   -.118E-01 -.113E-01 -.890E-02
   -.254E+03 0.242E+03 -.125E+03   0.254E+03 -.241E+03 0.125E+03   0.485E+00 -.100E+01 -.471E+00   0.199E-01 0.743E-02 -.545E-02
   0.310E+02 -.131E+02 0.406E+03   -.313E+02 0.136E+02 -.406E+03   0.297E+00 -.457E+00 -.211E+00   -.901E-02 0.129E-01 -.170E-02
   0.179E+02 -.294E+03 0.613E+02   -.191E+02 0.295E+03 -.615E+02   0.117E+01 -.671E+00 0.242E+00   -.286E-02 -.805E-02 0.164E-02
   -.441E+02 -.779E+02 -.471E+03   0.433E+02 0.774E+02 0.470E+03   0.831E+00 0.568E+00 0.511E+00   0.201E-02 0.898E-02 -.533E-02
   -.178E+02 -.213E+03 0.891E+02   0.190E+02 0.213E+03 -.895E+02   -.122E+01 -.244E+00 0.375E+00   0.371E-02 -.108E-01 -.790E-02
   0.921E+02 0.167E+03 0.241E+03   -.928E+02 -.168E+03 -.241E+03   0.744E+00 0.263E+00 -.204E-01   -.124E-01 0.119E-01 0.874E-02
   0.134E+02 0.192E+02 0.121E+02   -.125E+02 -.194E+02 -.118E+02   -.955E+00 0.193E+00 -.320E+00   -.156E-02 0.536E-02 0.310E-02
   -.406E+02 0.106E+01 0.949E+02   0.394E+02 -.134E+01 -.948E+02   0.116E+01 0.264E+00 -.117E+00   0.224E-02 0.772E-02 -.382E-03
   0.160E+01 0.765E+02 0.316E+02   -.245E+01 -.765E+02 -.319E+02   0.852E+00 0.456E-01 0.240E+00   0.102E-02 -.279E-02 0.286E-02
   -.109E+02 0.323E+02 -.102E+03   0.111E+02 -.318E+02 0.102E+03   -.220E+00 -.491E+00 0.214E+00   0.860E-03 0.402E-02 -.249E-02
   -.398E+02 0.166E+02 -.422E+02   0.407E+02 -.163E+02 0.421E+02   -.918E+00 -.345E+00 0.786E-01   0.259E-02 0.569E-02 -.210E-02
   -.158E+02 -.447E+02 0.909E+02   0.160E+02 0.451E+02 -.907E+02   -.221E+00 -.391E+00 -.212E+00   0.707E-03 -.578E-02 0.276E-02
   -.320E+01 -.155E+02 -.306E+02   0.192E+01 0.151E+02 0.310E+02   0.128E+01 0.367E+00 -.387E+00   0.940E-03 -.319E-02 0.474E-03
   0.180E+02 -.125E+02 -.584E+02   -.175E+02 0.125E+02 0.583E+02   -.510E+00 -.524E-01 0.531E-01   -.109E-02 -.140E-02 0.133E-02
   0.110E+02 -.429E+02 -.105E+03   -.110E+02 0.429E+02 0.105E+03   0.697E-01 -.449E-01 -.634E-01   -.247E-04 -.492E-02 -.190E-02
   -.279E+02 0.154E+03 0.172E+03   0.277E+02 -.154E+03 -.172E+03   0.198E+00 0.139E+00 -.563E+00   0.615E-02 -.102E-01 0.822E-03
   -.624E+02 -.550E+02 -.237E+03   0.622E+02 0.549E+02 0.237E+03   0.210E+00 0.538E-01 -.182E+00   -.226E-02 -.611E-02 -.286E-02
   0.392E+02 -.210E+03 -.135E+03   -.384E+02 0.210E+03 0.135E+03   -.843E+00 0.602E+00 0.730E+00   -.479E-02 -.585E-02 -.884E-02
   -.867E+02 0.138E+03 0.254E+03   0.873E+02 -.138E+03 -.254E+03   -.561E+00 0.134E+00 0.306E+00   0.529E-02 0.138E-01 0.717E-02
   -.251E+02 -.889E+02 -.165E+03   0.243E+02 0.889E+02 0.165E+03   0.773E+00 0.930E-02 0.465E+00   0.335E-02 -.556E-02 0.570E-02
   0.237E+02 0.222E+03 -.277E+03   -.238E+02 -.222E+03 0.276E+03   0.101E+00 -.220E+00 0.338E+00   -.431E-02 -.158E-04 -.944E-02
   -.380E+02 -.174E+02 0.420E+03   0.382E+02 0.177E+02 -.420E+03   -.205E+00 -.296E+00 0.138E+00   -.978E-03 0.474E-02 -.102E-02
 -----------------------------------------------------------------------------------------------
   -.881E+00 0.689E+00 0.351E-01   0.000E+00 0.121E-12 -.171E-12   0.907E+00 -.709E+00 -.222E-01   -.258E-01 0.175E-01 -.155E-01
 
 
 POSITION                                       TOTAL-FORCE (eV/Angst)
 -----------------------------------------------------------------------------------
      1.69936      1.72926      5.20288        -0.002738     -0.000841      0.002043
      0.26384      3.36797      3.49155         0.000673     -0.000016     -0.005363
      0.11037      3.41292      6.82106        -0.000284      0.000445      0.000347
      1.86902      5.11809      8.48679        -0.002618     -0.000533     -0.001260
      1.98727      8.47848      5.20377        -0.003958     -0.001810      0.004072
      1.83980      8.39938      1.54414        -0.005724      0.006617     -0.002529
      3.37024      3.38189      6.79527        -0.000299     -0.000372     -0.005174
      3.39917      3.23974     10.08377        -0.000762      0.003574      0.000299
      1.75208      5.09974      5.17153        -0.001709     -0.003469      0.002857
      3.32495      6.82162      3.37567        -0.003850     -0.000834     -0.004340
      3.51093      0.03963      0.03212         0.002295     -0.002334      0.001453
      3.55579      6.87155      0.05680         0.000859     -0.001788      0.000013
      5.11783      8.43326      8.55256        -0.001771      0.001440      0.002107
      1.72516      1.72177      1.62366         0.004720     -0.003239      0.001381
      6.84604      6.92389      0.05035        -0.002422      0.003516      0.001981
      3.46974      0.09695      6.87135         0.004655      0.001711      0.000897
      5.10695      1.73814      8.39442         0.000812     -0.002915     -0.002501
      5.14494      8.46128      1.69183         0.002265      0.005230     -0.001613
      1.84693      1.63713      8.39530        -0.000344     -0.001375      0.002171
      3.42807      6.71001      6.78765         0.002625     -0.004314      0.000619
      1.88308      8.45049      8.54101        -0.000877     -0.002950      0.003069
      4.98874      8.49196      5.11461         0.001723     -0.003018      0.003366
      5.09739      5.09014      8.49494        -0.000027      0.001691      0.002596
      1.70829      5.17433      1.55825         0.001291      0.002717      0.005555
      0.15640      6.94649      3.43661         0.001145      0.003783      0.000349
      5.24302      1.79131      5.07502         0.001739     -0.000168      0.001087
      3.21527      3.41143      3.41660        -0.002259     -0.002202     -0.001947
      0.13988     10.13529      3.39756         0.000226     -0.004527     -0.002013
      5.23447      1.85076      1.80637        -0.004041     -0.005044     -0.000151
      5.18674      5.04413      5.07148        -0.000175      0.002119      0.000599
      6.90304     10.17769     10.18089        -0.000158      0.002109     -0.001697
      0.10801      3.29024      9.96622         0.004039      0.000632     -0.001048
      0.04582      6.79152      6.79520         0.001451      0.000135     -0.002997
      3.35903      0.00799      3.28024         0.001627      0.001049     -0.004563
      5.21397      5.08533      1.72492        -0.000829      0.003260      0.000804
      6.92873     10.18010      6.81456         0.002704      0.001719     -0.000469
 -----------------------------------------------------------------------------------
    total drift:                                0.000293     -0.002630     -0.002579


--------------------------------------------------------------------------------------------------------



  FREE ENERGIE OF THE ION-ELECTRON SYSTEM (eV)
  ---------------------------------------------------
  free  energy   TOTEN  =      -368.48743471 eV

  energy  without entropy=     -368.50433648  energy(sigma->0) =     -368.49306864
 
 d Force = 0.5847144E-04[ 0.415E-04, 0.754E-04]  d Energy = 0.5705626E-04 0.142E-05
 d Force =-0.5723083E+00[-0.573E+00,-0.572E+00]  d Ewald  =-0.1362016E+01 0.790E+00


--------------------------------------------------------------------------------------------------------


    POTLOK:  cpu time    0.0524: real time    0.0525


--------------------------------------------------------------------------------------------------------


 Conjugate gradient step on ions:
 trial-energy change:   -0.000057  1 .order   -0.000068   -0.000092   -0.000044
  (g-gl).g = 0.285E-04      g.g   = 0.285E-04  gl.gl    = 0.758E-04
 g(Force)  = 0.220E-04   g(Stress)= 0.652E-05 ortho     = 0.501E-05
 gamma     =   0.37626
 trial     =   3.03548
 opt step  =   5.86851  (harmonic =   5.86851) maximal distance =0.00141393
 next E    =  -368.487467   (d E  =  -0.00009)


--------------------------------------------------------------------------------------------------------


  
 reached required accuracy - stopping structural energy minimisation
     LOOP+:  cpu time    4.9620: real time    5.6236
    4ORBIT:  cpu time    0.0000: real time    0.0000

 total amount of memory used by VASP on root node    67288. kBytes
========================================================================

   base      :      30000. kBytes
   nonlr-proj:      10698. kBytes
   fftplans  :       2814. kBytes
   grid      :       5360. kBytes
   one-center:        124. kBytes
   wavefun   :      18292. kBytes
 
  
  
 General timing and accounting informations for this job:
 ========================================================
  
                  Total CPU time used (sec):      143.481
                            User time (sec):      142.633
                          System time (sec):        0.848
                         Elapsed time (sec):      169.492
  
                   Maximum memory used (kb):      267732.
                   Average memory used (kb):           0.
  
                          Minor page faults:       101997
                          Major page faults:           33
                 Voluntary context switches:         6765
