       N       E                     dE             d eps       ncg     rms          rms(c)
DAV:   1     0.201742552222E+04    0.20174E+04   -0.11640E+05  5672   0.106E+03
DAV:   2    -0.681955034324E+02   -0.20856E+04   -0.20140E+04  5776   0.396E+02
DAV:   3    -0.339899191797E+03   -0.27170E+03   -0.25764E+03  8768   0.100E+02
DAV:   4    -0.373300672741E+03   -0.33401E+02   -0.31816E+02  8536   0.321E+01
DAV:   5    -0.376617995828E+03   -0.33173E+01   -0.32508E+01  8248   0.101E+01    0.637E+01
RMM:   6    -0.366560622447E+03    0.10057E+02   -0.25594E+01  7329   0.102E+01    0.305E+01
RMM:   7    -0.370349949402E+03   -0.37893E+01   -0.32010E+01  7742   0.872E+00    0.137E+01
RMM:   8    -0.361983386653E+03    0.83666E+01   -0.79127E+00  7502   0.405E+00    0.436E+00
RMM:   9    -0.361781526915E+03    0.20186E+00   -0.31369E+00  7784   0.223E+00    0.306E+00
RMM:  10    -0.361745259321E+03    0.36268E-01   -0.69080E-01  7768   0.126E+00    0.177E+00
RMM:  11    -0.361699878535E+03    0.45381E-01   -0.18995E-01  7658   0.658E-01    0.954E-01
RMM:  12    -0.361691596558E+03    0.82820E-02   -0.76038E-02  7825   0.410E-01    0.480E-01
RMM:  13    -0.361690401284E+03    0.11953E-02   -0.21672E-02  7820   0.220E-01    0.262E-01
RMM:  14    -0.361690591757E+03   -0.19047E-03   -0.10041E-02  7900   0.123E-01    0.147E-01
RMM:  15    -0.361690666131E+03   -0.74374E-04   -0.46340E-03  7923   0.760E-02    0.808E-02
RMM:  16    -0.361690726115E+03   -0.59984E-04   -0.19083E-03  7264   0.426E-02    0.478E-02
RMM:  17    -0.361690736079E+03   -0.99641E-05   -0.82102E-04  6669   0.311E-02    0.216E-02
RMM:  18    -0.361690761374E+03   -0.25295E-04   -0.36346E-04  5687   0.192E-02    0.105E-02
RMM:  19    -0.361690770139E+03   -0.87649E-05   -0.15496E-04  5125   0.148E-02    0.572E-03
RMM:  20    -0.361690773847E+03   -0.37081E-05   -0.73175E-05  4221   0.117E-02
   1 F= -.36169077E+03 E0= -.36169902E+03  d E =-.361691E+03
       N       E                     dE             d eps       ncg     rms          rms(c)
DAV:   1    -0.361704968208E+03   -0.14198E-01   -0.35308E-01  7360   0.216E+00    0.946E-01
RMM:   2    -0.361699740933E+03    0.52273E-02   -0.73274E-02  7762   0.618E-01    0.377E-01
RMM:   3    -0.361695212461E+03    0.45285E-02   -0.15296E-02  7916   0.186E-01    0.253E-01
RMM:   4    -0.361693449026E+03    0.17634E-02   -0.45681E-03  7895   0.137E-01    0.135E-01
RMM:   5    -0.361693139345E+03    0.30968E-03   -0.12125E-03  7796   0.735E-02    0.926E-02
RMM:   6    -0.361693202220E+03   -0.62875E-04   -0.52166E-04  7712   0.361E-02    0.648E-02
RMM:   7    -0.361693243809E+03   -0.41590E-04   -0.19651E-04  6647   0.252E-02    0.324E-02
RMM:   8    -0.361693274164E+03   -0.30354E-04   -0.12932E-04  5361   0.168E-02    0.239E-02
RMM:   9    -0.361693292708E+03   -0.18544E-04   -0.46430E-05  4158   0.133E-02    0.175E-02
RMM:  10    -0.361693312765E+03   -0.20058E-04   -0.28451E-05  3971   0.111E-02    0.847E-03
RMM:  11    -0.361693322651E+03   -0.98859E-05   -0.18817E-05  3684   0.107E-02
   2 F= -.36169332E+03 E0= -.36170148E+03  d E =-.254880E-02
       N       E                     dE             d eps       ncg     rms          rms(c)
DAV:   1    -0.361695295724E+03   -0.19830E-02   -0.54358E-02  7136   0.851E-01    0.371E-01
RMM:   2    -0.361694474989E+03    0.82074E-03   -0.11166E-02  7754   0.243E-01    0.148E-01
RMM:   3    -0.361693768439E+03    0.70655E-03   -0.23061E-03  7913   0.721E-02    0.974E-02
RMM:   4    -0.361693505775E+03    0.26266E-03   -0.68658E-04  7814   0.529E-02    0.515E-02
RMM:   5    -0.361693464797E+03    0.40978E-04   -0.18856E-04  7156   0.290E-02    0.344E-02
RMM:   6    -0.361693479684E+03   -0.14887E-04   -0.71284E-05  4846   0.163E-02    0.264E-02
RMM:   7    -0.361693493287E+03   -0.13603E-04   -0.24689E-05  3574   0.119E-02    0.134E-02
RMM:   8    -0.361693502641E+03   -0.93541E-05   -0.29124E-05  3820   0.111E-02
   3 F= -.36169350E+03 E0= -.36170163E+03  d E =-.272879E-02
       N       E                     dE             d eps       ncg     rms          rms(c)
DAV:   1    -0.361693635650E+03   -0.14236E-03   -0.97803E-03  5336   0.289E-01    0.305E-02
RMM:   2    -0.361693668756E+03   -0.33106E-04   -0.41611E-04  7096   0.583E-02    0.148E-02
RMM:   3    -0.361693664240E+03    0.45153E-05   -0.40000E-05  4168   0.167E-02
   4 F= -.36169366E+03 E0= -.36170178E+03  d E =-.161600E-03
       N       E                     dE             d eps       ncg     rms          rms(c)
DAV:   1    -0.361693751500E+03   -0.82744E-04   -0.88071E-02  5376   0.864E-01    0.945E-02
RMM:   2    -0.361694027195E+03   -0.27570E-03   -0.37676E-03  7231   0.174E-01    0.473E-02
RMM:   3    -0.361693978616E+03    0.48580E-04   -0.46377E-04  7389   0.467E-02    0.344E-02
RMM:   4    -0.361693963997E+03    0.14619E-04   -0.11394E-04  6379   0.177E-02    0.196E-02
RMM:   5    -0.361693962892E+03    0.11045E-05   -0.42094E-05  4065   0.109E-02
   5 F= -.36169396E+03 E0= -.36170204E+03  d E =-.460251E-03
       N       E                     dE             d eps       ncg     rms          rms(c)
DAV:   1    -0.361692998132E+03    0.96586E-03   -0.35138E-01  5360   0.173E+00    0.184E-01
RMM:   2    -0.361694129896E+03   -0.11318E-02   -0.14868E-02  7233   0.348E-01    0.924E-02
RMM:   3    -0.361693932767E+03    0.19713E-03   -0.17623E-03  7662   0.928E-02    0.669E-02
RMM:   4    -0.361693873535E+03    0.59232E-04   -0.42350E-04  7747   0.336E-02    0.383E-02
RMM:   5    -0.361693867593E+03    0.59420E-05   -0.17453E-04  6882   0.221E-02    0.211E-02
RMM:   6    -0.361693868927E+03   -0.13340E-05   -0.65319E-05  4727   0.142E-02
   6 F= -.36169387E+03 E0= -.36170187E+03  d E =-.366286E-03
       N       E                     dE             d eps       ncg     rms          rms(c)
DAV:   1    -0.361693750730E+03    0.11686E-03   -0.12911E-01  5376   0.105E+00    0.112E-01
RMM:   2    -0.361694163890E+03   -0.41316E-03   -0.53773E-03  6845   0.211E-01    0.548E-02
RMM:   3    -0.361694075250E+03    0.88640E-04   -0.55280E-04  7467   0.589E-02    0.399E-02
RMM:   4    -0.361694049072E+03    0.26178E-04   -0.11661E-04  6480   0.195E-02    0.218E-02
RMM:   5    -0.361694044721E+03    0.43511E-05   -0.42145E-05  4505   0.114E-02
   7 F= -.36169404E+03 E0= -.36170209E+03  d E =-.542080E-03
       N       E                     dE             d eps       ncg     rms          rms(c)
DAV:   1    -0.361694136015E+03   -0.86942E-04   -0.10500E-02  5600   0.329E-01    0.795E-02
RMM:   2    -0.361694125680E+03    0.10334E-04   -0.77633E-04  6923   0.779E-02    0.279E-02
RMM:   3    -0.361694111701E+03    0.13979E-04   -0.98287E-05  6325   0.249E-02    0.219E-02
RMM:   4    -0.361694097456E+03    0.14246E-04   -0.26550E-05  3382   0.139E-02    0.148E-02
RMM:   5    -0.361694094884E+03    0.25715E-05   -0.93850E-06  2748   0.106E-02
   8 F= -.36169409E+03 E0= -.36170215E+03  d E =-.501632E-04
       N       E                     dE             d eps       ncg     rms          rms(c)
DAV:   1    -0.361694168980E+03   -0.71524E-04   -0.17289E-02  5488   0.421E-01    0.100E-01
RMM:   2    -0.361694162491E+03    0.64886E-05   -0.13131E-03  7212   0.990E-02    0.364E-02
RMM:   3    -0.361694130640E+03    0.31851E-04   -0.18071E-04  6915   0.300E-02    0.291E-02
RMM:   4    -0.361694105702E+03    0.24938E-04   -0.50018E-05  4893   0.158E-02    0.169E-02
RMM:   5    -0.361694100916E+03    0.47854E-05   -0.14491E-05  2954   0.112E-02
   9 F= -.36169410E+03 E0= -.36170216E+03  d E =-.561952E-04
