 vasp.5.4.1 05Feb16 (build Jan 29 2020 16:04:39) complex                        
  
 executed on           IFC91_ompi date 2020.06.08  00:38:28
 running on  160 total cores
 distrk:  each k-point on   20 cores,    8 groups
 distr:  one band on NCORES_PER_BAND=   5 cores,    4 groups


--------------------------------------------------------------------------------------------------------


 INCAR:
 POTCAR:    PAW_PBE Hf 20Jan2003                  
 POTCAR:    PAW_PBE Nb_sv 25May2007               
 POTCAR:    PAW_PBE Ta 17Jan2003                  
 POTCAR:    PAW_PBE Zr_sv 04Jan2005               

 ----------------------------------------------------------------------------- 
|                                                                             |
|           W    W    AA    RRRRR   N    N  II  N    N   GGGG   !!!           |
|           W    W   A  A   R    R  NN   N  II  NN   N  G    G  !!!           |
|           W    W  A    A  R    R  N N  N  II  N N  N  G       !!!           |
|           W WW W  AAAAAA  RRRRR   N  N N  II  N  N N  G  GGG   !            |
|           WW  WW  A    A  R   R   N   NN  II  N   NN  G    G                |
|           W    W  A    A  R    R  N    N  II  N    N   GGGG   !!!           |
|                                                                             |
|      For optimal performance we recommend to set                            |
|        NCORE= 4 - approx SQRT( number of cores)                             |
|      NCORE specifies how many cores store one orbital (NPAR=cpu/NCORE).     |
|      This setting can  greatly improve the performance of VASP for DFT.     |
|      The default, NPAR=number of cores might be grossly inefficient         |
|      on modern multi-core architectures or massively parallel machines.     |
|      Do your own testing !!!!                                               |
|      Unfortunately you need to use the default for GW and RPA calculations. |
|      (for HF NCORE is supported but not extensively tested yet)             |
|                                                                             |
 ----------------------------------------------------------------------------- 


 ----------------------------------------------------------------------------- 
|                                                                             |
|           W    W    AA    RRRRR   N    N  II  N    N   GGGG   !!!           |
|           W    W   A  A   R    R  NN   N  II  NN   N  G    G  !!!           |
|           W    W  A    A  R    R  N N  N  II  N N  N  G       !!!           |
|           W WW W  AAAAAA  RRRRR   N  N N  II  N  N N  G  GGG   !            |
|           WW  WW  A    A  R   R   N   NN  II  N   NN  G    G                |
|           W    W  A    A  R    R  N    N  II  N    N   GGGG   !!!           |
|                                                                             |
|      You have enabled k-point parallelism (KPAR>1).                         |
|      This developmental code was originally  written by Paul Kent at ORNL,  |
|      and carefully double checked in Vienna.                                |
|      GW as well as linear response parallelism added by Martijn Marsman     |
|      and Georg Kresse.                                                      |
|      Carefully verify results versus KPAR=1.                                |
|      Report problems to Paul Kent and Vienna.                               |
|                                                                             |
 ----------------------------------------------------------------------------- 

 POTCAR:    PAW_PBE Hf 20Jan2003                  
   VRHFIN =Hf: 6s5d                                                             
   LEXCH  = PE                                                                  
   EATOM  =    75.9011 eV,    5.5786 Ry                                         
                                                                                
   TITEL  = PAW_PBE Hf 20Jan2003                                                
   LULTRA =        F    use ultrasoft PP ?                                      
   IUNSCR =        1    unscreen: 0-lin 1-nonlin 2-no                           
   RPACOR =    2.500    partial core radius                                     
   POMASS =  178.490; ZVAL   =    4.000    mass and valenz                      
   RCORE  =    3.000    outmost cutoff radius                                   
   RWIGS  =    3.050; RWIGS  =    1.614    wigner-seitz radius (au A)           
   ENMAX  =  220.334; ENMIN  =  165.250 eV                                      
   RCLOC  =    2.212    cutoff for local pot                                    
   LCOR   =        T    correct aug charges                                     
   LPAW   =        T    paw PP                                                  
   EAUG   =  335.116                                                            
   DEXC   =    0.000                                                            
   RMAX   =    3.077    core radius for proj-oper                               
   RAUG   =    1.300    factor for augmentation sphere                          
   RDEP   =    3.047    radius for radial grids                                 
   RDEPT  =    2.344    core radius for aug-charge                              
                                                                                
   Atomic configuration                                                         
   16 entries                                                                   
     n  l   j            E        occ.                                          
     1  0  0.50    -65259.4397   2.0000                                         
     2  0  0.50    -11157.9882   2.0000                                         
     2  1  1.50     -9795.2113   6.0000                                         
     3  0  0.50     -2541.4058   2.0000                                         
     3  1  1.50     -2134.4770   6.0000                                         
     3  2  2.50     -1653.5418  10.0000                                         
     4  0  0.50      -510.9575   2.0000                                         
     4  1  1.50      -377.5023   6.0000                                         
     4  2  2.50      -205.2085  10.0000                                         
     4  3  3.50       -15.4905  14.0000                                         
     5  0  0.50       -65.6020   2.0000                                         
     5  1  1.50       -34.2798   6.0000                                         
     5  2  2.50        -1.9877   3.0000                                         
     6  0  0.50        -4.7357   1.0000                                         
     6  1  1.50        -1.3606   0.0000                                         
     5  3  2.50        -1.3606   0.0000                                         
   Description                                                                  
     l       E           TYP  RCUT    TYP  RCUT                                 
     2     -1.9876627     23  2.500                                             
     2      0.0744703     23  2.500                                             
     0     -4.7356889     23  2.600                                             
     0      3.2364747     23  2.600                                             
     1     -1.3605826     23  3.000                                             
     1     27.2116520     23  3.000                                             
  local pseudopotential read in
  partial core-charges read in
  partial kinetic energy density read in
  atomic valenz-charges read in
  non local Contribution for L=           2  read in
    real space projection operators read in
  non local Contribution for L=           2  read in
    real space projection operators read in
  non local Contribution for L=           0  read in
    real space projection operators read in
  non local Contribution for L=           0  read in
    real space projection operators read in
  non local Contribution for L=           1  read in
    real space projection operators read in
  non local Contribution for L=           1  read in
    real space projection operators read in
    PAW grid and wavefunctions read in
 
   number of l-projection  operators is LMAX  =           6
   number of lm-projection operators is LMMAX =          18
 
 POTCAR:    PAW_PBE Nb_sv 25May2007               
   VRHFIN =Nb: 4p5s4d                                                           
   LEXCH  = PE                                                                  
   EATOM  =  1555.1913 eV,  114.3033 Ry                                         
                                                                                
   TITEL  = PAW_PBE Nb_sv 25May2007                                             
   LULTRA =        F    use ultrasoft PP ?                                      
   IUNSCR =        1    unscreen: 0-lin 1-nonlin 2-no                           
   RPACOR =    1.800    partial core radius                                     
   POMASS =   92.910; ZVAL   =   13.000    mass and valenz                      
   RCORE  =    2.400    outmost cutoff radius                                   
   RWIGS  =    2.400; RWIGS  =    1.270    wigner-seitz radius (au A)           
   ENMAX  =  293.235; ENMIN  =  219.927 eV                                      
   ICORE  =        3    local potential                                         
   LCOR   =        T    correct aug charges                                     
   LPAW   =        T    paw PP                                                  
   EAUG   =  455.659                                                            
   DEXC   =    0.000                                                            
   RMAX   =    2.456    core radius for proj-oper                               
   RAUG   =    1.300    factor for augmentation sphere                          
   RDEP   =    2.451    radius for radial grids                                 
   RDEPT  =    1.956    core radius for aug-charge                              
                                                                                
   Atomic configuration                                                         
   11 entries                                                                   
     n  l   j            E        occ.                                          
     1  0  0.50    -18805.2457   2.0000                                         
     2  0  0.50     -2630.2869   2.0000                                         
     2  1  1.50     -2348.4046   6.0000                                         
     3  0  0.50      -438.8757   2.0000                                         
     3  1  1.50      -346.7588   6.0000                                         
     3  2  2.50      -196.2560  10.0000                                         
     4  0  0.50       -58.3859   2.0000                                         
     5  0  0.50        -3.9816   1.0000                                         
     4  1  1.50       -34.5141   6.0000                                         
     4  2  2.50        -3.0408   4.0000                                         
     4  3  2.50        -1.3606   0.0000                                         
   Description                                                                  
     l       E           TYP  RCUT    TYP  RCUT                                 
     0    -58.3859094     23  2.200                                             
     0     -3.9816262     23  2.200                                             
     1    -34.5140738     23  2.200                                             
     1     13.6058260     23  2.200                                             
     2     -3.0408010     23  2.200                                             
     2     -0.1283038     23  2.200                                             
     3     -1.3605826     23  2.400                                             
  local pseudopotential read in
  partial core-charges read in
  partial kinetic energy density read in
  atomic valenz-charges read in
  non local Contribution for L=           0  read in
    real space projection operators read in
  non local Contribution for L=           0  read in
    real space projection operators read in
  non local Contribution for L=           1  read in
    real space projection operators read in
  non local Contribution for L=           1  read in
    real space projection operators read in
  non local Contribution for L=           2  read in
    real space projection operators read in
  non local Contribution for L=           2  read in
    real space projection operators read in
    PAW grid and wavefunctions read in
 
   number of l-projection  operators is LMAX  =           6
   number of lm-projection operators is LMMAX =          18
 
 POTCAR:    PAW_PBE Ta 17Jan2003                  
   VRHFIN =Ta:  6s5d                                                            
   LEXCH  = PE                                                                  
   EATOM  =   130.6506 eV,    9.6025 Ry                                         
                                                                                
   TITEL  = PAW_PBE Ta 17Jan2003                                                
   LULTRA =        F    use ultrasoft PP ?                                      
   IUNSCR =        1    unscreen: 0-lin 1-nonlin 2-no                           
   RPACOR =    2.330    partial core radius                                     
   POMASS =  180.948; ZVAL   =    5.000    mass and valenz                      
   RCORE  =    2.900    outmost cutoff radius                                   
   RWIGS  =    2.840; RWIGS  =    1.503    wigner-seitz radius (au A)           
   ENMAX  =  223.667; ENMIN  =  167.750 eV                                      
   RCLOC  =    2.205    cutoff for local pot                                    
   LCOR   =        T    correct aug charges                                     
   LPAW   =        T    paw PP                                                  
   EAUG   =  332.075                                                            
   DEXC   =    0.000                                                            
   RMAX   =    2.970    core radius for proj-oper                               
   RAUG   =    1.300    factor for augmentation sphere                          
   RDEP   =    3.060    radius for radial grids                                 
   RDEPT  =    2.354    core radius for aug-charge                              
                                                                                
   Atomic configuration                                                         
   16 entries                                                                   
     n  l   j            E        occ.                                          
     1  0  0.50    -67341.2807   2.0000                                         
     2  0  0.50    -11566.9376   2.0000                                         
     2  1  1.50    -10134.1182   6.0000                                         
     3  0  0.50     -2648.5620   2.0000                                         
     3  1  1.50     -2222.6012   6.0000                                         
     3  2  2.50     -1726.3120  10.0000                                         
     4  0  0.50      -538.6961   2.0000                                         
     4  1  1.50      -399.0129   6.0000                                         
     4  2  2.50      -220.3959  10.0000                                         
     4  3  3.50       -23.0374  14.0000                                         
     5  0  0.50       -71.2901   2.0000                                         
     5  1  1.50       -37.8225   6.0000                                         
     5  2  2.50        -2.6455   4.0000                                         
     6  0  0.50        -4.9623   1.0000                                         
     6  1  1.50        -1.3606   0.0000                                         
     5  3  2.50        -1.3606   0.0000                                         
   Description                                                                  
     l       E           TYP  RCUT    TYP  RCUT                                 
     2     -2.6455043     23  2.500                                             
     2     -0.6258895     23  2.500                                             
     0     -4.9622780     23  2.500                                             
     0      4.7531321     23  2.500                                             
     1     -1.3605826     23  2.900                                             
     1     27.2116520     23  2.900                                             
  local pseudopotential read in
  partial core-charges read in
  partial kinetic energy density read in
  atomic valenz-charges read in
  non local Contribution for L=           2  read in
    real space projection operators read in
  non local Contribution for L=           2  read in
    real space projection operators read in
  non local Contribution for L=           0  read in
    real space projection operators read in
  non local Contribution for L=           0  read in
    real space projection operators read in
  non local Contribution for L=           1  read in
    real space projection operators read in
  non local Contribution for L=           1  read in
    real space projection operators read in
    PAW grid and wavefunctions read in
 
   number of l-projection  operators is LMAX  =           6
   number of lm-projection operators is LMMAX =          18
 
 POTCAR:    PAW_PBE Zr_sv 04Jan2005               
   VRHFIN =Zr: 4s4p5s4d                                                         
   LEXCH  = PE                                                                  
   EATOM  =  1284.2219 eV,   94.3876 Ry                                         
                                                                                
   TITEL  = PAW_PBE Zr_sv 04Jan2005                                             
   LULTRA =        F    use ultrasoft PP ?                                      
   IUNSCR =        1    unscreen: 0-lin 1-nonlin 2-no                           
   RPACOR =    2.200    partial core radius                                     
   POMASS =   91.224; ZVAL   =   12.000    mass and valenz                      
   RCORE  =    2.500    outmost cutoff radius                                   
   RWIGS  =    3.070; RWIGS  =    1.625    wigner-seitz radius (au A)           
   ENMAX  =  229.898; ENMIN  =  172.424 eV                                      
   ICORE  =        3    local potential                                         
   LCOR   =        T    correct aug charges                                     
   LPAW   =        T    paw PP                                                  
   EAUG   =  461.257                                                            
   DEXC   =    0.000                                                            
   RMAX   =    2.561    core radius for proj-oper                               
   RAUG   =    1.300    factor for augmentation sphere                          
   RDEP   =    2.597    radius for radial grids                                 
   RDEPT  =    2.007    core radius for aug-charge                              
                                                                                
   Atomic configuration                                                         
   11 entries                                                                   
     n  l   j            E        occ.                                          
     1  0  0.50    -17820.0161   2.0000                                         
     2  0  0.50     -2467.0882   2.0000                                         
     2  1  1.50     -2199.6095   6.0000                                         
     3  0  0.50      -402.4863   2.0000                                         
     3  1  1.50      -315.3675   6.0000                                         
     3  2  2.50      -172.4472  10.0000                                         
     4  0  0.50       -52.4146   2.0000                                         
     5  0  0.50        -3.8421   1.0000                                         
     4  1  1.50       -30.5054   6.0000                                         
     4  2  2.50        -2.3341   3.0000                                         
     4  3  2.50        -1.3606   0.0000                                         
   Description                                                                  
     l       E           TYP  RCUT    TYP  RCUT                                 
     0    -52.4145962     23  2.200                                             
     0     -3.8421270     23  2.500                                             
     1    -30.5053914     23  2.200                                             
     1     20.4087390     23  2.200                                             
     2     -2.3340816     23  2.500                                             
     2     -0.6120942     23  2.500                                             
     3     -4.0817478     23  2.500                                             
  local pseudopotential read in
  partial core-charges read in
  partial kinetic energy density read in
  atomic valenz-charges read in
  non local Contribution for L=           0  read in
    real space projection operators read in
  non local Contribution for L=           0  read in
    real space projection operators read in
  non local Contribution for L=           1  read in
    real space projection operators read in
  non local Contribution for L=           1  read in
    real space projection operators read in
  non local Contribution for L=           2  read in
    real space projection operators read in
  non local Contribution for L=           2  read in
    real space projection operators read in
    PAW grid and wavefunctions read in
 
   number of l-projection  operators is LMAX  =           6
   number of lm-projection operators is LMMAX =          18
 
 Optimization of the real space projectors (new method)

 maximal supplied QI-value         = 12.47
 optimisation between [QCUT,QGAM] = [  8.86, 17.71] = [ 21.96, 87.83] Ry 
 Optimized for a Real-space Cutoff    1.90 Angstroem

   l    n(q)    QCUT    max X(q) W(low)/X(q) W(high)/X(q)  e(spline) 
   2      9     8.855    48.111    0.22E-03    0.80E-04    0.10E-05
   2      9     8.855    40.545    0.21E-03    0.76E-04    0.95E-06
   0     10     8.855   121.658    0.27E-04    0.12E-04    0.11E-06
   0     10     8.855    71.177    0.22E-04    0.11E-04    0.99E-07
   1     10     8.855    14.183    0.65E-04    0.10E-03    0.98E-07
   1     10     8.855     8.257    0.43E-04    0.73E-04    0.72E-07
 Optimization of the real space projectors (new method)

 maximal supplied QI-value         = 15.68
 optimisation between [QCUT,QGAM] = [  8.78, 17.72] = [ 21.60, 87.97] Ry 
 Optimized for a Real-space Cutoff    1.96 Angstroem

   l    n(q)    QCUT    max X(q) W(low)/X(q) W(high)/X(q)  e(spline) 
   0     10     8.783    10.201    0.29E-04    0.25E-05    0.69E-07
   0     10     8.783     8.174    0.45E-04    0.57E-05    0.14E-06
   1     10     8.783     3.488    0.76E-05    0.24E-04    0.95E-07
   1     10     8.783     4.917    0.78E-04    0.14E-03    0.46E-06
   2      9     8.783   153.744    0.22E-03    0.34E-04    0.15E-05
   2      9     8.783   126.342    0.22E-03    0.35E-04    0.15E-05
 Optimization of the real space projectors (new method)

 maximal supplied QI-value         = 12.85
 optimisation between [QCUT,QGAM] = [  8.87, 17.73] = [ 22.01, 88.06] Ry 
 Optimized for a Real-space Cutoff    1.90 Angstroem

   l    n(q)    QCUT    max X(q) W(low)/X(q) W(high)/X(q)  e(spline) 
   2      9     8.867    62.315    0.23E-03    0.62E-04    0.11E-05
   2      9     8.867    52.185    0.23E-03    0.62E-04    0.11E-05
   0     10     8.867   103.837    0.15E-04    0.23E-04    0.98E-07
   0     10     8.867    59.728    0.12E-04    0.21E-04    0.89E-07
   1     10     8.867    13.958    0.50E-04    0.22E-04    0.14E-06
   1     10     8.867     8.441    0.36E-04    0.19E-04    0.98E-07
 Optimization of the real space projectors (new method)

 maximal supplied QI-value         = 15.12
 optimisation between [QCUT,QGAM] = [  8.77, 17.69] = [ 21.53, 87.61] Ry 
 Optimized for a Real-space Cutoff    1.74 Angstroem

   l    n(q)    QCUT    max X(q) W(low)/X(q) W(high)/X(q)  e(spline) 
   0      9     8.768    12.107    0.28E-04    0.53E-06    0.29E-07
   0      9     8.768     9.948    0.36E-04    0.50E-05    0.64E-07
   1      9     8.768     3.563    0.14E-04    0.16E-04    0.88E-07
   1      9     8.768     4.524    0.21E-03    0.33E-03    0.19E-06
   2      8     8.768    87.261    0.19E-03    0.25E-03    0.24E-06
   2      8     8.768    70.950    0.19E-03    0.24E-03    0.24E-06
  PAW_PBE Hf 20Jan2003                  :
 energy of atom  1       EATOM=  -75.9011
 kinetic energy error for atom=    0.0071 (will be added to EATOM!!)
  PAW_PBE Nb_sv 25May2007               :
 energy of atom  2       EATOM=-1555.1913
 kinetic energy error for atom=    0.0655 (will be added to EATOM!!)
  PAW_PBE Ta 17Jan2003                  :
 energy of atom  3       EATOM= -130.6506
 kinetic energy error for atom=    0.0121 (will be added to EATOM!!)
  PAW_PBE Zr_sv 04Jan2005               :
 energy of atom  4       EATOM=-1284.2219
 kinetic energy error for atom=    0.0483 (will be added to EATOM!!)
 
 
 POSCAR: generated by pypospack                  
  positions in direct lattice
  velocities in cartesian coordinates
 exchange correlation table for  LEXCH =        8
   RHO(1)=    0.500       N(1)  =     2000
   RHO(2)=  100.500       N(2)  =     4000
 


--------------------------------------------------------------------------------------------------------


 ion  position               nearest neighbor table
   1  0.014  0.989  0.000-  23 2.88  27 2.93  15 2.96  36 3.01  28 3.06   7 3.09   2 3.11   5 3.17
                            22 3.27  31 3.33  10 3.44  29 3.59  31 3.59
   2  0.242  0.176  0.184-  10 2.92  19 3.01   6 3.01  25 3.03  29 3.07  32 3.11   1 3.11  11 3.14
                            31 3.16  30 3.29   5 3.35   5 3.56  23 3.62  28 3.72
   3  0.007  0.332  0.660-  20 2.96  11 2.97  16 3.00  26 3.01  21 3.05   8 3.07  19 3.12   7 3.14
                            28 3.18  12 3.29  29 3.31  33 3.37  14 3.38  33 3.53
   4  0.238  0.832  0.502-  17 2.93  14 2.93  12 2.94  18 2.97  10 3.01  13 3.02   6 3.06   9 3.08
                            15 3.24  23 3.27  35 3.30  20 3.33  11 3.40  35 3.61
   5  0.756  0.182  0.168-  19 2.96  10 2.99  25 2.99  32 3.08  29 3.09   6 3.10  31 3.15   1 3.17
                            24 3.19  16 3.35   2 3.35   7 3.46   2 3.56  27 3.71
   6  0.506  0.992  0.329-  16 2.96  11 2.99   2 3.01  35 3.03  23 3.05  27 3.06   4 3.06   5 3.10
                            31 3.17  17 3.22   9 3.35  10 3.35  25 3.59
   7  0.739  0.156  0.832-  12 2.94  17 2.97  33 3.08   1 3.09  29 3.10  32 3.12   3 3.14  28 3.16
                            31 3.16  36 3.31   5 3.46   8 3.66  28 3.75
   8  0.755  0.512  0.828-  14 2.85  18 2.94  22 2.95  29 3.02  34 3.06  32 3.07   3 3.07  33 3.08
                            36 3.32  26 3.35  21 3.37  21 3.54  24 3.55   7 3.66
   9  0.507  0.667  0.329-  26 2.95  24 2.97  27 2.98  30 3.00  20 3.00  23 3.00  35 3.05   4 3.08
                            34 3.28  13 3.32   6 3.35  25 3.35  18 3.42
  10  0.991  0.005  0.334-  16 2.82  23 2.84  27 2.87  11 2.87   2 2.92  35 2.98   5 2.99   4 3.01
                             6 3.35   1 3.44
  11  0.247  0.162  0.490-  17 2.83  10 2.87  12 2.89  19 2.89   3 2.97  25 2.98   6 2.99  33 3.01
                             2 3.14   4 3.40  28 3.44
  12  0.009  0.012  0.664-  28 2.85  11 2.89  16 2.93   7 2.94   4 2.94  15 2.96  35 2.97  36 3.03
                             3 3.29
  13  0.988  0.657  0.336-  27 2.77  23 2.78  26 2.83  24 2.84  30 2.86  20 2.87  35 2.98   4 3.02
                            19 3.30   9 3.32
  14  0.008  0.661  0.669-  21 2.68  15 2.80   8 2.85  20 2.87  26 2.92   4 2.93  35 2.97  36 2.97
                             3 3.38
  15  0.244  0.827  0.818-  14 2.80  18 2.89  12 2.96   1 2.96  22 2.99  34 3.08  31 3.11  21 3.12
                             4 3.24  28 3.29  36 3.41
  16  0.754  0.162  0.493-  19 2.78  17 2.82  10 2.82  25 2.90  12 2.93   6 2.96   3 3.00  33 3.04
                             5 3.35  35 3.39
  17  0.500  0.008  0.641-  28 2.79  16 2.82  11 2.83  35 2.88   4 2.93   7 2.97  36 3.11   6 3.22
                            33 3.38
  18  0.487  0.659  0.662-  21 2.76  20 2.84  15 2.89  26 2.91   8 2.94   4 2.97  36 3.05  35 3.05
                            33 3.31   9 3.42
  19  0.985  0.337  0.357-  16 2.78  26 2.80  20 2.88  11 2.89  24 2.93   5 2.96  30 2.99   2 3.01
                             3 3.12  25 3.27  13 3.30
  20  0.244  0.508  0.497-  18 2.84  14 2.87  13 2.87  19 2.88  25 2.95   3 2.96  33 2.97   9 3.00
                            30 3.26   4 3.33  21 3.36  26 3.40  26 3.50
  21  0.242  0.523  0.824-  14 2.68  18 2.76  22 2.88  29 2.94  34 3.00  32 3.03   3 3.05  33 3.11
                            15 3.12  20 3.36   8 3.37   8 3.54  30 3.67
  22  0.003  0.671  0.001-  27 2.79  23 2.84  21 2.88   8 2.95  15 2.99  30 3.03  36 3.05  24 3.06
                             1 3.27  34 3.40  29 3.43  34 3.51
  23  0.210  0.824  0.185-  13 2.78  10 2.84  22 2.84   1 2.88  27 2.93   9 3.00  31 3.04   6 3.05
                            34 3.09   4 3.27  30 3.39   2 3.62
  24  0.760  0.493  0.174-  13 2.84  19 2.93  25 2.93   9 2.97  32 3.03  22 3.06  34 3.09  29 3.11
                             5 3.19  30 3.27  26 3.38  27 3.39   8 3.55  30 3.63
  25  0.511  0.342  0.348-  26 2.85  16 2.90  24 2.93  20 2.95  11 2.98   5 2.99  30 3.02   2 3.03
                            33 3.18  19 3.27   9 3.35   6 3.59  32 3.62
  26  0.751  0.507  0.502-  19 2.80  13 2.83  25 2.85  18 2.91  14 2.92   9 2.95  33 2.96   3 3.01
                             8 3.35  35 3.35  24 3.38  20 3.40  20 3.50
  27  0.786  0.822  0.173-  13 2.77  22 2.79  10 2.87   1 2.93  23 2.93   9 2.98  31 3.01  34 3.03
                             6 3.06  24 3.39  35 3.45  36 3.61   5 3.71
  28  0.282  0.146  0.824-  17 2.79  12 2.85  33 3.00  31 3.04  32 3.04   1 3.06  29 3.12   7 3.16
                             3 3.18  15 3.29  11 3.44   2 3.72   7 3.75
  29  0.021  0.338  0.982-  21 2.94  30 2.98   8 3.02   2 3.07   5 3.09   7 3.10  24 3.11  28 3.12
                            32 3.20   3 3.31  22 3.43   1 3.59  32 3.72
  30  0.234  0.495  0.180-  13 2.86  29 2.98  32 2.98  19 2.99   9 3.00  25 3.02  22 3.03  34 3.10
                            20 3.26  24 3.27   2 3.29  23 3.39  24 3.63  21 3.67
  31  0.495  0.978  0.020-  27 3.01  28 3.04  23 3.04  36 3.07  15 3.11   5 3.15  34 3.15   2 3.16
                             7 3.16   6 3.17   1 3.33   1 3.59  32 3.79
  32  0.484  0.346  0.996-  30 2.98  24 3.03  21 3.03  28 3.04   8 3.07   5 3.08   2 3.11   7 3.12
                            29 3.20  34 3.35  33 3.48  25 3.62  29 3.72  31 3.79
  33  0.496  0.337  0.657-  26 2.96  20 2.97  28 3.00  11 3.01  16 3.04   7 3.08   8 3.08  21 3.11
                            25 3.18  18 3.31   3 3.37  17 3.38  32 3.48   3 3.53
  34  0.495  0.672  0.010-  21 3.00  27 3.03   8 3.06  15 3.08  24 3.09  23 3.09  30 3.10  36 3.11
                            31 3.15   9 3.28  32 3.35  22 3.40  22 3.51
  35  0.760  0.833  0.508-  17 2.88  14 2.97  12 2.97  10 2.98  13 2.98   6 3.03  18 3.05   9 3.05
                            36 3.23   4 3.30  26 3.35  16 3.39  27 3.45   4 3.61
  36  0.751  0.835  0.822-  14 2.97   1 3.01  12 3.03  22 3.05  18 3.05  31 3.07  17 3.11  34 3.11
                            35 3.23   7 3.31   8 3.32  15 3.41  27 3.61
 
  LATTYP: Found a triclinic cell.
 ALAT       =    12.3864116533
 B/A-ratio  =     0.5573488898
 C/A-ratio  =     0.8299372836
 COS(alpha) =     0.0002760364
 COS(beta)  =     0.0043175256
 COS(gamma) =     0.5589943059
  
  Lattice vectors:
  
 A1 = (  -6.9136991354,  -0.0266038530,  10.2773172640)
 A2 = (  -6.9035493006,  -0.0009078026,   0.0068747501)
 A3 = (  -0.0014600613, -10.2799121116,   0.0258995485)


Analysis of symmetry for initial positions (statically):
=====================================================================
 Subroutine PRICEL returns:
 Original cell was already a primitive cell.
 

 Routine SETGRP: Setting up the symmetry group for a 
 triclinic supercell.


 Subroutine GETGRP returns: Found  1 space group operations
 (whereof  1 operations were pure point group operations)
 out of a pool of  2 trial point group operations.


The static configuration has the point symmetry C_1 .


Analysis of symmetry for dynamics (positions and initial velocities):
=====================================================================
 Subroutine PRICEL returns:
 Original cell was already a primitive cell.
 

 Routine SETGRP: Setting up the symmetry group for a 
 triclinic supercell.


 Subroutine GETGRP returns: Found  1 space group operations
 (whereof  1 operations were pure point group operations)
 out of a pool of  2 trial point group operations.


The dynamic configuration has the point symmetry C_1 .


 Subroutine INISYM returns: Found  1 space group operations
 (whereof  1 operations are pure point group operations),
 and found     1 'primitive' translations

 
 
 KPOINTS: k-points                                

Automatic generation of k-mesh.
Space group operators:
 irot       det(A)        alpha          n_x          n_y          n_z        tau_x        tau_y        tau_z
    1     1.000000     0.000000     1.000000     0.000000     0.000000     0.000000     0.000000     0.000000
 
 Subroutine IBZKPT returns following result:
 ===========================================
 
 Found     14 irreducible k-points:
 
 Following reciprocal coordinates:
            Coordinates               Weight
  0.000000  0.000000  0.000000      1.000000
  0.333333  0.000000 -0.000000      2.000000
 -0.000000  0.333333 -0.000000      2.000000
  0.333333  0.333333 -0.000000      2.000000
 -0.333333  0.333333  0.000000      2.000000
 -0.000000  0.000000  0.333333      2.000000
  0.333333  0.000000  0.333333      2.000000
 -0.333333  0.000000  0.333333      2.000000
 -0.000000  0.333333  0.333333      2.000000
  0.333333  0.333333  0.333333      2.000000
 -0.333333  0.333333  0.333333      2.000000
 -0.000000 -0.333333  0.333333      2.000000
  0.333333 -0.333333  0.333333      2.000000
 -0.333333 -0.333333  0.333333      2.000000
 
 Following cartesian coordinates:
            Coordinates               Weight
  0.000000  0.000000  0.000000      1.000000
  0.240858 -0.000034  0.000238      2.000000
 -0.000021  0.161750  0.000405      2.000000
  0.240837  0.161717  0.000643      2.000000
 -0.240878  0.161784  0.000167      2.000000
  0.000161  0.000408  0.161900      2.000000
  0.241019  0.000374  0.162138      2.000000
 -0.240696  0.000441  0.161662      2.000000
  0.000140  0.162158  0.162304      2.000000
  0.240998  0.162125  0.162542      2.000000
 -0.240717  0.162192  0.162066      2.000000
  0.000182 -0.161343  0.161495      2.000000
  0.241040 -0.161376  0.161733      2.000000
 -0.240675 -0.161309  0.161257      2.000000
 


--------------------------------------------------------------------------------------------------------




 Dimension of arrays:
   k-points           NKPTS =     14   k-points in BZ     NKDIM =     14   number of bands    NBANDS=    184
   number of dos      NEDOS =    301   number of ions     NIONS =     36
   non local maximal  LDIM  =      6   non local SUM 2l+1 LMDIM =     18
   total plane-waves  NPLWV = 144000
   max r-space proj   IRMAX =   6286   max aug-charges    IRDMAX=  13647
   dimension x,y,z NGX =    40 NGY =   60 NGZ =   60
   dimension x,y,z NGXF=    80 NGYF=  120 NGZF=  120
   support grid    NGXF=    80 NGYF=  120 NGZF=  120
   ions per type =               9   9   9   9
 NGX,Y,Z   is equivalent  to a cutoff of   9.63,  9.70,  9.71 a.u.
 NGXF,Y,Z  is equivalent  to a cutoff of  19.26, 19.41, 19.42 a.u.


 I would recommend the setting:
   dimension x,y,z NGX =    39 NGY =   58 NGZ =   58
 SYSTEM =  automatically generated by mexm         
 POSCAR =  generated by pypospack                  

 Startparameter for this run:
   NWRITE =      2    write-flag & timer
   PREC   = accura    normal or accurate (medium, high low for compatibility)
   ISTART =      0    job   : 0-new  1-cont  2-samecut
   ICHARG =      2    charge: 1-file 2-atom 10-const
   ISPIN  =      1    spin polarized calculation?
   LNONCOLLINEAR =      F non collinear calculations
   LSORBIT =      F    spin-orbit coupling
   INIWAV =      1    electr: 0-lowe 1-rand  2-diag
   LASPH  =      F    aspherical Exc in radial PAW
   METAGGA=      F    non-selfconsistent MetaGGA calc.

 Electronic Relaxation 1
   ENCUT  =  300.0 eV  22.05 Ry    4.70 a.u.   9.75 14.52 14.50*2*pi/ulx,y,z
   ENINI  =  300.0     initial cutoff
   ENAUG  =  461.3 eV  augmentation charge cutoff
   NELM   =     70;   NELMIN=  2; NELMDL= -5     # of ELM steps 
   EDIFF  = 0.1E-04   stopping-criterion for ELM
   LREAL  =      T    real-space projection
   NLSPLINE    = F    spline interpolate recip. space projectors
   LCOMPAT=      F    compatible to vasp.4.4
   GGA_COMPAT  = T    GGA compatible to vasp.4.4-vasp.4.6
   LMAXPAW     = -100 max onsite density
   LMAXMIX     =    2 max onsite mixed and CHGCAR
   VOSKOWN=      0    Vosko Wilk Nusair interpolation
   ROPT   =   -0.00025  -0.00025  -0.00025  -0.00025
 Ionic relaxation
   EDIFFG = -.1E-01   stopping-criterion for IOM
   NSW    =    300    number of steps for IOM
   NBLOCK =      1;   KBLOCK =    300    inner block; outer block 
   IBRION =      2    ionic relax: 0-MD 1-quasi-New 2-CG
   NFREE  =      1    steps in history (QN), initial steepest desc. (CG)
   ISIF   =      3    stress and relaxation
   IWAVPR =     11    prediction:  0-non 1-charg 2-wave 3-comb
   ISYM   =      1    0-nonsym 1-usesym 2-fastsym
   LCORR  =      T    Harris-Foulkes like correction to forces

   POTIM  = 0.1500    time-step for ionic-motion
   TEIN   =    0.0    initial temperature
   TEBEG  =    0.0;   TEEND  =   0.0 temperature during run
   SMASS  =  -3.00    Nose mass-parameter (am)
   estimated Nose-frequenzy (Omega)   =  0.10E-29 period in steps =****** mass=  -0.109E-26a.u.
   SCALEE = 1.0000    scale energy and forces
   NPACO  =    256;   APACO  = 16.0  distance and # of slots for P.C.
   PSTRESS=    0.0 pullay stress

  Mass of Ions in am
   POMASS = 178.49 92.91180.95 91.22
  Ionic Valenz
   ZVAL   =   4.00 13.00  5.00 12.00
  Atomic Wigner-Seitz radii
   RWIGS  =  -1.00 -1.00 -1.00 -1.00
  virtual crystal weights 
   VCA    =   1.00  1.00  1.00  1.00
   NELECT =     306.0000    total number of electrons
   NUPDOWN=      -1.0000    fix difference up-down

 DOS related values:
   EMIN   =  10.00;   EMAX   =-10.00  energy-range for DOS
   EFERMI =   0.00
   ISMEAR =     1;   SIGMA  =   0.15  broadening in eV -4-tet -1-fermi 0-gaus

 Electronic relaxation 2 (details)
   IALGO  =     68    algorithm
   LDIAG  =      T    sub-space diagonalisation (order eigenvalues)
   LSUBROT=      F    optimize rotation matrix (better conditioning)
   TURBO    =      0    0=normal 1=particle mesh
   IRESTART =      0    0=no restart 2=restart with 2 vectors
   NREBOOT  =      0    no. of reboots
   NMIN     =      0    reboot dimension
   EREF     =   0.00    reference energy to select bands
   IMIX   =      4    mixing-type and parameters
     AMIX     =   0.40;   BMIX     =  1.00
     AMIX_MAG =   1.60;   BMIX_MAG =  1.00
     AMIN     =   0.10
     WC   =   100.;   INIMIX=   1;  MIXPRE=   1;  MAXMIX= -45

 Intra band minimization:
   WEIMIN = 0.0010     energy-eigenvalue tresh-hold
   EBREAK =  0.14E-07  absolut break condition
   DEPER  =   0.30     relativ break condition  

   TIME   =   0.40     timestep for ELM

  volume/ion in A,a.u.               =      20.25       136.63
  Fermi-wavevector in a.u.,A,eV,Ry     =   1.225837  2.316496 20.445151  1.502676
  Thomas-Fermi vector in A             =   2.360860
 
 Write flags
   LWAVE  =      F    write WAVECAR
   LCHARG =      F    write CHGCAR
   LVTOT  =      F    write LOCPOT, total local potential
   LVHAR  =      F    write LOCPOT, Hartree potential only
   LELF   =      F    write electronic localiz. function (ELF)
   LORBIT =      0    0 simple, 1 ext, 2 COOP (PROOUT)


 Dipole corrections
   LMONO  =      F    monopole corrections only (constant potential shift)
   LDIPOL =      F    correct potential (dipole corrections)
   IDIPOL =      0    1-x, 2-y, 3-z, 4-all directions 
   EPSILON=  1.0000000 bulk dielectric constant

 Exchange correlation treatment:
   GGA     =    --    GGA type
   LEXCH   =     8    internal setting for exchange type
   VOSKOWN=      0    Vosko Wilk Nusair interpolation
   LHFCALC =     F    Hartree Fock is set to
   LHFONE  =     F    Hartree Fock one center treatment
   AEXX    =    0.0000 exact exchange contribution

 Linear response parameters
   LEPSILON=     F    determine dielectric tensor
   LRPA    =     F    only Hartree local field effects (RPA)
   LNABLA  =     F    use nabla operator in PAW spheres
   LVEL    =     F    velocity operator in full k-point grid
   LINTERFAST=   F  fast interpolation
   KINTER  =     0    interpolate to denser k-point grid
   CSHIFT  =0.1000    complex shift for real part using Kramers Kronig
   OMEGAMAX=  -1.0    maximum frequency
   DEG_THRESHOLD= 0.2000000E-02 threshold for treating states as degnerate
   RTIME   =    0.100 relaxation time in fs

 Orbital magnetization related:
   ORBITALMAG=     F  switch on orbital magnetization
   LCHIMAG   =     F  perturbation theory with respect to B field
   DQ        =  0.001000  dq finite difference perturbation B field



--------------------------------------------------------------------------------------------------------


 conjugate gradient relaxation of ions
 charge density and potential will be updated during run
 non-spin polarized calculation
 RMM-DIIS sequential band-by-band and
  variant of blocked Davidson during initial phase
 perform sub-space diagonalisation
    before iterative eigenvector-optimisation
 modified Broyden-mixing scheme, WC =      100.0
 initial mixing is a Kerker type mixing with AMIX =  0.4000 and BMIX =      1.0000
 Hartree-type preconditioning will be used
 using additional bands           31
 real space projection scheme for non local part
 use partial core corrections
 calculate Harris-corrections to forces 
   (improved forces if not selfconsistent)
 use gradient corrections 
 use of overlap-Matrix (Vanderbilt PP)
 Methfessel and Paxton  Order N= 1 SIGMA  =   0.15


--------------------------------------------------------------------------------------------------------


  energy-cutoff  :      300.00
  volume of cell :      728.87
      direct lattice vectors                 reciprocal lattice vectors
     6.903549301  0.000907803 -0.006874750     0.144853170 -0.000020213  0.000143102
     0.001460061 10.279912112 -0.025899548    -0.000012549  0.097277711  0.000243371
    -0.010149835 -0.025696050 10.270442514     0.000096929  0.000245297  0.097367498

  length of vectors
     6.903552783 10.279944841 10.270479674     0.144853242  0.097278016  0.097367855


 
 k-points in units of 2pi/SCALE and weight: k-points                                
   0.00000000  0.00000000  0.00000000       0.037
   0.24085751 -0.00003361  0.00023794       0.074
  -0.00002087  0.16175046  0.00040467       0.074
   0.24083664  0.16171685  0.00064261       0.074
  -0.24087837  0.16178407  0.00016672       0.074
   0.00016117  0.00040787  0.16189975       0.074
   0.24101868  0.00037426  0.16213770       0.074
  -0.24069634  0.00044148  0.16166181       0.074
   0.00014030  0.16215833  0.16230442       0.074
   0.24099781  0.16212472  0.16254237       0.074
  -0.24071720  0.16219194  0.16206648       0.074
   0.00018204 -0.16134259  0.16149508       0.074
   0.24103954 -0.16137620  0.16173303       0.074
  -0.24067547 -0.16130898  0.16125714       0.074
 
 k-points in reciprocal lattice and weights: k-points                                
   0.00000000  0.00000000  0.00000000       0.037
   0.33333333  0.00000000 -0.00000000       0.074
  -0.00000000  0.33333333 -0.00000000       0.074
   0.33333333  0.33333333 -0.00000000       0.074
  -0.33333333  0.33333333  0.00000000       0.074
  -0.00000000  0.00000000  0.33333333       0.074
   0.33333333  0.00000000  0.33333333       0.074
  -0.33333333  0.00000000  0.33333333       0.074
  -0.00000000  0.33333333  0.33333333       0.074
   0.33333333  0.33333333  0.33333333       0.074
  -0.33333333  0.33333333  0.33333333       0.074
  -0.00000000 -0.33333333  0.33333333       0.074
   0.33333333 -0.33333333  0.33333333       0.074
  -0.33333333 -0.33333333  0.33333333       0.074
 
 position of ions in fractional coordinates (direct lattice) 
   0.01382525  0.98876935  0.00014235
   0.24165881  0.17559514  0.18413043
   0.00732710  0.33180866  0.66023831
   0.23780843  0.83207507  0.50241145
   0.75646518  0.18244899  0.16759338
   0.50564989  0.99237689  0.32868926
   0.73903173  0.15644104  0.83177842
   0.75470575  0.51243563  0.82842831
   0.50683902  0.66695447  0.32945933
   0.99106933  0.00461353  0.33438964
   0.24698865  0.16238286  0.48971997
   0.00894706  0.01228265  0.66393142
   0.98773611  0.65692749  0.33565305
   0.00804374  0.66093366  0.66906209
   0.24395941  0.82684649  0.81761802
   0.75372848  0.16234277  0.49290286
   0.49988121  0.00832298  0.64146051
   0.48655127  0.65917225  0.66159147
   0.98490655  0.33697942  0.35731311
   0.24351471  0.50797992  0.49723701
   0.24228012  0.52306399  0.82434128
   0.00299903  0.67058173  0.00110373
   0.21003853  0.82437470  0.18498529
   0.75994397  0.49286962  0.17353550
   0.51115812  0.34155858  0.34770831
   0.75107540  0.50718871  0.50216643
   0.78604504  0.82234667  0.17255197
   0.28169202  0.14588500  0.82384733
   0.02144749  0.33763896  0.98219227
   0.23422313  0.49517495  0.18014105
   0.49460593  0.97824413  0.02013783
   0.48383427  0.34640631  0.99575505
   0.49562960  0.33691446  0.65728131
   0.49521085  0.67160279  0.00986163
   0.76034273  0.83343266  0.50820335
   0.75083609  0.83502747  0.82243731
 
 position of ions in cartesian coordinates  (Angst):
   0.09688548 10.16447095 -0.02424176
   1.66669102  1.80059053  1.88489178
   0.04436612  3.39400500  6.77229553
   1.63783773  8.54096446  5.13680272
   5.22086003  1.87193982  1.71133231
   3.48889174 10.19356024  3.34660578
   5.09372800  1.58749765  8.53360007
   5.20248810  5.24719107  8.48986502
   3.49661800  6.84822760  3.36293487
   6.83850870  0.03973386  3.42739669
   1.70036484  1.65692183  5.02373715
   0.05504563  0.10921222  6.81848989
   6.81643728  6.74542862  3.42350077
   0.04970446  6.77715504  6.85439059
   1.67709435  8.47912117  8.37420678
   5.19863587  1.65688802  5.05294421
   3.44445599  0.06953028  6.58443117
   3.35317810  6.75967425  6.77441999
   6.79621629  3.45583143  3.65426515
   1.67681064  5.20943298  5.09201356
   1.66498954  5.35608948  8.45113697
   0.02167181  6.89349564 -0.00605258
   1.44933742  8.46993674  1.87708585
   5.24526894  5.06288705  1.76429680
   3.52577481  3.50272149  3.55875789
   5.18072965  5.20163348  5.13917206
   5.42595002  8.44993118  1.74548286
   1.93652583  1.47877113  8.45556173
   0.13858768  3.44567979 10.07865709
   1.61586552  5.08593863  1.83569322
   3.41576030 10.05619519  0.17808804
   3.33057273  3.53587864 10.21454702
   3.41542398  3.44701144  6.73843660
   3.41959299  6.90421383  0.08048463
   5.24512221  8.55524593  5.19266059
   5.17630557  8.56355722  8.42000642
 


--------------------------------------------------------------------------------------------------------


 k-point  1 :   0.0000 0.0000 0.0000  plane waves:    8657
 k-point  2 :   0.3333 0.0000-0.0000  plane waves:    8610
 k-point  3 :  -0.0000 0.3333-0.0000  plane waves:    8597
 k-point  4 :   0.3333 0.3333-0.0000  plane waves:    8591
 k-point  5 :  -0.3333 0.3333 0.0000  plane waves:    8593
 k-point  6 :  -0.0000 0.0000 0.3333  plane waves:    8602
 k-point  7 :   0.3333 0.0000 0.3333  plane waves:    8593
 k-point  8 :  -0.3333 0.0000 0.3333  plane waves:    8593
 k-point  9 :  -0.0000 0.3333 0.3333  plane waves:    8607
 k-point 10 :   0.3333 0.3333 0.3333  plane waves:    8592
 k-point 11 :  -0.3333 0.3333 0.3333  plane waves:    8593
 k-point 12 :  -0.0000-0.3333 0.3333  plane waves:    8597
 k-point 13 :   0.3333-0.3333 0.3333  plane waves:    8604
 k-point 14 :  -0.3333-0.3333 0.3333  plane waves:    8599

 maximum and minimum number of plane-waves per node :      1741     1690

 maximum number of plane-waves:      8657
 maximum index in each direction: 
   IXMAX=   10   IYMAX=   14   IZMAX=   14
   IXMIN=  -10   IYMIN=  -14   IZMIN=  -14

 WARNING: aliasing errors must be expected set NGX to  42 to avoid them
 NGY is ok and might be reduce to  58
 NGZ is ok and might be reduce to  58
 aliasing errors are usually negligible using standard VASP settings
 and one can safely disregard these warnings

 real space projection operators:
  total allocation   :      27066.09 KBytes
  max/ min on nodes  :       5465.11       5373.98


 parallel 3D FFT for wavefunctions:
    minimum data exchange during FFTs selected (reduces bandwidth)
 parallel 3D FFT for charge:
    minimum data exchange during FFTs selected (reduces bandwidth)


 total amount of memory used by VASP on root node    67997. kBytes
========================================================================

   base      :      30000. kBytes
   nonlr-proj:      10452. kBytes
   fftplans  :       2814. kBytes
   grid      :       5360. kBytes
   one-center:        124. kBytes
   wavefun   :      19247. kBytes
 
     INWAV:  cpu time    0.0000: real time    0.0000
 Broyden mixing: mesh for mixing (old mesh)
   NGX = 19   NGY = 29   NGZ = 29
  (NGX  = 80   NGY  =120   NGZ  =120)
  gives a total of  15979 points

 initial charge density was supplied:
 charge density of overlapping atoms calculated
 number of electron     306.0000000 magnetization 
 keeping initial charge density in first step


--------------------------------------------------------------------------------------------------------


 Maximum index for non-local projection operator         1232
 Maximum index for augmentation-charges          676 (set IRDMAX)


--------------------------------------------------------------------------------------------------------


 First call to EWALD:  gamma=   0.197
 Maximum number of real-space cells 3x 2x 2
 Maximum number of reciprocal cells 2x 3x 3

 FEWALD executed in parallel
    FEWALD:  cpu time    0.7102: real time    0.7140


----------------------------------------- Iteration    1(   1)  ---------------------------------------


    POTLOK:  cpu time    0.0518: real time    0.0717
    SETDIJ:  cpu time    0.3099: real time    0.3123
     EDDAV:  cpu time    1.0348: real time    1.0412
       DOS:  cpu time    0.0024: real time    0.0024
    --------------------------------------------
      LOOP:  cpu time    1.4061: real time    1.6812

 eigenvalue-minimisations  :  5672
 total energy-change (2. order) : 0.2017426E+04  (-0.1163983E+05)
 number of electron     306.0000000 magnetization 
 augmentation part      306.0000000 magnetization 

 Free energy of the ion-electron system (eV)
  ---------------------------------------------------
  alpha Z        PSCENC =      1582.52710571
  Ewald energy   TEWEN  =    -20681.96873758
  -Hartree energ DENC   =     -7518.68975238
  -exchange      EXHF   =         0.00000000
  -V(xc)+E(xc)   XCENC  =      -116.88514991
  PAW double counting   =     22956.18843697   -21419.48755377
  entropy T*S    EENTRO =        -0.00209791
  eigenvalues    EBANDS =      -196.74390457
  atomic energy  EATOM  =     27412.48717566
  Solvation  Ediel_sol  =         0.00000000
  ---------------------------------------------------
  free energy    TOTEN  =      2017.42552222 eV

  energy without entropy =     2017.42762013  energy(sigma->0) =     2017.42622152


--------------------------------------------------------------------------------------------------------




----------------------------------------- Iteration    1(   2)  ---------------------------------------


     EDDAV:  cpu time    1.1397: real time    1.1472
       DOS:  cpu time    0.0017: real time    0.0017
    --------------------------------------------
      LOOP:  cpu time    1.1432: real time    1.3504

 eigenvalue-minimisations  :  5776
 total energy-change (2. order) :-0.2085621E+04  (-0.2014035E+04)
 number of electron     306.0000000 magnetization 
 augmentation part      306.0000000 magnetization 

 Free energy of the ion-electron system (eV)
  ---------------------------------------------------
  alpha Z        PSCENC =      1582.52710571
  Ewald energy   TEWEN  =    -20681.96873758
  -Hartree energ DENC   =     -7518.68975238
  -exchange      EXHF   =         0.00000000
  -V(xc)+E(xc)   XCENC  =      -116.88514991
  PAW double counting   =     22956.18843697   -21419.48755377
  entropy T*S    EENTRO =         0.00212696
  eigenvalues    EBANDS =     -2282.36915509
  atomic energy  EATOM  =     27412.48717566
  Solvation  Ediel_sol  =         0.00000000
  ---------------------------------------------------
  free energy    TOTEN  =       -68.19550343 eV

  energy without entropy =      -68.19763039  energy(sigma->0) =      -68.19621242


--------------------------------------------------------------------------------------------------------




----------------------------------------- Iteration    1(   3)  ---------------------------------------


     EDDAV:  cpu time    1.6111: real time    1.7177
       DOS:  cpu time    0.0015: real time    0.0015
    --------------------------------------------
      LOOP:  cpu time    1.6130: real time    1.7456

 eigenvalue-minimisations  :  8768
 total energy-change (2. order) :-0.2717037E+03  (-0.2576438E+03)
 number of electron     306.0000000 magnetization 
 augmentation part      306.0000000 magnetization 

 Free energy of the ion-electron system (eV)
  ---------------------------------------------------
  alpha Z        PSCENC =      1582.52710571
  Ewald energy   TEWEN  =    -20681.96873758
  -Hartree energ DENC   =     -7518.68975238
  -exchange      EXHF   =         0.00000000
  -V(xc)+E(xc)   XCENC  =      -116.88514991
  PAW double counting   =     22956.18843697   -21419.48755377
  entropy T*S    EENTRO =         0.00647708
  eigenvalues    EBANDS =     -2554.07719358
  atomic energy  EATOM  =     27412.48717566
  Solvation  Ediel_sol  =         0.00000000
  ---------------------------------------------------
  free energy    TOTEN  =      -339.89919180 eV

  energy without entropy =     -339.90566888  energy(sigma->0) =     -339.90135082


--------------------------------------------------------------------------------------------------------




----------------------------------------- Iteration    1(   4)  ---------------------------------------


     EDDAV:  cpu time    1.3893: real time    1.3952
       DOS:  cpu time    0.0016: real time    0.0016
    --------------------------------------------
      LOOP:  cpu time    1.3915: real time    1.4474

 eigenvalue-minimisations  :  8536
 total energy-change (2. order) :-0.3340148E+02  (-0.3181608E+02)
 number of electron     306.0000000 magnetization 
 augmentation part      306.0000000 magnetization 

 Free energy of the ion-electron system (eV)
  ---------------------------------------------------
  alpha Z        PSCENC =      1582.52710571
  Ewald energy   TEWEN  =    -20681.96873758
  -Hartree energ DENC   =     -7518.68975238
  -exchange      EXHF   =         0.00000000
  -V(xc)+E(xc)   XCENC  =      -116.88514991
  PAW double counting   =     22956.18843697   -21419.48755377
  entropy T*S    EENTRO =         0.00803437
  eigenvalues    EBANDS =     -2587.48023181
  atomic energy  EATOM  =     27412.48717566
  Solvation  Ediel_sol  =         0.00000000
  ---------------------------------------------------
  free energy    TOTEN  =      -373.30067274 eV

  energy without entropy =     -373.30870711  energy(sigma->0) =     -373.30335086


--------------------------------------------------------------------------------------------------------




----------------------------------------- Iteration    1(   5)  ---------------------------------------


     EDDAV:  cpu time    1.4247: real time    1.4331
       DOS:  cpu time    0.0017: real time    0.0017
    CHARGE:  cpu time    0.0311: real time    0.0312
    MIXING:  cpu time    0.0014: real time    0.0015
    --------------------------------------------
      LOOP:  cpu time    1.4595: real time    1.4921

 eigenvalue-minimisations  :  8248
 total energy-change (2. order) :-0.3317323E+01  (-0.3250838E+01)
 number of electron     305.9999996 magnetization 
 augmentation part       17.4358147 magnetization 

 Broyden mixing:
  rms(total) = 0.63654E+01    rms(broyden)= 0.63649E+01
  rms(prec ) = 0.66660E+01
  weight for this iteration     100.00

 Free energy of the ion-electron system (eV)
  ---------------------------------------------------
  alpha Z        PSCENC =      1582.52710571
  Ewald energy   TEWEN  =    -20681.96873758
  -Hartree energ DENC   =     -7518.68975238
  -exchange      EXHF   =         0.00000000
  -V(xc)+E(xc)   XCENC  =      -116.88514991
  PAW double counting   =     22956.18843697   -21419.48755377
  entropy T*S    EENTRO =         0.01046338
  eigenvalues    EBANDS =     -2590.79998390
  atomic energy  EATOM  =     27412.48717566
  Solvation  Ediel_sol  =         0.00000000
  ---------------------------------------------------
  free energy    TOTEN  =      -376.61799583 eV

  energy without entropy =     -376.62845920  energy(sigma->0) =     -376.62148362


--------------------------------------------------------------------------------------------------------




----------------------------------------- Iteration    1(   6)  ---------------------------------------


    POTLOK:  cpu time    0.0304: real time    0.0305
    SETDIJ:  cpu time    0.0037: real time    0.0037
    EDDIAG:  cpu time    0.0874: real time    0.0877
  RMM-DIIS:  cpu time    0.7512: real time    0.7532
    ORTHCH:  cpu time    0.0133: real time    0.0150
       DOS:  cpu time    0.0010: real time    0.0010
    CHARGE:  cpu time    0.0313: real time    0.0314
    MIXING:  cpu time    0.0016: real time    0.0022
    --------------------------------------------
      LOOP:  cpu time    0.9205: real time    0.9668

 eigenvalue-minimisations  :  7329
 total energy-change (2. order) : 0.1005737E+02  (-0.2559375E+01)
 number of electron     305.9999996 magnetization 
 augmentation part       18.1278328 magnetization 

 Broyden mixing:
  rms(total) = 0.30485E+01    rms(broyden)= 0.30485E+01
  rms(prec ) = 0.34740E+01
  weight for this iteration     100.00

 eigenvalues of (default mixing * dielectric matrix)
  average eigenvalue GAMMA=   1.8004
  1.8004

 Free energy of the ion-electron system (eV)
  ---------------------------------------------------
  alpha Z        PSCENC =      1582.52710571
  Ewald energy   TEWEN  =    -20681.96873758
  -Hartree energ DENC   =     -7347.79568898
  -exchange      EXHF   =         0.00000000
  -V(xc)+E(xc)   XCENC  =      -121.27501559
  PAW double counting   =     28494.93750067   -26966.22942187
  entropy T*S    EENTRO =         0.01934571
  eigenvalues    EBANDS =     -2739.26288618
  atomic energy  EATOM  =     27412.48717566
  Solvation  Ediel_sol  =         0.00000000
  ---------------------------------------------------
  free energy    TOTEN  =      -366.56062245 eV

  energy without entropy =     -366.57996815  energy(sigma->0) =     -366.56707102


--------------------------------------------------------------------------------------------------------




----------------------------------------- Iteration    1(   7)  ---------------------------------------


    POTLOK:  cpu time    0.0288: real time    0.0290
    SETDIJ:  cpu time    0.0301: real time    0.0302
    EDDIAG:  cpu time    0.0872: real time    0.0878
  RMM-DIIS:  cpu time    0.9060: real time    0.9128
    ORTHCH:  cpu time    0.0127: real time    0.0128
       DOS:  cpu time    0.0013: real time    0.0013
    CHARGE:  cpu time    0.0305: real time    0.0306
    MIXING:  cpu time    0.0012: real time    0.0013
    --------------------------------------------
      LOOP:  cpu time    1.0983: real time    1.1433

 eigenvalue-minimisations  :  7742
 total energy-change (2. order) :-0.3789327E+01  (-0.3201003E+01)
 number of electron     305.9999996 magnetization 
 augmentation part       18.5414364 magnetization 

 Broyden mixing:
  rms(total) = 0.13738E+01    rms(broyden)= 0.13733E+01
  rms(prec ) = 0.39577E+01
  weight for this iteration     100.00

 eigenvalues of (default mixing * dielectric matrix)
  average eigenvalue GAMMA=   1.1337
  1.7973  0.4701

 Free energy of the ion-electron system (eV)
  ---------------------------------------------------
  alpha Z        PSCENC =      1582.52710571
  Ewald energy   TEWEN  =    -20681.96873758
  -Hartree energ DENC   =     -7243.94137526
  -exchange      EXHF   =         0.00000000
  -V(xc)+E(xc)   XCENC  =      -121.68067490
  PAW double counting   =     32973.72256753   -31439.12261379
  entropy T*S    EENTRO =         0.00336600
  eigenvalues    EBANDS =     -2852.37676278
  atomic energy  EATOM  =     27412.48717566
  Solvation  Ediel_sol  =         0.00000000
  ---------------------------------------------------
  free energy    TOTEN  =      -370.34994940 eV

  energy without entropy =     -370.35331540  energy(sigma->0) =     -370.35107140


--------------------------------------------------------------------------------------------------------




----------------------------------------- Iteration    1(   8)  ---------------------------------------


    POTLOK:  cpu time    0.0292: real time    0.0294
    SETDIJ:  cpu time    0.0037: real time    0.0037
    EDDIAG:  cpu time    0.0798: real time    0.0801
  RMM-DIIS:  cpu time    0.7728: real time    0.7788
    ORTHCH:  cpu time    0.0128: real time    0.0128
       DOS:  cpu time    0.0015: real time    0.0015
    CHARGE:  cpu time    0.0303: real time    0.0303
    MIXING:  cpu time    0.0013: real time    0.0013
    --------------------------------------------
      LOOP:  cpu time    0.9318: real time    0.9645

 eigenvalue-minimisations  :  7502
 total energy-change (2. order) : 0.8366563E+01  (-0.7912686E+00)
 number of electron     305.9999996 magnetization 
 augmentation part       18.3084286 magnetization 

 Broyden mixing:
  rms(total) = 0.43612E+00    rms(broyden)= 0.43546E+00
  rms(prec ) = 0.71489E+00
  weight for this iteration     100.00

 eigenvalues of (default mixing * dielectric matrix)
  average eigenvalue GAMMA=   1.1210
  1.8495  1.1169  0.3967

 Free energy of the ion-electron system (eV)
  ---------------------------------------------------
  alpha Z        PSCENC =      1582.52710571
  Ewald energy   TEWEN  =    -20681.96873758
  -Hartree energ DENC   =     -7247.70495058
  -exchange      EXHF   =         0.00000000
  -V(xc)+E(xc)   XCENC  =      -120.86902911
  PAW double counting   =     34494.45165324   -32956.00208742
  entropy T*S    EENTRO =         0.02362967
  eigenvalues    EBANDS =     -2844.92814625
  atomic energy  EATOM  =     27412.48717566
  Solvation  Ediel_sol  =         0.00000000
  ---------------------------------------------------
  free energy    TOTEN  =      -361.98338665 eV

  energy without entropy =     -362.00701633  energy(sigma->0) =     -361.99126321


--------------------------------------------------------------------------------------------------------




----------------------------------------- Iteration    1(   9)  ---------------------------------------


    POTLOK:  cpu time    0.0291: real time    0.0293
    SETDIJ:  cpu time    0.0036: real time    0.0036
    EDDIAG:  cpu time    0.0785: real time    0.0791
  RMM-DIIS:  cpu time    0.7915: real time    0.7979
    ORTHCH:  cpu time    0.0128: real time    0.0128
       DOS:  cpu time    0.0018: real time    0.0018
    CHARGE:  cpu time    0.0315: real time    0.0316
    MIXING:  cpu time    0.0013: real time    0.0013
    --------------------------------------------
      LOOP:  cpu time    0.9507: real time    0.9885

 eigenvalue-minimisations  :  7784
 total energy-change (2. order) : 0.2018597E+00  (-0.3136946E+00)
 number of electron     305.9999996 magnetization 
 augmentation part       18.1726121 magnetization 

 Broyden mixing:
  rms(total) = 0.30568E+00    rms(broyden)= 0.30547E+00
  rms(prec ) = 0.46882E+00
  weight for this iteration     100.00

 eigenvalues of (default mixing * dielectric matrix)
  average eigenvalue GAMMA=   1.0529
  1.7780  1.6042  0.4148  0.4148

 Free energy of the ion-electron system (eV)
  ---------------------------------------------------
  alpha Z        PSCENC =      1582.52710571
  Ewald energy   TEWEN  =    -20681.96873758
  -Hartree energ DENC   =     -7248.78982874
  -exchange      EXHF   =         0.00000000
  -V(xc)+E(xc)   XCENC  =      -120.33302774
  PAW double counting   =     34777.16201785   -33234.16980394
  entropy T*S    EENTRO =         0.02616830
  eigenvalues    EBANDS =     -2848.72259643
  atomic energy  EATOM  =     27412.48717566
  Solvation  Ediel_sol  =         0.00000000
  ---------------------------------------------------
  free energy    TOTEN  =      -361.78152692 eV

  energy without entropy =     -361.80769521  energy(sigma->0) =     -361.79024968


--------------------------------------------------------------------------------------------------------




----------------------------------------- Iteration    1(  10)  ---------------------------------------


    POTLOK:  cpu time    0.0294: real time    0.0296
    SETDIJ:  cpu time    0.0036: real time    0.0036
    EDDIAG:  cpu time    0.0813: real time    0.0818
  RMM-DIIS:  cpu time    0.7950: real time    0.8021
    ORTHCH:  cpu time    0.0127: real time    0.0128
       DOS:  cpu time    0.0032: real time    0.0032
    CHARGE:  cpu time    0.0303: real time    0.0304
    MIXING:  cpu time    0.0014: real time    0.0014
    --------------------------------------------
      LOOP:  cpu time    0.9574: real time    0.9906

 eigenvalue-minimisations  :  7768
 total energy-change (2. order) : 0.3626759E-01  (-0.6907953E-01)
 number of electron     305.9999996 magnetization 
 augmentation part       18.0830503 magnetization 

 Broyden mixing:
  rms(total) = 0.17680E+00    rms(broyden)= 0.17671E+00
  rms(prec ) = 0.32318E+00
  weight for this iteration     100.00

 eigenvalues of (default mixing * dielectric matrix)
  average eigenvalue GAMMA=   1.0466
  1.8490  1.8490  0.6899  0.4224  0.4224

 Free energy of the ion-electron system (eV)
  ---------------------------------------------------
  alpha Z        PSCENC =      1582.52710571
  Ewald energy   TEWEN  =    -20681.96873758
  -Hartree energ DENC   =     -7260.90975176
  -exchange      EXHF   =         0.00000000
  -V(xc)+E(xc)   XCENC  =      -119.49675328
  PAW double counting   =     35023.22146566   -33473.66250116
  entropy T*S    EENTRO =         0.02491485
  eigenvalues    EBANDS =     -2843.96817742
  atomic energy  EATOM  =     27412.48717566
  Solvation  Ediel_sol  =         0.00000000
  ---------------------------------------------------
  free energy    TOTEN  =      -361.74525932 eV

  energy without entropy =     -361.77017417  energy(sigma->0) =     -361.75356427


--------------------------------------------------------------------------------------------------------




----------------------------------------- Iteration    1(  11)  ---------------------------------------


    POTLOK:  cpu time    0.0291: real time    0.0293
    SETDIJ:  cpu time    0.0035: real time    0.0035
    EDDIAG:  cpu time    0.0775: real time    0.1137
  RMM-DIIS:  cpu time    0.7151: real time    0.8289
    ORTHCH:  cpu time    0.0129: real time    0.0129
       DOS:  cpu time    0.0016: real time    0.0016
    CHARGE:  cpu time    0.0309: real time    0.0311
    MIXING:  cpu time    0.0014: real time    0.0014
    --------------------------------------------
      LOOP:  cpu time    0.8727: real time    1.0591

 eigenvalue-minimisations  :  7658
 total energy-change (2. order) : 0.4538079E-01  (-0.1899464E-01)
 number of electron     305.9999996 magnetization 
 augmentation part       18.0351127 magnetization 

 Broyden mixing:
  rms(total) = 0.95447E-01    rms(broyden)= 0.95381E-01
  rms(prec ) = 0.17719E+00
  weight for this iteration     100.00

 eigenvalues of (default mixing * dielectric matrix)
  average eigenvalue GAMMA=   1.0406
  2.0509  1.9389  0.9843  0.4501  0.4501  0.3692

 Free energy of the ion-electron system (eV)
  ---------------------------------------------------
  alpha Z        PSCENC =      1582.52710571
  Ewald energy   TEWEN  =    -20681.96873758
  -Hartree energ DENC   =     -7264.18753969
  -exchange      EXHF   =         0.00000000
  -V(xc)+E(xc)   XCENC  =      -119.10039204
  PAW double counting   =     35177.60715469   -33623.95402750
  entropy T*S    EENTRO =         0.02563896
  eigenvalues    EBANDS =     -2845.13625675
  atomic energy  EATOM  =     27412.48717566
  Solvation  Ediel_sol  =         0.00000000
  ---------------------------------------------------
  free energy    TOTEN  =      -361.69987853 eV

  energy without entropy =     -361.72551749  energy(sigma->0) =     -361.70842485


--------------------------------------------------------------------------------------------------------




----------------------------------------- Iteration    1(  12)  ---------------------------------------


    POTLOK:  cpu time    0.0285: real time    0.0286
    SETDIJ:  cpu time    0.0043: real time    0.0043
    EDDIAG:  cpu time    0.1026: real time    0.1030
  RMM-DIIS:  cpu time    0.7996: real time    0.8045
    ORTHCH:  cpu time    0.0138: real time    0.0140
       DOS:  cpu time    0.0009: real time    0.0009
    CHARGE:  cpu time    0.0310: real time    0.0311
    MIXING:  cpu time    0.0018: real time    0.0018
    --------------------------------------------
      LOOP:  cpu time    0.9833: real time    1.0273

 eigenvalue-minimisations  :  7825
 total energy-change (2. order) : 0.8281977E-02  (-0.7603764E-02)
 number of electron     305.9999996 magnetization 
 augmentation part       18.0315240 magnetization 

 Broyden mixing:
  rms(total) = 0.47993E-01    rms(broyden)= 0.47972E-01
  rms(prec ) = 0.68283E-01
  weight for this iteration     100.00

 eigenvalues of (default mixing * dielectric matrix)
  average eigenvalue GAMMA=   1.0291
  2.2292  1.8816  1.1920  0.6503  0.5144  0.3904  0.3458

 Free energy of the ion-electron system (eV)
  ---------------------------------------------------
  alpha Z        PSCENC =      1582.52710571
  Ewald energy   TEWEN  =    -20681.96873758
  -Hartree energ DENC   =     -7268.06796409
  -exchange      EXHF   =         0.00000000
  -V(xc)+E(xc)   XCENC  =      -118.82492873
  PAW double counting   =     35309.24827247   -33752.54005221
  entropy T*S    EENTRO =         0.02455270
  eigenvalues    EBANDS =     -2844.57702050
  atomic energy  EATOM  =     27412.48717566
  Solvation  Ediel_sol  =         0.00000000
  ---------------------------------------------------
  free energy    TOTEN  =      -361.69159656 eV

  energy without entropy =     -361.71614926  energy(sigma->0) =     -361.69978079


--------------------------------------------------------------------------------------------------------




----------------------------------------- Iteration    1(  13)  ---------------------------------------


    POTLOK:  cpu time    0.0300: real time    0.0308
    SETDIJ:  cpu time    0.0037: real time    0.0037
    EDDIAG:  cpu time    0.0796: real time    0.0799
  RMM-DIIS:  cpu time    0.8055: real time    0.8105
    ORTHCH:  cpu time    0.0739: real time    0.0741
       DOS:  cpu time    0.0010: real time    0.0010
    CHARGE:  cpu time    0.0410: real time    0.0415
    MIXING:  cpu time    0.0015: real time    0.0015
    --------------------------------------------
      LOOP:  cpu time    1.0369: real time    1.0695

 eigenvalue-minimisations  :  7820
 total energy-change (2. order) : 0.1195274E-02  (-0.2167241E-02)
 number of electron     305.9999996 magnetization 
 augmentation part       18.0259999 magnetization 

 Broyden mixing:
  rms(total) = 0.26183E-01    rms(broyden)= 0.26174E-01
  rms(prec ) = 0.41050E-01
  weight for this iteration     100.00

 eigenvalues of (default mixing * dielectric matrix)
  average eigenvalue GAMMA=   1.0658
  2.3782  1.9029  1.4397  1.0137  0.5785  0.4683  0.4004  0.3448

 Free energy of the ion-electron system (eV)
  ---------------------------------------------------
  alpha Z        PSCENC =      1582.52710571
  Ewald energy   TEWEN  =    -20681.96873758
  -Hartree energ DENC   =     -7268.81270286
  -exchange      EXHF   =         0.00000000
  -V(xc)+E(xc)   XCENC  =      -118.77127611
  PAW double counting   =     35384.99223039   -33826.92593508
  entropy T*S    EENTRO =         0.02457681
  eigenvalues    EBANDS =     -2845.24283823
  atomic energy  EATOM  =     27412.48717566
  Solvation  Ediel_sol  =         0.00000000
  ---------------------------------------------------
  free energy    TOTEN  =      -361.69040128 eV

  energy without entropy =     -361.71497810  energy(sigma->0) =     -361.69859355


--------------------------------------------------------------------------------------------------------




----------------------------------------- Iteration    1(  14)  ---------------------------------------


    POTLOK:  cpu time    0.0304: real time    0.0349
    SETDIJ:  cpu time    0.0036: real time    0.0037
    EDDIAG:  cpu time    0.0844: real time    0.0896
  RMM-DIIS:  cpu time    0.8833: real time    0.9138
    ORTHCH:  cpu time    0.0127: real time    0.0127
       DOS:  cpu time    0.0009: real time    0.0009
    CHARGE:  cpu time    0.0302: real time    0.0303
    MIXING:  cpu time    0.0015: real time    0.0016
    --------------------------------------------
      LOOP:  cpu time    1.0478: real time    1.1158

 eigenvalue-minimisations  :  7900
 total energy-change (2. order) :-0.1904726E-03  (-0.1004073E-02)
 number of electron     305.9999996 magnetization 
 augmentation part       18.0261178 magnetization 

 Broyden mixing:
  rms(total) = 0.14672E-01    rms(broyden)= 0.14665E-01
  rms(prec ) = 0.26605E-01
  weight for this iteration     100.00

 eigenvalues of (default mixing * dielectric matrix)
  average eigenvalue GAMMA=   1.0455
  2.4531  1.9576  1.5509  1.0677  0.5976  0.5976  0.4214  0.4214  0.3424

 Free energy of the ion-electron system (eV)
  ---------------------------------------------------
  alpha Z        PSCENC =      1582.52710571
  Ewald energy   TEWEN  =    -20681.96873758
  -Hartree energ DENC   =     -7269.42978062
  -exchange      EXHF   =         0.00000000
  -V(xc)+E(xc)   XCENC  =      -118.75059641
  PAW double counting   =     35422.65644811   -33863.94397178
  entropy T*S    EENTRO =         0.02468560
  eigenvalues    EBANDS =     -2845.29292045
  atomic energy  EATOM  =     27412.48717566
  Solvation  Ediel_sol  =         0.00000000
  ---------------------------------------------------
  free energy    TOTEN  =      -361.69059176 eV

  energy without entropy =     -361.71527736  energy(sigma->0) =     -361.69882029


--------------------------------------------------------------------------------------------------------




----------------------------------------- Iteration    1(  15)  ---------------------------------------


    POTLOK:  cpu time    0.0291: real time    0.0292
    SETDIJ:  cpu time    0.0037: real time    0.0037
    EDDIAG:  cpu time    0.0785: real time    0.0790
  RMM-DIIS:  cpu time    0.8686: real time    0.8747
    ORTHCH:  cpu time    0.0132: real time    0.0133
       DOS:  cpu time    0.0008: real time    0.0008
    CHARGE:  cpu time    0.0303: real time    0.0304
    MIXING:  cpu time    0.0016: real time    0.0016
    --------------------------------------------
      LOOP:  cpu time    1.0264: real time    1.0622

 eigenvalue-minimisations  :  7923
 total energy-change (2. order) :-0.7437442E-04  (-0.4633982E-03)
 number of electron     305.9999996 magnetization 
 augmentation part       18.0246690 magnetization 

 Broyden mixing:
  rms(total) = 0.80795E-02    rms(broyden)= 0.80733E-02
  rms(prec ) = 0.15314E-01
  weight for this iteration     100.00

 eigenvalues of (default mixing * dielectric matrix)
  average eigenvalue GAMMA=   1.0393
  2.5554  2.0436  1.4909  1.2576  0.7758  0.6564  0.3433  0.4388  0.4388  0.3923

 Free energy of the ion-electron system (eV)
  ---------------------------------------------------
  alpha Z        PSCENC =      1582.52710571
  Ewald energy   TEWEN  =    -20681.96873758
  -Hartree energ DENC   =     -7269.49209826
  -exchange      EXHF   =         0.00000000
  -V(xc)+E(xc)   XCENC  =      -118.74915505
  PAW double counting   =     35442.19191314   -33883.15404631
  entropy T*S    EENTRO =         0.02473764
  eigenvalues    EBANDS =     -2845.55756109
  atomic energy  EATOM  =     27412.48717566
  Solvation  Ediel_sol  =         0.00000000
  ---------------------------------------------------
  free energy    TOTEN  =      -361.69066613 eV

  energy without entropy =     -361.71540377  energy(sigma->0) =     -361.69891201


--------------------------------------------------------------------------------------------------------




----------------------------------------- Iteration    1(  16)  ---------------------------------------


    POTLOK:  cpu time    0.0293: real time    0.0294
    SETDIJ:  cpu time    0.0036: real time    0.0037
    EDDIAG:  cpu time    0.0786: real time    0.0790
  RMM-DIIS:  cpu time    0.7309: real time    0.7430
    ORTHCH:  cpu time    0.0129: real time    0.0129
       DOS:  cpu time    0.0013: real time    0.0013
    CHARGE:  cpu time    0.0304: real time    0.0305
    MIXING:  cpu time    0.0017: real time    0.0017
    --------------------------------------------
      LOOP:  cpu time    0.8892: real time    0.9285

 eigenvalue-minimisations  :  7264
 total energy-change (2. order) :-0.5998373E-04  (-0.1908270E-03)
 number of electron     305.9999996 magnetization 
 augmentation part       18.0235450 magnetization 

 Broyden mixing:
  rms(total) = 0.47752E-02    rms(broyden)= 0.47731E-02
  rms(prec ) = 0.87641E-02
  weight for this iteration     100.00

 eigenvalues of (default mixing * dielectric matrix)
  average eigenvalue GAMMA=   1.0213
  2.6289  2.0541  1.4576  1.4576  0.8827  0.6537  0.4969  0.4969  0.3409  0.3912
  0.3737

 Free energy of the ion-electron system (eV)
  ---------------------------------------------------
  alpha Z        PSCENC =      1582.52710571
  Ewald energy   TEWEN  =    -20681.96873758
  -Hartree energ DENC   =     -7269.74275060
  -exchange      EXHF   =         0.00000000
[...]
     94       5.1256      2.00000
     95       5.1761      2.00000
     96       5.2047      2.00000
     97       5.2590      2.00000
     98       5.3154      2.00000
     99       5.3295      2.00000
    100       5.3764      2.00000
    101       5.4342      2.00000
    102       5.4853      2.00000
    103       5.5140      2.00000
    104       5.5585      2.00000
    105       5.5751      2.00000
    106       5.6089      2.00000
    107       5.6929      2.00000
    108       5.7920      2.00000
    109       5.8711      2.00000
    110       5.9058      2.00000
    111       5.9421      2.00000
    112       6.0214      2.00000
    113       6.0691      2.00000
    114       6.2113      2.00000
    115       6.2322      2.00000
    116       6.2886      2.00000
    117       6.2995      2.00000
    118       6.3497      2.00000
    119       6.4141      2.00000
    120       6.4576      2.00000
    121       6.4859      2.00000
    122       6.5132      2.00000
    123       6.5361      2.00000
    124       6.5759      2.00000
    125       6.6146      2.00000
    126       6.6382      2.00000
    127       6.6706      2.00000
    128       6.6987      2.00000
    129       6.7443      2.00000
    130       6.7603      2.00000
    131       6.7844      2.00000
    132       6.8304      2.00000
    133       6.8830      2.00000
    134       6.9496      2.00000
    135       7.0140      2.00000
    136       7.0597      2.00000
    137       7.0957      2.00000
    138       7.1207      2.00000
    139       7.1818      2.00001
    140       7.2079      2.00004
    141       7.2297      2.00009
    142       7.2475      2.00018
    143       7.2960      2.00097
    144       7.3081      2.00143
    145       7.3577      2.00598
    146       7.4110      2.02058
    147       7.4612      2.04754
    148       7.4950      2.06630
    149       7.5110      2.07068
    150       7.5351      2.06444
    151       7.5650      2.02027
    152       7.5823      1.96786
    153       7.6318      1.67911
    154       7.6727      1.29055
    155       7.7081      0.89652
    156       7.7414      0.54129
    157       7.7815      0.20635
    158       7.8171      0.02611
    159       7.8425     -0.04021
    160       7.8831     -0.07091
    161       7.9274     -0.05317
    162       7.9886     -0.01982
    163       8.0144     -0.01127
    164       8.0760     -0.00217
    165       8.0859     -0.00161
    166       8.1266     -0.00042
    167       8.1483     -0.00019
    168       8.1996     -0.00002
    169       8.2621     -0.00000
    170       8.2946     -0.00000
    171       8.3369     -0.00000
    172       8.4378     -0.00000
    173       8.4563     -0.00000
    174       8.5135     -0.00000
    175       8.5985     -0.00000
    176       8.6187     -0.00000
    177       8.8655     -0.00000
    178       8.9446     -0.00000
    179       9.0399     -0.00000
    180       9.4476     -0.00000
    181       9.5166     -0.00000
    182       9.6598     -0.00000
    183       9.7167     -0.00000
    184       9.7947     -0.00000


--------------------------------------------------------------------------------------------------------


 soft charge-density along one line, spin component           1
         0         1         2         3         4         5         6         7         8         9
 total charge-density along one line
 
 pseudopotential strength for first ion, spin component:           1
 -5.049  -0.002   0.000  -0.002   0.000  -6.296  -0.002   0.000
 -0.002  -5.041  -0.000  -0.001  -0.001  -0.002  -6.285  -0.000
  0.000  -0.000  -5.042  -0.000   0.001   0.000  -0.000  -6.287
 -0.002  -0.001  -0.000  -5.046  -0.001  -0.002  -0.002  -0.000
  0.000  -0.001   0.001  -0.001  -5.044   0.000  -0.002   0.002
 -6.296  -0.002   0.000  -0.002   0.000  -7.831  -0.003   0.001
 -0.002  -6.285  -0.000  -0.002  -0.002  -0.003  -7.817  -0.001
  0.000  -0.000  -6.287  -0.000   0.002   0.001  -0.001  -7.819
 -0.002  -0.002  -0.000  -6.293  -0.001  -0.003  -0.002  -0.001
  0.000  -0.002   0.002  -0.001  -6.289   0.001  -0.002   0.002
  0.001  -0.001  -0.002   0.001   0.002   0.001  -0.001  -0.002
  0.002  -0.002  -0.003   0.002   0.003   0.002  -0.002  -0.004
 -0.000  -0.003  -0.002  -0.002  -0.005  -0.000  -0.004  -0.002
 -0.002   0.003  -0.001  -0.001   0.001  -0.002   0.004  -0.001
  0.001  -0.002   0.001  -0.001  -0.002   0.002  -0.002   0.001
 -0.001   0.005   0.001   0.002   0.004  -0.001   0.006   0.001
  0.002  -0.002  -0.000   0.001  -0.002   0.003  -0.002  -0.000
  0.001   0.002  -0.000   0.001   0.003   0.001   0.003  -0.001
 total augmentation occupancy for first ion, spin component:           1
  3.464  -0.075  -0.032  -0.212   0.017  -1.799   0.040   0.012   0.108  -0.004  -0.019   0.013  -0.025   0.023  -0.030  -0.000
 -0.075   4.040  -0.101  -0.063  -0.018   0.040  -2.084   0.062   0.030  -0.019  -0.117   0.009   0.145  -0.161   0.030   0.003
 -0.032  -0.101   4.129   0.017   0.041   0.012   0.061  -2.203  -0.007  -0.033   0.059  -0.029   0.018   0.016   0.008   0.002
 -0.212  -0.063   0.017   3.634   0.045   0.108   0.030  -0.007  -1.876  -0.024  -0.002   0.013   0.024   0.024  -0.042   0.001
  0.017  -0.018   0.041   0.045   4.131  -0.004  -0.019  -0.033  -0.023  -2.181  -0.053   0.032   0.095  -0.053   0.036   0.004
 -1.799   0.040   0.012   0.108  -0.004   0.944  -0.021  -0.003  -0.055  -0.000   0.012  -0.006   0.011  -0.012   0.023   0.000
  0.040  -2.084   0.061   0.030  -0.019  -0.021   1.088  -0.036  -0.014   0.024   0.077  -0.007  -0.074   0.082  -0.015  -0.002
  0.012   0.062  -2.203  -0.007  -0.033  -0.003  -0.036   1.183   0.002   0.023  -0.040   0.016  -0.016  -0.012  -0.004  -0.001
  0.108   0.030  -0.007  -1.876  -0.023  -0.055  -0.014   0.002   0.980   0.012   0.001  -0.006  -0.013  -0.013   0.015  -0.001
 -0.004  -0.019  -0.033  -0.024  -2.181  -0.000   0.024   0.023   0.012   1.159   0.038  -0.018  -0.058   0.027  -0.017  -0.002
 -0.019  -0.117   0.059  -0.002  -0.053   0.012   0.077  -0.040   0.001   0.038   2.362  -0.294  -0.034   0.008   0.015  -0.001
  0.013   0.009  -0.029   0.013   0.032  -0.006  -0.007   0.016  -0.006  -0.018  -0.294   0.039   0.002  -0.001   0.000   0.000
 -0.025   0.145   0.018   0.024   0.095   0.011  -0.074  -0.016  -0.013  -0.058  -0.034   0.002   0.298  -0.008  -0.004   0.005
  0.023  -0.161   0.016   0.024  -0.053  -0.012   0.082  -0.012  -0.013   0.027   0.008  -0.001  -0.008   0.301  -0.007  -0.000
 -0.030   0.030   0.008  -0.042   0.036   0.023  -0.015  -0.004   0.015  -0.017   0.015   0.000  -0.004  -0.007   0.280  -0.000
 -0.000   0.003   0.002   0.001   0.004   0.000  -0.002  -0.001  -0.001  -0.002  -0.001   0.000   0.005  -0.000  -0.000   0.000
  0.001  -0.003   0.001   0.001  -0.001  -0.000   0.002  -0.000  -0.000   0.000   0.001  -0.000  -0.000   0.005  -0.000   0.000
 -0.001   0.001  -0.000   0.000   0.001   0.001  -0.001   0.000  -0.000  -0.001   0.000   0.000  -0.000  -0.000   0.005   0.000


------------------------ aborting loop because EDIFF is reached ----------------------------------------


    CHARGE:  cpu time    0.0292: real time    0.0294
    FORLOC:  cpu time    0.0133: real time    0.0134
    FORNL :  cpu time    0.3099: real time    0.3115
    STRESS:  cpu time    0.9687: real time    0.9745
    FORCOR:  cpu time    0.0421: real time    0.0422
    FORHAR:  cpu time    0.0185: real time    0.0185
    MIXING:  cpu time    0.0012: real time    0.0012
    OFIELD:  cpu time    0.0000: real time    0.0000

  FORCE on cell =-STRESS in cart. coord.  units (eV):
  Direction    XX          YY          ZZ          XY          YZ          ZX
  --------------------------------------------------------------------------------------
  Alpha Z  1586.98040  1586.98040  1586.98040
  Ewald   -6090.58407 -6587.60245 -8028.61551   -50.57924     1.59117  -268.29486
  Hartree  3200.60324  2701.34947  1357.12504   -40.45516   -31.38161  -223.02686
  E(xc)   -1336.90438 -1336.79900 -1337.29326    -0.02000    -0.01745    -0.07034
  Local   -2510.16413 -1517.56031  1270.56787    91.52239    30.85784   492.82274
  n-local  -301.94934  -306.82095  -305.41877     0.09849    -2.43222     1.18490
  augment   225.04698   225.89547   225.46368     0.03806     0.24820    -0.24022
  Kinetic  5226.80236  5234.38313  5231.00357    -0.60448     1.14802    -2.37266
  Fock        0.00000     0.00000     0.00000     0.00000     0.00000     0.00000
  -------------------------------------------------------------------------------------
  Total      -0.16894    -0.17424    -0.18698     0.00007     0.01395     0.00270
  in kB      -0.37240    -0.38408    -0.41218     0.00016     0.03075     0.00596
  external pressure =       -0.39 kB  Pullay stress =        0.00 kB


 VOLUME and BASIS-vectors are now :
 -----------------------------------------------------------------------------
  energy-cutoff  :      300.00
  volume of cell :      726.82
      direct lattice vectors                 reciprocal lattice vectors
     6.895538175  0.000949821 -0.007590059     0.145021490 -0.000021120  0.000158373
     0.001524525 10.271433120 -0.026228768    -0.000013139  0.097358030  0.000246891
    -0.011210571 -0.026025015 10.261988992     0.000107228  0.000248823  0.097447744

  length of vectors
     6.895542418 10.271466721 10.262028116     0.145021578  0.097358344  0.097448121


 FORCES acting on ions
    electron-ion (+dipol)            ewald-force                    non-local-force                 convergence-correction
 -----------------------------------------------------------------------------------------------
   0.311E+02 -.472E+02 -.103E+03   -.309E+02 0.465E+02 0.103E+03   -.135E+00 0.671E+00 -.248E+00   0.870E-03 -.202E-03 -.315E-03
   -.113E+02 -.201E+01 0.155E+02   0.110E+02 0.226E+01 -.147E+02   0.278E+00 -.250E+00 -.775E+00   -.109E-03 0.396E-02 -.153E-02
   0.282E+02 -.682E+02 -.244E+02   -.281E+02 0.686E+02 0.236E+02   -.487E-01 -.344E+00 0.761E+00   0.490E-03 0.107E-03 0.196E-02
   -.480E+02 0.451E+02 0.125E+03   0.476E+02 -.452E+02 -.125E+03   0.382E+00 0.398E-01 -.138E+00   0.224E-03 0.352E-03 0.450E-03
   0.765E+01 -.165E+02 0.221E+02   -.728E+01 0.168E+02 -.213E+02   -.370E+00 -.375E+00 -.763E+00   0.152E-03 0.433E-02 -.122E-02
   0.200E+02 0.105E+02 0.122E+03   -.199E+02 -.103E+02 -.121E+03   -.142E+00 -.114E+00 -.371E+00   -.622E-03 0.744E-03 -.682E-03
   -.415E+02 -.694E+02 -.104E+03   0.412E+02 0.688E+02 0.104E+03   0.284E+00 0.557E+00 0.388E+00   -.110E-03 0.109E-02 0.275E-02
   -.247E+02 0.666E+02 -.484E+02   0.252E+02 -.657E+02 0.479E+02   -.457E+00 -.807E+00 0.495E+00   -.325E-03 0.853E-04 0.649E-02
   0.612E+01 0.157E+02 0.409E+02   -.572E+01 -.161E+02 -.408E+02   -.394E+00 0.476E+00 -.637E-01   -.521E-03 -.232E-02 -.436E-02
   -.468E+02 -.250E+02 0.468E+03   0.466E+02 0.251E+02 -.468E+03   0.132E+00 -.167E+00 0.498E-01   0.260E-02 0.468E-02 0.405E-03
   -.311E+02 -.267E+03 0.342E+03   0.308E+02 0.266E+03 -.343E+03   0.326E+00 0.577E+00 0.382E+00   -.241E-02 -.576E-02 -.734E-02
   0.551E+02 -.135E+03 -.124E+03   -.550E+02 0.135E+03 0.124E+03   -.146E+00 -.163E+00 0.325E+00   0.590E-02 -.214E-02 0.305E-02
   0.108E+02 0.116E+03 0.163E+03   -.114E+02 -.116E+03 -.163E+03   0.535E+00 0.640E+00 0.121E+00   -.119E-02 -.121E-01 -.894E-02
   0.277E+02 0.357E+03 0.310E+02   -.269E+02 -.357E+03 -.310E+02   -.789E+00 0.708E+00 -.685E-01   0.448E-02 0.105E-01 0.835E-02
   0.566E+02 0.430E+02 -.316E+03   -.573E+02 -.435E+02 0.315E+03   0.721E+00 0.504E+00 0.755E+00   -.168E-02 -.470E-02 0.130E-02
   0.328E+02 -.327E+03 0.264E+03   -.325E+02 0.327E+03 -.265E+03   -.370E+00 0.338E+00 0.467E+00   0.377E-02 -.287E-02 -.108E-01
   -.266E+02 -.101E+02 0.356E+02   0.265E+02 0.110E+02 -.364E+02   0.842E-01 -.863E+00 0.834E+00   -.286E-02 -.922E-03 -.466E-02
   -.251E+02 0.274E+03 0.145E+03   0.243E+02 -.275E+03 -.145E+03   0.800E+00 0.992E+00 0.136E+00   -.725E-02 0.379E-02 0.664E-02
   0.169E+02 -.430E+02 0.820E+02   -.175E+02 0.434E+02 -.812E+02   0.519E+00 -.373E+00 -.772E+00   0.527E-03 0.139E-02 -.736E-02
   -.138E+02 0.556E+02 0.752E+02   0.136E+02 -.552E+02 -.755E+02   0.182E+00 -.426E+00 0.251E+00   -.499E-03 0.324E-03 -.387E-02
   0.318E+02 0.880E+02 -.507E+02   -.321E+02 -.872E+02 0.505E+02   0.314E+00 -.804E+00 0.196E+00   0.475E-03 0.756E-03 0.802E-02
   0.361E+02 0.344E+02 -.749E+02   -.360E+02 -.343E+02 0.748E+02   -.965E-01 -.155E+00 0.933E-01   0.145E-02 -.409E-02 0.106E-02
   -.398E+02 -.235E+02 0.982E+01   0.385E+02 0.232E+02 -.922E+01   0.123E+01 0.332E+00 -.596E+00   0.525E-03 -.325E-02 -.253E-02
   0.236E+02 0.399E+02 -.951E+01   -.232E+02 -.400E+02 0.100E+02   -.394E+00 0.691E-01 -.496E+00   -.377E-03 -.154E-02 -.428E-02
   -.172E+02 -.384E+02 0.974E+02   0.178E+02 0.390E+02 -.969E+02   -.571E+00 -.527E+00 -.521E+00   -.626E-03 0.155E-02 -.820E-02
   0.131E+02 0.724E+02 0.720E+02   -.128E+02 -.722E+02 -.722E+02   -.273E+00 -.212E+00 0.207E+00   0.689E-03 -.285E-04 -.413E-02
   0.320E+02 -.121E+02 0.289E+02   -.307E+02 0.118E+02 -.287E+02   -.131E+01 0.265E+00 -.281E+00   0.150E-03 -.367E-02 -.224E-02
   0.834E+02 -.205E+03 -.310E+03   -.830E+02 0.204E+03 0.310E+03   -.370E+00 0.719E+00 0.405E+00   -.491E-03 0.128E-02 0.887E-02
   0.164E+03 0.434E+02 -.949E+02   -.164E+03 -.431E+02 0.945E+02   -.393E+00 -.335E+00 0.397E+00   0.240E-02 0.106E-01 0.118E-01
   -.408E+02 0.652E+02 -.808E+02   0.400E+02 -.652E+02 0.816E+02   0.741E+00 -.223E-01 -.839E+00   0.197E-02 -.470E-02 -.115E-01
   -.649E+02 -.147E+03 -.351E+03   0.645E+02 0.147E+03 0.352E+03   0.354E+00 0.365E+00 -.673E+00   -.299E-02 -.123E-02 -.838E-03
   -.155E+03 0.418E+02 -.160E+03   0.155E+03 -.413E+02 0.160E+03   0.365E+00 -.547E+00 0.209E+00   -.170E-02 0.120E-01 0.121E-01
   -.753E+02 -.208E+03 -.238E+02   0.751E+02 0.208E+03 0.231E+02   0.127E+00 -.329E+00 0.682E+00   -.156E-02 0.113E-02 0.739E-02
   -.784E+02 0.107E+03 -.248E+03   0.783E+02 -.107E+03 0.248E+03   0.855E-01 0.128E+00 -.320E+00   -.302E-02 -.133E-01 0.258E-02
   0.122E+03 0.150E+03 0.322E+03   -.121E+03 -.150E+03 -.322E+03   -.452E+00 -.126E+00 -.511E-01   -.191E-02 0.173E-02 -.103E-02
   -.591E+02 0.192E+02 -.338E+03   0.597E+02 -.195E+02 0.337E+03   -.640E+00 0.247E+00 0.509E+00   0.796E-03 -.438E-02 0.689E-02
 -----------------------------------------------------------------------------------------------
   -.974E-01 -.680E+00 -.691E+00   0.782E-13 0.309E-12 0.171E-12   0.998E-01 0.688E+00 0.686E+00   -.276E-02 -.684E-02 0.425E-02
 
 
 POSITION                                       TOTAL-FORCE (eV/Angst)
 -----------------------------------------------------------------------------------
      0.09569     10.15757     -0.02392        -0.001589     -0.001686      0.000952
      1.66455      1.79833      1.88233        -0.003813     -0.000015      0.004039
      0.04295      3.39093      6.76802        -0.000304      0.002716     -0.003436
      1.63549      8.53258      5.13020        -0.002330     -0.000753      0.002784
      5.21510      1.86945      1.70790         0.003182      0.000270      0.001887
      3.48408     10.18490      3.34181         0.000861      0.002997      0.000467
      5.08774      1.58669      8.52661        -0.001184     -0.000329     -0.001962
      5.19428      5.24102      8.48490         0.000123     -0.001601      0.008106
      3.49165      6.84328      3.35963         0.001050     -0.003204     -0.002190
      6.83013      0.03941      3.42253         0.000149     -0.001085     -0.002158
      1.69915      1.65773      5.01905        -0.000680     -0.000241     -0.000891
      0.05255      0.10757      6.81357         0.000588     -0.000702      0.000110
      6.80964      6.74161      3.42080         0.002224     -0.000325     -0.006994
      0.04673      6.77119      6.84766         0.002778     -0.007173      0.004034
      1.67551      8.47261      8.37035        -0.000285     -0.002388      0.000966
      5.19093      1.65705      5.04924        -0.000781     -0.000563     -0.000036
      3.44044      0.06597      6.58068        -0.002300     -0.002453      0.003056
      3.35170      6.75548      6.76879        -0.003413     -0.001163      0.003178
      6.78786      3.45375      3.64924        -0.001674      0.001076      0.000391
      1.67443      5.20430      5.08701        -0.001182      0.002125      0.002576
      1.66286      5.34907      8.44509         0.001347      0.003923     -0.001754
      0.02179      6.88714     -0.00622         0.001677      0.004581      0.001965
      1.45084      8.46363      1.87388        -0.001809      0.001374     -0.003653
      5.23839      5.05868      1.76009         0.003751      0.002383     -0.000145
      3.52058      3.49974      3.55390         0.001126      0.002098      0.001416
      5.17440      5.19675      5.13446         0.002663      0.000357     -0.003462
      5.41710      8.44438      1.74275         0.003331      0.000988      0.001115
      1.93191      1.47950      8.44895        -0.002897     -0.003571     -0.005206
      0.13727      3.44061     10.06974         0.003232     -0.001675     -0.000019
      1.61514      5.08178      1.83250        -0.002193      0.001187     -0.000728
      3.41208     10.05052      0.17615        -0.000623      0.005525     -0.004111
      3.32593      3.53087     10.20649        -0.002928     -0.003740      0.003503
      3.41136      3.44389      6.73338        -0.000904      0.001223     -0.001282
      3.41592      6.89812      0.08044        -0.000587      0.001674      0.000523
      5.23859      8.54634      5.18644         0.002595     -0.000738     -0.001925
      5.16845      8.55660      8.41199         0.000800     -0.001093     -0.001118
 -----------------------------------------------------------------------------------
    total drift:                               -0.000380      0.000374     -0.000424


--------------------------------------------------------------------------------------------------------



  FREE ENERGIE OF THE ION-ELECTRON SYSTEM (eV)
  ---------------------------------------------------
  free  energy   TOTEN  =      -361.69410092 eV

  energy  without entropy=     -361.71828819  energy(sigma->0) =     -361.70216334
 
 d Force = 0.3969769E-04[ 0.300E-04, 0.494E-04]  d Energy = 0.6031994E-05 0.337E-04
 d Force = 0.5105178E+00[ 0.510E+00, 0.511E+00]  d Ewald  =-0.1137022E+01 0.165E+01


--------------------------------------------------------------------------------------------------------


    POTLOK:  cpu time    0.0783: real time    0.0785


--------------------------------------------------------------------------------------------------------




--------------------------------------------------------------------------------------------------------


  
 reached required accuracy - stopping structural energy minimisation
     LOOP+:  cpu time    5.8266: real time    6.5298
    4ORBIT:  cpu time    0.0000: real time    0.0000

 total amount of memory used by VASP on root node    67997. kBytes
========================================================================

   base      :      30000. kBytes
   nonlr-proj:      10452. kBytes
   fftplans  :       2814. kBytes
   grid      :       5360. kBytes
   one-center:        124. kBytes
   wavefun   :      19247. kBytes
 
  
  
 General timing and accounting informations for this job:
 ========================================================
  
                  Total CPU time used (sec):       92.225
                            User time (sec):       91.638
                          System time (sec):        0.587
                         Elapsed time (sec):      107.841
  
                   Maximum memory used (kb):      246332.
                   Average memory used (kb):           0.
  
                          Minor page faults:        71302
                          Major page faults:           34
                 Voluntary context switches:         4402
