   16   16  300    1
  0.2158537E+02  0.6924151E-09  0.7095293E-09  0.7030383E-09  0.1500000E-15
  1.000000000000000E-004
  CAR 
 automatically generated by mexm         
    140     14     84
