<?xml version="1.0" encoding="ISO-8859-1"?>
<modeling>
 <generator>
  <i name="program" type="string">vasp </i>
  <i name="version" type="string">5.4.1  </i>
  <i name="subversion" type="string">05Feb16 (build Jan 29 2020 16:04:39) complex                          parallel </i>
  <i name="platform" type="string">IFC91_ompi </i>
  <i name="date" type="string">2020 05 18 </i>
  <i name="time" type="string">17:05:49 </i>
 </generator>
 <incar>
  <i type="string" name="SYSTEM"> automatically generated by mexm</i>
  <i type="int" name="ISTART">     0</i>
  <i type="string" name="PREC">accurate               ! avoid wrap aro</i>
  <i type="string" name="ALGO"> Fast                   ! blocked Davids</i>
  <i type="int" name="ISPIN">     1</i>
  <i type="int" name="ICHARG">     2</i>
  <i type="int" name="NELM">    70</i>
  <i type="int" name="IBRION">     2</i>
  <i name="EDIFF">      0.00001000</i>
  <i name="EDIFFG">     -0.01000000</i>
  <i type="int" name="NSW">   300</i>
  <i type="int" name="ISIF">     3</i>
  <i type="int" name="ISYM">     1</i>
  <i name="ENCUT">    300.00000000</i>
  <i name="POTIM">      0.15000000</i>
  <i type="string" name="LREAL"> Auto                  ! unpublished met</i>
  <i type="int" name="ISMEAR">     1</i>
  <i name="SIGMA">      0.15000000</i>
  <i type="logical" name="LWAVE"> F  </i>
  <i type="logical" name="LCHARG"> F  </i>
  <i type="logical" name="LVTOT"> F  </i>
  <v type="int" name="KPOINT_BSE">    -1     0     0     0</v>
  <i type="int" name="NELM">    70</i>
 </incar>
 <kpoints>
  <generation param="Gamma">
   <v type="int" name="divisions">       3        3        3 </v>
   <v name="usershift">      0.00000000       0.00000000       0.00000000 </v>
   <v name="genvec1">      0.33333333       0.00000000      -0.00000000 </v>
   <v name="genvec2">      0.00000000       0.33333333       0.00000000 </v>
   <v name="genvec3">      0.00000000       0.00000000       0.33333333 </v>
   <v name="shift">      0.00000000       0.00000000       0.00000000 </v>
  </generation>
  <varray name="kpointlist" >
   <v>       0.00000000       0.00000000       0.00000000 </v>
   <v>       0.33333333      -0.00000000      -0.00000000 </v>
   <v>      -0.00000000       0.33333333       0.00000000 </v>
   <v>       0.33333333       0.33333333      -0.00000000 </v>
   <v>      -0.33333333       0.33333333       0.00000000 </v>
   <v>       0.00000000      -0.00000000       0.33333333 </v>
   <v>       0.33333333      -0.00000000       0.33333333 </v>
   <v>      -0.33333333      -0.00000000       0.33333333 </v>
   <v>       0.00000000       0.33333333       0.33333333 </v>
   <v>       0.33333333       0.33333333       0.33333333 </v>
   <v>      -0.33333333       0.33333333       0.33333333 </v>
   <v>      -0.00000000      -0.33333333       0.33333333 </v>
   <v>       0.33333333      -0.33333333       0.33333333 </v>
   <v>      -0.33333333      -0.33333333       0.33333333 </v>
  </varray>
  <varray name="weights" >
   <v>       0.03703704 </v>
   <v>       0.07407407 </v>
   <v>       0.07407407 </v>
   <v>       0.07407407 </v>
   <v>       0.07407407 </v>
   <v>       0.07407407 </v>
   <v>       0.07407407 </v>
   <v>       0.07407407 </v>
   <v>       0.07407407 </v>
   <v>       0.07407407 </v>
   <v>       0.07407407 </v>
   <v>       0.07407407 </v>
   <v>       0.07407407 </v>
   <v>       0.07407407 </v>
  </varray>
 </kpoints>
 <parameters>
  <separator name="general" >
   <i type="string" name="SYSTEM">automatically generated by mexm</i>
   <i type="logical" name="LCOMPAT"> F  </i>
  </separator>
  <separator name="electronic" >
   <i type="string" name="PREC">accura</i>
   <i name="ENMAX">    300.00000000</i>
   <i name="ENAUG">    461.25700000</i>
   <i name="EDIFF">      0.00001000</i>
   <i type="int" name="IALGO">    68</i>
   <i type="int" name="IWAVPR">    11</i>
   <i type="int" name="NBANDS">    84</i>
   <i name="NELECT">    140.00000000</i>
   <i type="int" name="TURBO">     0</i>
   <i type="int" name="IRESTART">     0</i>
   <i type="int" name="NREBOOT">     0</i>
   <i type="int" name="NMIN">     0</i>
   <i name="EREF">      0.00000000</i>
   <separator name="electronic smearing" >
    <i type="int" name="ISMEAR">     1</i>
    <i name="SIGMA">      0.15000000</i>
    <i name="KSPACING">      0.50000000</i>
    <i type="logical" name="KGAMMA"> T  </i>
   </separator>
   <separator name="electronic projectors" >
    <i type="logical" name="LREAL"> T  </i>
    <v name="ROPT">     -0.00025000     -0.00025000     -0.00025000     -0.00025000</v>
    <i type="int" name="LMAXPAW">  -100</i>
    <i type="int" name="LMAXMIX">     2</i>
    <i type="logical" name="NLSPLINE"> F  </i>
   </separator>
   <separator name="electronic startup" >
    <i type="int" name="ISTART">     0</i>
    <i type="int" name="ICHARG">     2</i>
    <i type="int" name="INIWAV">     1</i>
   </separator>
   <separator name="electronic spin" >
    <i type="int" name="ISPIN">     1</i>
    <i type="logical" name="LNONCOLLINEAR"> F  </i>
    <v name="MAGMOM">      1.00000000      1.00000000      1.00000000      1.00000000      1.00000000      1.00000000      1.00000000      1.00000000      1.00000000      1.00000000      1.00000000      1.00000000      1.00000000      1.00000000      1.00000000      1.00000000</v>
    <i name="NUPDOWN">     -1.00000000</i>
    <i type="logical" name="LSORBIT"> F  </i>
    <v name="SAXIS">      0.00000000      0.00000000      1.00000000</v>
    <i type="logical" name="LSPIRAL"> F  </i>
    <v name="QSPIRAL">      0.00000000      0.00000000      0.00000000</v>
    <i type="logical" name="LZEROZ"> F  </i>
   </separator>
   <separator name="electronic exchange-correlation" >
    <i type="logical" name="LASPH"> F  </i>
    <i type="logical" name="LMETAGGA"> F  </i>
   </separator>
   <separator name="electronic convergence" >
    <i type="int" name="NELM">    70</i>
    <i type="int" name="NELMDL">    -5</i>
    <i type="int" name="NELMIN">     2</i>
    <i name="ENINI">    300.00000000</i>
    <separator name="electronic convergence detail" >
     <i type="logical" name="LDIAG"> T  </i>
     <i type="logical" name="LSUBROT"> F  </i>
     <i name="WEIMIN">      0.00100000</i>
     <i name="EBREAK">      0.00000003</i>
     <i name="DEPER">      0.30000000</i>
     <i type="int" name="NRMM">     4</i>
     <i name="TIME">      0.40000000</i>
    </separator>
   </separator>
   <separator name="electronic mixer" >
    <i name="AMIX">      0.40000000</i>
    <i name="BMIX">      1.00000000</i>
    <i name="AMIN">      0.10000000</i>
    <i name="AMIX_MAG">      1.60000000</i>
    <i name="BMIX_MAG">      1.00000000</i>
    <separator name="electronic mixer details" >
     <i type="int" name="IMIX">     4</i>
     <i type="logical" name="MIXFIRST"> F  </i>
     <i type="int" name="MAXMIX">   -45</i>
     <i name="WC">    100.00000000</i>
     <i type="int" name="INIMIX">     1</i>
     <i type="int" name="MIXPRE">     1</i>
     <i type="int" name="MREMOVE">     5</i>
    </separator>
   </separator>
   <separator name="electronic dipolcorrection" >
    <i type="logical" name="LDIPOL"> F  </i>
    <i type="logical" name="LMONO"> F  </i>
    <i type="int" name="IDIPOL">     0</i>
    <i name="EPSILON">      1.00000000</i>
    <v name="DIPOL">   -100.00000000   -100.00000000   -100.00000000</v>
    <i name="EFIELD">      0.00000000</i>
   </separator>
  </separator>
  <separator name="grids" >
   <i type="int" name="NGX">    40</i>
   <i type="int" name="NGY">    40</i>
   <i type="int" name="NGZ">    40</i>
   <i type="int" name="NGXF">    80</i>
   <i type="int" name="NGYF">    80</i>
   <i type="int" name="NGZF">    80</i>
   <i type="logical" name="ADDGRID"> F  </i>
  </separator>
  <separator name="ionic" >
   <i type="int" name="NSW">   300</i>
   <i type="int" name="IBRION">     2</i>
   <i type="int" name="ISIF">     3</i>
   <i name="PSTRESS">      0.00000000</i>
   <i name="EDIFFG">     -0.01000000</i>
   <i type="int" name="NFREE">     1</i>
   <i name="POTIM">      0.15000000</i>
   <i name="SMASS">     -3.00000000</i>
   <i name="SCALEE">      1.00000000</i>
  </separator>
  <separator name="ionic md" >
   <i name="TEBEG">      0.00010000</i>
   <i name="TEEND">      0.00010000</i>
   <i type="int" name="NBLOCK">     1</i>
   <i type="int" name="KBLOCK">   300</i>
   <i type="int" name="NPACO">   256</i>
   <i name="APACO">     16.00000000</i>
  </separator>
  <separator name="symmetry" >
   <i type="int" name="ISYM">     1</i>
   <i name="SYMPREC">      0.00001000</i>
  </separator>
  <separator name="dos" >
   <i type="logical" name="LORBIT"> F  </i>
   <v name="RWIGS">     -1.00000000     -1.00000000     -1.00000000     -1.00000000</v>
   <i type="int" name="NEDOS">   301</i>
   <i name="EMIN">     10.00000000</i>
   <i name="EMAX">    -10.00000000</i>
   <i name="EFERMI">      0.00000000</i>
  </separator>
  <separator name="writing" >
   <i type="int" name="NWRITE">     2</i>
   <i type="logical" name="LWAVE"> F  </i>
   <i type="logical" name="LCHARG"> F  </i>
   <i type="logical" name="LPARD"> F  </i>
   <i type="logical" name="LVTOT"> F  </i>
   <i type="logical" name="LVHAR"> F  </i>
   <i type="logical" name="LELF"> F  </i>
   <i type="logical" name="LOPTICS"> F  </i>
   <v name="STM">      0.00000000      0.00000000      0.00000000      0.00000000      0.00000000      0.00000000      0.00000000</v>
  </separator>
  <separator name="performance" >
   <i type="int" name="NPAR">     4</i>
   <i type="int" name="NSIM">     4</i>
   <i type="int" name="NBLK">    -1</i>
   <i type="logical" name="LPLANE"> T  </i>
   <i type="logical" name="LSCALAPACK"> T  </i>
   <i type="logical" name="LSCAAWARE"> F  </i>
   <i type="logical" name="LSCALU"> F  </i>
   <i type="logical" name="LASYNC"> F  </i>
   <i type="logical" name="LORBITALREAL"> F  </i>
  </separator>
  <separator name="miscellaneous" >
   <i type="int" name="IDIOT">     3</i>
   <i type="logical" name="LMUSIC"> F  </i>
   <v name="POMASS">    180.94800000    178.49000000     91.22400000     92.91000000</v>
   <v name="DARWINR">      0.00000000      0.00000000      0.00000000      0.00000000</v>
   <v name="DARWINV">      1.00000000      1.00000000      1.00000000      1.00000000</v>
   <i type="logical" name="LCORR"> T  </i>
  </separator>
  <i type="logical" name="GGA_COMPAT"> T  </i>
  <i type="logical" name="LBERRY"> F  </i>
  <i type="int" name="ICORELEVEL">     0</i>
  <i type="logical" name="LDAU"> F  </i>
  <i type="int" name="I_CONSTRAINED_M">     0</i>
  <separator name="electronic exchange-correlation" >
   <i type="string" name="GGA">--</i>
   <i type="int" name="VOSKOWN">     0</i>
   <i type="logical" name="LHFCALC"> F  </i>
   <i type="string" name="PRECFOCK"></i>
   <i type="logical" name="LSYMGRAD"> F  </i>
   <i type="logical" name="LHFONE"> F  </i>
   <i type="logical" name="LRHFCALC"> F  </i>
   <i type="logical" name="LTHOMAS"> F  </i>
   <i type="logical" name="LMODELHF"> F  </i>
   <i name="ENCUT4O">     -1.00000000</i>
   <i type="int" name="EXXOEP">     0</i>
   <i type="int" name="FOURORBIT">     0</i>
   <i name="AEXX">      0.00000000</i>
   <i name="HFALPHA">      0.00000000</i>
   <i name="MCALPHA">      0.00000000</i>
   <i name="ALDAX">      1.00000000</i>
   <i name="AGGAX">      1.00000000</i>
   <i name="ALDAC">      1.00000000</i>
   <i name="AGGAC">      1.00000000</i>
   <i type="int" name="NKREDX">     1</i>
   <i type="int" name="NKREDY">     1</i>
   <i type="int" name="NKREDZ">     1</i>
   <i type="logical" name="SHIFTRED"> F  </i>
   <i type="logical" name="ODDONLY"> F  </i>
   <i type="logical" name="EVENONLY"> F  </i>
   <i type="int" name="LMAXFOCK">     0</i>
   <i type="int" name="NMAXFOCKAE">     0</i>
   <i type="logical" name="LFOCKAEDFT"> F  </i>
   <i name="HFSCREEN">      0.00000000</i>
   <i name="HFSCREENC">      0.00000000</i>
   <i type="int" name="NBANDSGWLOW">     0</i>
  </separator>
  <separator name="vdW DFT" >
   <i type="logical" name="LUSE_VDW"> F  </i>
   <i name="Zab_VDW">     -0.84910000</i>
   <i name="PARAM1">      0.12340000</i>
   <i name="PARAM2">      1.00000000</i>
   <i name="PARAM3">      0.00000000</i>
  </separator>
  <separator name="model GW" >
   <i type="int" name="MODEL_GW">     0</i>
   <i name="MODEL_EPS0">     12.95121981</i>
   <i name="MODEL_ALPHA">      1.00000000</i>
  </separator>
  <separator name="linear response parameters" >
   <i type="logical" name="LEPSILON"> F  </i>
   <i type="logical" name="LRPA"> F  </i>
   <i type="logical" name="LNABLA"> F  </i>
   <i type="logical" name="LVEL"> F  </i>
   <i type="int" name="KINTER">     0</i>
   <i name="CSHIFT">      0.10000000</i>
   <i name="OMEGAMAX">     -1.00000000</i>
   <i name="DEG_THRESHOLD">      0.00200000</i>
  </separator>
  <separator name="orbital magnetization" >
   <i type="logical" name="NUCIND"> F  </i>
   <v name="MAGPOS">      0.00000000      0.00000000      0.00000000</v>
   <i type="logical" name="LNICSALL"> T  </i>
   <i type="logical" name="ORBITALMAG"> F  </i>
   <i type="logical" name="LMAGBLOCH"> F  </i>
   <i type="logical" name="LCHIMAG"> F  </i>
   <i type="logical" name="LGAUGE"> T  </i>
   <i type="int" name="MAGATOM">     0</i>
   <v name="MAGDIPOL">      0.00000000      0.00000000      0.00000000</v>
   <v name="AVECCONST">      0.00000000      0.00000000      0.00000000</v>
  </separator>
  <separator name="response functions" >
   <i type="logical" name="LADDER"> F  </i>
   <i type="logical" name="LFXC"> F  </i>
   <i type="logical" name="LHARTREE"> T  </i>
   <i type="int" name="IBSE">     0</i>
   <v type="int" name="KPOINT">    -1     0     0     0</v>
   <i type="logical" name="LTCTE"> F  </i>
   <i type="logical" name="LTETE"> F  </i>
   <i type="logical" name="LTRIPLET"> F  </i>
   <i type="logical" name="LFXCEPS"> F  </i>
   <i type="logical" name="LFXHEG"> F  </i>
   <i type="int" name="NATURALO">     0</i>
   <i type="logical" name="L2ORDER"> F  </i>
   <i type="logical" name="LUSEW"> F  </i>
   <i name="ENCUTGW">     -2.00000000</i>
   <i name="ENCUTGWSOFT">     -2.00000000</i>
   <i name="ENCUTLF">     -1.00000000</i>
   <i type="int" name="LMAXMP2">    -1</i>
   <i name="SCISSOR">      0.00000000</i>
   <i type="int" name="NOMEGA">     0</i>
   <i type="int" name="NOMEGAR">     0</i>
   <i type="int" name="NBANDSGW">    -1</i>
   <i type="int" name="NBANDSO">    -1</i>
   <i type="int" name="NBANDSV">    -1</i>
   <i type="int" name="NELM">    70</i>
   <i type="int" name="NELMHF">     1</i>
   <i type="int" name="DIM">     3</i>
   <i type="int" name="ANTIRES">     0</i>
   <i name="OMEGAMAX">    -30.00000000</i>
   <i name="OMEGAMIN">    -30.00000000</i>
   <i name="OMEGATL">   -200.00000000</i>
   <i type="int" name="OMEGAGRID">     0</i>
   <i name="CSHIFT">     -0.10000000</i>
   <i type="logical" name="SELFENERGY"> F  </i>
   <i type="logical" name="LSPECTRAL"> F  </i>
   <i type="logical" name="LSPECTRALGW"> F  </i>
   <i type="logical" name="LSINGLES"> F  </i>
   <i type="logical" name="LFERMIGW"> F  </i>
   <i type="logical" name="ODDONLYGW"> F  </i>
   <i type="logical" name="EVENONLYGW"> F  </i>
   <i type="int" name="NKREDLFX">     1</i>
   <i type="int" name="NKREDLFY">     1</i>
   <i type="int" name="NKREDLFZ">     1</i>
   <i type="int" name="MAXMEM">  1800</i>
   <i type="int" name="TELESCOPE">     0</i>
   <i type="int" name="TAUPAR">     1</i>
   <i type="int" name="OMEGAPAR">    -1</i>
   <i name="LAMBDA">      1.00000000</i>
  </separator>
  <separator name="External order field" >
   <i name="OFIELD_KAPPA">      0.00000000</i>
   <v name="OFIELD_K">      0.00000000      0.00000000      0.00000000</v>
   <i name="OFIELD_Q6_NEAR">      0.00000000</i>
   <i name="OFIELD_Q6_FAR">      0.00000000</i>
   <i name="OFIELD_A">      0.00000000</i>
  </separator>
 </parameters>
 <atominfo>
  <atoms>      16 </atoms>
  <types>       4 </types>
  <array name="atoms" >
   <dimension dim="1">ion</dimension>
   <field type="string">element</field>
   <field type="int">atomtype</field>
   <set>
    <rc><c>Ta</c><c>   1</c></rc>
    <rc><c>Ta</c><c>   1</c></rc>
    <rc><c>Ta</c><c>   1</c></rc>
    <rc><c>Hf</c><c>   2</c></rc>
    <rc><c>Hf</c><c>   2</c></rc>
    <rc><c>Hf</c><c>   2</c></rc>
    <rc><c>Hf</c><c>   2</c></rc>
    <rc><c>Zr</c><c>   3</c></rc>
    <rc><c>Zr</c><c>   3</c></rc>
    <rc><c>Zr</c><c>   3</c></rc>
    <rc><c>Zr</c><c>   3</c></rc>
    <rc><c>Zr</c><c>   3</c></rc>
    <rc><c>Zr</c><c>   3</c></rc>
    <rc><c>Zr</c><c>   3</c></rc>
    <rc><c>Zr</c><c>   3</c></rc>
    <rc><c>Nb</c><c>   4</c></rc>
   </set>
  </array>
  <array name="atomtypes" >
   <dimension dim="1">type</dimension>
   <field type="int">atomspertype</field>
   <field type="string">element</field>
   <field>mass</field>
   <field>valence</field>
   <field type="string">pseudopotential</field>
   <set>
    <rc><c>   3</c><c>Ta</c><c>    180.94800000</c><c>      5.00000000</c><c>  PAW_PBE Ta 17Jan2003                  </c></rc>
    <rc><c>   4</c><c>Hf</c><c>    178.49000000</c><c>      4.00000000</c><c>  PAW_PBE Hf 20Jan2003                  </c></rc>
    <rc><c>   8</c><c>Zr</c><c>     91.22400000</c><c>     12.00000000</c><c>  PAW_PBE Zr_sv 04Jan2005               </c></rc>
    <rc><c>   1</c><c>Nb</c><c>     92.91000000</c><c>     13.00000000</c><c>  PAW_PBE Nb_sv 25May2007               </c></rc>
   </set>
  </array>
 </atominfo>
 <structure name="initialpos" >
  <crystal>
   <varray name="basis" >
    <v>       6.92414433       0.00493679      -0.00811414 </v>
    <v>       0.00555242       7.09514406       0.04557220 </v>
    <v>      -0.00690625       0.04394688       7.03024177 </v>
   </varray>
   <i name="volume">    345.36586157 </i>
   <varray name="rec_basis" >
    <v>       0.14442243      -0.00011394       0.00014259 </v>
    <v>      -0.00010153       0.14094720      -0.00088118 </v>
    <v>       0.00016735      -0.00091379       0.14224850 </v>
   </varray>
  </crystal>
  <varray name="positions" >
   <v>       0.99436619       0.46286852       0.47785819 </v>
   <v>       0.73912017       0.27246596       0.23873229 </v>
   <v>       0.51087617       0.52962969       0.00854900 </v>
   <v>       0.99095451       0.53103339       0.01825104 </v>
   <v>       0.25157622       0.72579275       0.72671174 </v>
   <v>       0.74034104       0.73228802       0.28546846 </v>
   <v>       0.75154789       0.72818354       0.72391017 </v>
   <v>       0.99622175       0.98617938       0.00191507 </v>
   <v>       0.26061780       0.26152153       0.22406886 </v>
   <v>       0.99380341       0.02673595       0.49376475 </v>
   <v>       0.25089439       0.27360701       0.76229115 </v>
   <v>       0.25811180       0.73492707       0.28288356 </v>
   <v>       0.50362898       0.97712086       0.99811386 </v>
   <v>       0.50454953       0.02222276       0.50535649 </v>
   <v>       0.74873224       0.27342755       0.76262097 </v>
   <v>       0.50465790       0.46199603       0.48950441 </v>
  </varray>
 </structure>
 <calculation>
  <scstep>
   <time name="dav">    0.18    0.19</time>
   <time name="total">    0.20    0.23</time>
   <energy>
    <i name="alphaZ">    674.25223912 </i>
    <i name="ewald">  -9711.85897999 </i>
    <i name="hartreedc">  -3046.10189816 </i>
    <i name="XCdc">     43.66820151 </i>
    <i name="pawpsdc">  10328.32033343 </i>
    <i name="pawaedc">  -9700.96547995 </i>
    <i name="eentropy">     -0.00678091 </i>
    <i name="bandstr">   -202.68684264 </i>
    <i name="atom">  12524.00607526 </i>
    <i name="e_fr_energy">    908.62686767 </i>
    <i name="e_wo_entrp">    908.63364858 </i>
    <i name="e_0_energy">    908.62912797 </i>
   </energy>
  </scstep>
  <scstep>
   <time name="dav">    0.24    0.24</time>
   <time name="total">    0.24    0.25</time>
   <energy>
    <i name="e_fr_energy">    -32.31789814 </i>
    <i name="e_wo_entrp">    -32.32567362 </i>
    <i name="e_0_energy">    -32.32048996 </i>
   </energy>
  </scstep>
  <scstep>
   <time name="dav">    0.25    0.25</time>
   <time name="total">    0.25    0.26</time>
   <energy>
    <i name="e_fr_energy">   -144.19886060 </i>
    <i name="e_wo_entrp">   -144.18945868 </i>
    <i name="e_0_energy">   -144.19572662 </i>
   </energy>
  </scstep>
  <scstep>
   <time name="dav">    0.27    0.27</time>
   <time name="total">    0.27    0.27</time>
   <energy>
    <i name="e_fr_energy">   -157.71224675 </i>
    <i name="e_wo_entrp">   -157.70909975 </i>
    <i name="e_0_energy">   -157.71119775 </i>
   </energy>
  </scstep>
  <scstep>
   <time name="dav">    0.26    0.27</time>
   <time name="total">    0.28    0.29</time>
   <energy>
    <i name="e_fr_energy">   -158.88960781 </i>
    <i name="e_wo_entrp">   -158.88750964 </i>
    <i name="e_0_energy">   -158.88890842 </i>
   </energy>
  </scstep>
  <scstep>
   <time name="diag">    0.08    0.08</time>
   <time name="diis">    0.19    0.19</time>
   <time name="orth">    0.00    0.00</time>
   <time name="total">    0.30    0.30</time>
   <energy>
    <i name="e_fr_energy">   -154.41212855 </i>
    <i name="e_wo_entrp">   -154.41759789 </i>
    <i name="e_0_energy">   -154.41395167 </i>
   </energy>
  </scstep>
  <scstep>
   <time name="diag">    0.03    0.03</time>
   <time name="diis">    0.13    0.13</time>
   <time name="orth">    0.00    0.00</time>
   <time name="total">    0.20    0.20</time>
   <energy>
    <i name="e_fr_energy">   -153.65308192 </i>
    <i name="e_wo_entrp">   -153.67208960 </i>
    <i name="e_0_energy">   -153.65941781 </i>
   </energy>
  </scstep>
  <scstep>
   <time name="diag">    0.04    0.04</time>
   <time name="diis">    0.14    0.14</time>
   <time name="orth">    0.00    0.00</time>
   <time name="total">    0.20    0.21</time>
   <energy>
    <i name="e_fr_energy">   -152.27943072 </i>
    <i name="e_wo_entrp">   -152.29693839 </i>
    <i name="e_0_energy">   -152.28526661 </i>
   </energy>
  </scstep>
  <scstep>
   <time name="diag">    0.03    0.03</time>
   <time name="diis">    0.14    0.14</time>
   <time name="orth">    0.00    0.00</time>
   <time name="total">    0.20    0.21</time>
   <energy>
    <i name="e_fr_energy">   -152.28718286 </i>
    <i name="e_wo_entrp">   -152.30482587 </i>
    <i name="e_0_energy">   -152.29306387 </i>
   </energy>
  </scstep>
  <scstep>
   <time name="diag">    0.08    0.08</time>
   <time name="diis">    0.15    0.15</time>
   <time name="orth">    0.00    0.00</time>
   <time name="total">    0.27    0.28</time>
   <energy>
    <i name="e_fr_energy">   -152.27447331 </i>
    <i name="e_wo_entrp">   -152.29279070 </i>
    <i name="e_0_energy">   -152.28057911 </i>
   </energy>
  </scstep>
  <scstep>
   <time name="diag">    0.03    0.03</time>
   <time name="diis">    0.24    0.25</time>
   <time name="orth">    0.00    0.00</time>
   <time name="total">    0.30    0.30</time>
   <energy>
    <i name="e_fr_energy">   -152.27105273 </i>
    <i name="e_wo_entrp">   -152.28972677 </i>
    <i name="e_0_energy">   -152.27727741 </i>
   </energy>
  </scstep>
  <scstep>
   <time name="diag">    0.02    0.03</time>
   <time name="diis">    0.13    0.15</time>
   <time name="orth">    0.00    0.00</time>
   <time name="total">    0.18    0.23</time>
   <energy>
    <i name="e_fr_energy">   -152.27044070 </i>
    <i name="e_wo_entrp">   -152.28922367 </i>
    <i name="e_0_energy">   -152.27670169 </i>
   </energy>
  </scstep>
  <scstep>
   <time name="diag">    0.02    0.05</time>
   <time name="diis">    0.13    0.15</time>
   <time name="orth">    0.00    0.00</time>
   <time name="total">    0.18    0.24</time>
   <energy>
    <i name="e_fr_energy">   -152.27078382 </i>
    <i name="e_wo_entrp">   -152.28940239 </i>
    <i name="e_0_energy">   -152.27699001 </i>
   </energy>
  </scstep>
  <scstep>
   <time name="diag">    0.02    0.02</time>
   <time name="diis">    0.15    0.15</time>
   <time name="orth">    0.00    0.00</time>
   <time name="total">    0.20    0.21</time>
   <energy>
    <i name="e_fr_energy">   -152.27085835 </i>
    <i name="e_wo_entrp">   -152.28954282 </i>
    <i name="e_0_energy">   -152.27708650 </i>
   </energy>
  </scstep>
  <scstep>
   <time name="diag">    0.02    0.02</time>
   <time name="diis">    0.11    0.11</time>
   <time name="orth">    0.00    0.00</time>
   <time name="total">    0.17    0.18</time>
   <energy>
    <i name="e_fr_energy">   -152.27091156 </i>
    <i name="e_wo_entrp">   -152.28961716 </i>
    <i name="e_0_energy">   -152.27714676 </i>
   </energy>
  </scstep>
  <scstep>
   <time name="diag">    0.02    0.02</time>
   <time name="diis">    0.11    0.11</time>
   <time name="orth">    0.00    0.00</time>
   <time name="total">    0.15    0.16</time>
   <energy>
    <i name="e_fr_energy">   -152.27093572 </i>
    <i name="e_wo_entrp">   -152.28965148 </i>
    <i name="e_0_energy">   -152.27717430 </i>
   </energy>
  </scstep>
  <scstep>
   <time name="diag">    0.04    0.04</time>
   <time name="diis">    0.11    0.11</time>
   <time name="orth">    0.00    0.00</time>
   <time name="total">    0.24    0.24</time>
   <energy>
    <i name="e_fr_energy">   -152.27094551 </i>
    <i name="e_wo_entrp">   -152.28966105 </i>
    <i name="e_0_energy">   -152.27718402 </i>
   </energy>
  </scstep>
  <scstep>
   <time name="diag">    0.03    0.03</time>
   <time name="diis">    0.09    0.09</time>
   <time name="orth">    0.00    0.00</time>
   <time name="total">    0.13    0.14</time>
   <energy>
    <i name="alphaZ">    674.25223912 </i>
    <i name="ewald">  -9711.85897999 </i>
    <i name="hartreedc">  -2917.15295165 </i>
    <i name="XCdc">     41.35239372 </i>
    <i name="pawpsdc">  16303.89515993 </i>
    <i name="pawaedc"> -15668.34877109 </i>
    <i name="eentropy">      0.01871191 </i>
    <i name="bandstr">  -1398.43482739 </i>
    <i name="atom">  12524.00607526 </i>
    <i name="e_fr_energy">   -152.27095019 </i>
    <i name="e_wo_entrp">   -152.28966210 </i>
    <i name="e_0_energy">   -152.27718749 </i>
   </energy>
  </scstep>
  <structure>
   <crystal>
    <varray name="basis" >
     <v>       6.92414433       0.00493679      -0.00811414 </v>
     <v>       0.00555242       7.09514406       0.04557220 </v>
     <v>      -0.00690625       0.04394688       7.03024177 </v>
    </varray>
    <i name="volume">    345.36586157 </i>
    <varray name="rec_basis" >
     <v>       0.14442243      -0.00011394       0.00014259 </v>
     <v>      -0.00010153       0.14094720      -0.00088118 </v>
     <v>       0.00016735      -0.00091379       0.14224850 </v>
    </varray>
   </crystal>
   <varray name="positions" >
    <v>       0.99436619       0.46286852       0.47785819 </v>
    <v>       0.73912017       0.27246596       0.23873229 </v>
    <v>       0.51087617       0.52962969       0.00854900 </v>
    <v>       0.99095451       0.53103339       0.01825104 </v>
    <v>       0.25157622       0.72579275       0.72671174 </v>
    <v>       0.74034104       0.73228802       0.28546846 </v>
    <v>       0.75154789       0.72818354       0.72391017 </v>
    <v>       0.99622175       0.98617938       0.00191507 </v>
    <v>       0.26061780       0.26152153       0.22406886 </v>
    <v>       0.99380341       0.02673595       0.49376475 </v>
    <v>       0.25089439       0.27360701       0.76229115 </v>
    <v>       0.25811180       0.73492707       0.28288356 </v>
    <v>       0.50362898       0.97712086       0.99811386 </v>
    <v>       0.50454953       0.02222276       0.50535649 </v>
    <v>       0.74873224       0.27342755       0.76262097 </v>
    <v>       0.50465790       0.46199603       0.48950441 </v>
   </varray>
  </structure>
  <varray name="forces" >
   <v>      -0.00550807       0.00109772       0.00067710 </v>
   <v>       0.00448331       0.00599855      -0.00948345 </v>
   <v>       0.00526159       0.00641815      -0.00835557 </v>
   <v>      -0.00236475       0.00567504       0.00358421 </v>
   <v>      -0.00322660       0.00292239       0.00233272 </v>
   <v>       0.00424592      -0.00844651      -0.00571885 </v>
   <v>       0.00366724      -0.00035915       0.00057802 </v>
   <v>      -0.00791744      -0.00496768       0.00760312 </v>
   <v>       0.00073699       0.00350211      -0.00725087 </v>
   <v>      -0.00031331      -0.00857726       0.00123307 </v>
   <v>      -0.00532766       0.00166023       0.00313837 </v>
   <v>      -0.00125592      -0.00081165      -0.00436477 </v>
   <v>       0.00203970      -0.00520324       0.00386273 </v>
   <v>       0.00246343      -0.00832397      -0.00884881 </v>
   <v>       0.00079046       0.00124268       0.01243772 </v>
   <v>       0.00222511       0.00817259       0.00857527 </v>
  </varray>
  <varray name="stress" >
   <v>      -4.22669471      -0.00436457      -0.03667490 </v>
   <v>      -0.00436457      -4.19138553      -0.07013382 </v>
   <v>      -0.03667489      -0.07013379      -4.14580449 </v>
  </varray>
  <energy>
   <i name="e_fr_energy">   -152.27095019 </i>
   <i name="e_wo_entrp">   -152.27718749 </i>
   <i name="e_0_energy">      0.01871191 </i>
  </energy>
  <time name="totalsc">    4.51    4.84</time>
 </calculation>
 <calculation>
  <scstep>
   <time name="dav">    0.27    0.29</time>
   <time name="total">    0.30    0.32</time>
   <energy>
    <i name="alphaZ">    675.90670323 </i>
    <i name="ewald">  -9720.01534338 </i>
    <i name="hartreedc">  -2919.32542692 </i>
    <i name="XCdc">     41.71264431 </i>
    <i name="pawpsdc">  16304.08286897 </i>
    <i name="pawaedc"> -15668.53469208 </i>
    <i name="eentropy">      0.01880500 </i>
    <i name="bandstr">  -1390.13005779 </i>
    <i name="atom">  12524.00607526 </i>
    <i name="e_fr_energy">   -152.27842340 </i>
    <i name="e_wo_entrp">   -152.29722840 </i>
    <i name="e_0_energy">   -152.28469174 </i>
   </energy>
  </scstep>
  <scstep>
   <time name="diag">    0.02    0.02</time>
   <time name="diis">    0.17    0.17</time>
   <time name="orth">    0.00    0.00</time>
   <time name="total">    0.22    0.23</time>
   <energy>
    <i name="e_fr_energy">   -152.27374919 </i>
    <i name="e_wo_entrp">   -152.29240833 </i>
    <i name="e_0_energy">   -152.27996890 </i>
   </energy>
  </scstep>
  <scstep>
   <time name="diag">    0.02    0.02</time>
   <time name="diis">    0.13    0.14</time>
   <time name="orth">    0.04    0.04</time>
   <time name="total">    0.23    0.23</time>
   <energy>
    <i name="e_fr_energy">   -152.27256143 </i>
    <i name="e_wo_entrp">   -152.29167312 </i>
    <i name="e_0_energy">   -152.27893200 </i>
   </energy>
  </scstep>
  <scstep>
   <time name="diag">    0.02    0.04</time>
   <time name="diis">    0.13    0.13</time>
   <time name="orth">    0.00    0.00</time>
   <time name="total">    0.18    0.22</time>
   <energy>
    <i name="e_fr_energy">   -152.27230393 </i>
    <i name="e_wo_entrp">   -152.29133345 </i>
    <i name="e_0_energy">   -152.27864710 </i>
   </energy>
  </scstep>
  <scstep>
   <time name="diag">    0.02    0.02</time>
   <time name="diis">    0.13    0.13</time>
   <time name="orth">    0.00    0.00</time>
   <time name="total">    0.17    0.18</time>
   <energy>
    <i name="e_fr_energy">   -152.27236735 </i>
    <i name="e_wo_entrp">   -152.29140008 </i>
    <i name="e_0_energy">   -152.27871160 </i>
   </energy>
  </scstep>
  <scstep>
   <time name="diag">    0.02    0.02</time>
   <time name="diis">    0.11    0.11</time>
   <time name="orth">    0.00    0.00</time>
   <time name="total">    0.16    0.16</time>
   <energy>
    <i name="e_fr_energy">   -152.27240840 </i>
    <i name="e_wo_entrp">   -152.29143108 </i>
    <i name="e_0_energy">   -152.27874929 </i>
   </energy>
  </scstep>
  <scstep>
   <time name="diag">    0.02    0.02</time>
   <time name="diis">    0.08    0.08</time>
   <time name="orth">    0.00    0.00</time>
   <time name="total">    0.13    0.13</time>
   <energy>
    <i name="e_fr_energy">   -152.27242498 </i>
    <i name="e_wo_entrp">   -152.29145142 </i>
    <i name="e_0_energy">   -152.27876713 </i>
   </energy>
  </scstep>
  <scstep>
   <time name="diag">    0.03    0.03</time>
   <time name="diis">    0.08    0.08</time>
   <time name="orth">    0.00    0.00</time>
   <time name="total">    0.13    0.14</time>
   <energy>
    <i name="e_fr_energy">   -152.27244001 </i>
    <i name="e_wo_entrp">   -152.29148087 </i>
    <i name="e_0_energy">   -152.27878696 </i>
   </energy>
  </scstep>
  <scstep>
   <time name="diag">    0.02    0.02</time>
   <time name="diis">    0.07    0.07</time>
   <time name="orth">    0.00    0.00</time>
   <time name="total">    0.10    0.11</time>
   <energy>
    <i name="alphaZ">    675.90670323 </i>
    <i name="ewald">  -9720.01534338 </i>
    <i name="hartreedc">  -2914.38645569 </i>
    <i name="XCdc">     41.48073044 </i>
    <i name="pawpsdc">  16357.55194915 </i>
    <i name="pawaedc"> -15721.92458885 </i>
    <i name="eentropy">      0.01903947 </i>
    <i name="bandstr">  -1394.91055417 </i>
    <i name="atom">  12524.00607526 </i>
    <i name="e_fr_energy">   -152.27244454 </i>
    <i name="e_wo_entrp">   -152.29148401 </i>
    <i name="e_0_energy">   -152.27879103 </i>
   </energy>
  </scstep>
  <structure>
   <crystal>
    <varray name="basis" >
     <v>       6.91843791       0.00492697      -0.00815717 </v>
     <v>       0.00554148       7.08934487       0.04543829 </v>
     <v>      -0.00695087       0.04381484       7.02455819 </v>
    </varray>
    <i name="volume">    344.52048540 </i>
    <varray name="rec_basis" >
     <v>       0.14454155      -0.00011390       0.00014374 </v>
     <v>      -0.00010150       0.14106248      -0.00087996 </v>
     <v>       0.00016850      -0.00091259       0.14236357 </v>
    </varray>
   </crystal>
   <varray name="positions" >
    <v>       0.99435467       0.46287076       0.47785955 </v>
    <v>       0.73912951       0.27247831       0.23871270 </v>
    <v>       0.51088714       0.52964288       0.00853172 </v>
    <v>       0.99094956       0.53104492       0.01825833 </v>
    <v>       0.25156948       0.72579869       0.72671649 </v>
    <v>       0.74034991       0.73227085       0.28545681 </v>
    <v>       0.75155556       0.72818279       0.72391137 </v>
    <v>       0.99620523       0.98616916       0.00193077 </v>
    <v>       0.26061932       0.26152876       0.22405389 </v>
    <v>       0.99380278       0.02671844       0.49376740 </v>
    <v>       0.25088326       0.27361037       0.76229757 </v>
    <v>       0.25810917       0.73492547       0.28287459 </v>
    <v>       0.50363326       0.97711019       0.99812188 </v>
    <v>       0.50455467       0.02220589       0.50533839 </v>
    <v>       0.74873392       0.27342993       0.76264656 </v>
    <v>       0.50466256       0.46201258       0.48952196 </v>
   </varray>
  </structure>
  <varray name="forces" >
   <v>       0.00008199       0.00586356       0.00784986 </v>
   <v>       0.00592777      -0.00774580      -0.01271626 </v>
   <v>      -0.00049663       0.00330346      -0.01119020 </v>
   <v>       0.00251601       0.00417975      -0.00191983 </v>
   <v>      -0.00465554       0.00963727       0.00361121 </v>
   <v>       0.00549637       0.00269968      -0.00845412 </v>
   <v>       0.00488816       0.00786194       0.00233409 </v>
   <v>      -0.00602890      -0.00217297       0.00679187 </v>
   <v>      -0.00112512      -0.00474684      -0.00730063 </v>
   <v>       0.00256382      -0.01246616       0.00183408 </v>
   <v>      -0.00571906      -0.00603744       0.00342710 </v>
   <v>      -0.00250513       0.00785783      -0.00583138 </v>
   <v>       0.00055445      -0.00058833       0.00318287 </v>
   <v>       0.00013903      -0.01105034      -0.00713241 </v>
   <v>       0.00199269      -0.00886581       0.01227095 </v>
   <v>      -0.00362990       0.01227019       0.01324278 </v>
  </varray>
  <varray name="stress" >
   <v>      -1.51180719      -0.01165175      -0.03521548 </v>
   <v>      -0.01165175      -1.37961384      -0.10156583 </v>
   <v>      -0.03521549      -0.10156587      -1.40362534 </v>
  </varray>
  <energy>
   <i name="e_fr_energy">   -152.27244454 </i>
   <i name="e_wo_entrp">   -152.27879103 </i>
   <i name="e_0_energy">      0.01903947 </i>
  </energy>
  <time name="totalsc">    1.98    2.11</time>
 </calculation>
 <calculation>
  <scstep>
   <time name="dav">    0.19    0.19</time>
   <time name="total">    0.22    0.22</time>
   <energy>
    <i name="alphaZ">    676.78387787 </i>
    <i name="ewald">  -9724.33439207 </i>
    <i name="hartreedc">  -2915.54527694 </i>
    <i name="XCdc">     41.67204810 </i>
    <i name="pawpsdc">  16357.45497771 </i>
    <i name="pawaedc"> -15721.82013608 </i>
    <i name="eentropy">      0.01908892 </i>
    <i name="bandstr">  -1390.51053597 </i>
    <i name="atom">  12524.00607526 </i>
    <i name="e_fr_energy">   -152.27427320 </i>
    <i name="e_wo_entrp">   -152.29336213 </i>
    <i name="e_0_energy">   -152.28063618 </i>
   </energy>
  </scstep>
  <scstep>
   <time name="diag">    0.02    0.02</time>
   <time name="diis">    0.13    0.13</time>
   <time name="orth">    0.00    0.00</time>
   <time name="total">    0.18    0.18</time>
   <energy>
    <i name="e_fr_energy">   -152.27296021 </i>
    <i name="e_wo_entrp">   -152.29196866 </i>
    <i name="e_0_energy">   -152.27929636 </i>
   </energy>
  </scstep>
  <scstep>
   <time name="diag">    0.02    0.02</time>
   <time name="diis">    0.13    0.13</time>
   <time name="orth">    0.00    0.00</time>
   <time name="total">    0.18    0.19</time>
   <energy>
    <i name="e_fr_energy">   -152.27263844 </i>
    <i name="e_wo_entrp">   -152.29188245 </i>
    <i name="e_0_energy">   -152.27905311 </i>
   </energy>
  </scstep>
  <scstep>
   <time name="diag">    0.02    0.02</time>
   <time name="diis">    0.13    0.13</time>
   <time name="orth">    0.00    0.00</time>
   <time name="total">    0.18    0.19</time>
   <energy>
    <i name="e_fr_energy">   -152.27257455 </i>
    <i name="e_wo_entrp">   -152.29177651 </i>
    <i name="e_0_energy">   -152.27897520 </i>
   </energy>
  </scstep>
  <scstep>
   <time name="diag">    0.02    0.02</time>
   <time name="diis">    0.10    0.10</time>
   <time name="orth">    0.00    0.00</time>
   <time name="total">    0.14    0.15</time>
   <energy>
    <i name="e_fr_energy">   -152.27259751 </i>
    <i name="e_wo_entrp">   -152.29180057 </i>
    <i name="e_0_energy">   -152.27899853 </i>
   </energy>
  </scstep>
  <scstep>
   <time name="diag">    0.02    0.02</time>
   <time name="diis">    0.07    0.07</time>
   <time name="orth">    0.00    0.00</time>
   <time name="total">    0.12    0.12</time>
   <energy>
    <i name="e_fr_energy">   -152.27261519 </i>
    <i name="e_wo_entrp">   -152.29181323 </i>
    <i name="e_0_energy">   -152.27901453 </i>
   </energy>
  </scstep>
  <scstep>
   <time name="diag">    0.02    0.02</time>
   <time name="diis">    0.07    0.07</time>
   <time name="orth">    0.00    0.00</time>
   <time name="total">    0.10    0.11</time>
   <energy>
    <i name="alphaZ">    676.78387787 </i>
    <i name="ewald">  -9724.33439207 </i>
    <i name="hartreedc">  -2912.93424336 </i>
    <i name="XCdc">     41.54950963 </i>
    <i name="pawpsdc">  16386.44084582 </i>
    <i name="pawaedc"> -15750.77328253 </i>
    <i name="eentropy">      0.01919960 </i>
    <i name="bandstr">  -1393.03021330 </i>
    <i name="atom">  12524.00607526 </i>
    <i name="e_fr_energy">   -152.27262308 </i>
    <i name="e_wo_entrp">   -152.29182268 </i>
    <i name="e_0_energy">   -152.27902295 </i>
   </energy>
  </scstep>
  <structure>
   <crystal>
    <varray name="basis" >
     <v>       6.91541999       0.00492178      -0.00817992 </v>
     <v>       0.00553569       7.08627790       0.04536748 </v>
     <v>      -0.00697447       0.04374500       7.02155234 </v>
    </varray>
    <i name="volume">    344.07395491 </i>
    <varray name="rec_basis" >
     <v>       0.14460463      -0.00011389       0.00014434 </v>
     <v>      -0.00010148       0.14112352      -0.00087931 </v>
     <v>       0.00016912      -0.00091196       0.14242450 </v>
    </varray>
   </crystal>
   <varray name="positions" >
    <v>       0.99434858       0.46287195       0.47786027 </v>
    <v>       0.73913445       0.27248485       0.23870233 </v>
    <v>       0.51089295       0.52964986       0.00852258 </v>
    <v>       0.99094695       0.53105103       0.01826220 </v>
    <v>       0.25156591       0.72580183       0.72671901 </v>
    <v>       0.74035461       0.73226177       0.28545064 </v>
    <v>       0.75155962       0.72818240       0.72391201 </v>
    <v>       0.99619648       0.98616375       0.00193908 </v>
    <v>       0.26062012       0.26153259       0.22404597 </v>
    <v>       0.99380244       0.02670917       0.49376880 </v>
    <v>       0.25087737       0.27361214       0.76230097 </v>
    <v>       0.25810778       0.73492462       0.28286983 </v>
    <v>       0.50363553       0.97710455       0.99812613 </v>
    <v>       0.50455740       0.02219696       0.50532881 </v>
    <v>       0.74873481       0.27343119       0.76266011 </v>
    <v>       0.50466502       0.46202135       0.48953125 </v>
   </varray>
  </structure>
  <varray name="forces" >
   <v>       0.00295432       0.00859361       0.01161280 </v>
   <v>       0.00632732      -0.01494149      -0.01405909 </v>
   <v>      -0.00364665       0.00138671      -0.01272489 </v>
   <v>       0.00540525       0.00330901      -0.00468787 </v>
   <v>      -0.00527448       0.01297395       0.00363865 </v>
   <v>       0.00612249       0.00833610      -0.00937127 </v>
   <v>       0.00557144       0.01191671       0.00258995 </v>
   <v>      -0.00538273      -0.00086489       0.00641648 </v>
   <v>      -0.00205230      -0.00861393      -0.00704812 </v>
   <v>       0.00392464      -0.01508620       0.00221599 </v>
   <v>      -0.00589504      -0.00960489       0.00321847 </v>
   <v>      -0.00326689       0.01131966      -0.00589971 </v>
   <v>      -0.00015529       0.00201352       0.00294892 </v>
   <v>      -0.00099516      -0.01303485      -0.00624805 </v>
   <v>       0.00239628      -0.01342885       0.01193394 </v>
   <v>      -0.00603322       0.01572582       0.01546380 </v>
  </varray>
  <varray name="stress" >
   <v>      -0.14766776      -0.01385001      -0.03178685 </v>
   <v>      -0.01385002       0.05048818      -0.11702049 </v>
   <v>      -0.03178686      -0.11702049      -0.02699859 </v>
  </varray>
  <energy>
   <i name="e_fr_energy">   -152.27262308 </i>
   <i name="e_wo_entrp">   -152.27902295 </i>
   <i name="e_0_energy">      0.01919960 </i>
  </energy>
  <time name="totalsc">    1.51    1.56</time>
 </calculation>
 <calculation>
  <scstep>
   <time name="dav">    0.21    0.21</time>
   <time name="total">    0.25    0.25</time>
   <energy>
    <i name="alphaZ">    676.82987777 </i>
    <i name="ewald">  -9724.56078602 </i>
    <i name="hartreedc">  -2913.00961030 </i>
    <i name="XCdc">     41.56007772 </i>
    <i name="pawpsdc">  16386.44411886 </i>
    <i name="pawaedc"> -15750.75019086 </i>
    <i name="eentropy">      0.01920853 </i>
    <i name="bandstr">  -1392.81139908 </i>
    <i name="atom">  12524.00607526 </i>
    <i name="e_fr_energy">   -152.27262811 </i>
    <i name="e_wo_entrp">   -152.29183664 </i>
    <i name="e_0_energy">   -152.27903095 </i>
   </energy>
  </scstep>
  <scstep>
   <time name="diag">    0.02    0.02</time>
   <time name="diis">    0.06    0.06</time>
   <time name="orth">    0.00    0.00</time>
   <time name="total">    0.10    0.10</time>
   <energy>
    <i name="alphaZ">    676.82987777 </i>
    <i name="ewald">  -9724.56078602 </i>
    <i name="hartreedc">  -2912.89861515 </i>
    <i name="XCdc">     41.55529926 </i>
    <i name="pawpsdc">  16388.07552137 </i>
    <i name="pawaedc"> -15752.37194975 </i>
    <i name="eentropy">      0.01920359 </i>
    <i name="bandstr">  -1392.92725266 </i>
    <i name="atom">  12524.00607526 </i>
    <i name="e_fr_energy">   -152.27262633 </i>
    <i name="e_wo_entrp">   -152.29182991 </i>
    <i name="e_0_energy">   -152.27902752 </i>
   </energy>
  </scstep>
  <structure>
   <crystal>
    <varray name="basis" >
     <v>       6.91526187       0.00492151      -0.00818111 </v>
     <v>       0.00553539       7.08611721       0.04536377 </v>
     <v>      -0.00697571       0.04374134       7.02139486 </v>
    </varray>
    <i name="volume">    344.05057036 </i>
    <varray name="rec_basis" >
     <v>       0.14460794      -0.00011389       0.00014438 </v>
     <v>      -0.00010148       0.14112672      -0.00087928 </v>
     <v>       0.00016915      -0.00091192       0.14242769 </v>
    </varray>
   </crystal>
   <varray name="positions" >
    <v>       0.99434826       0.46287201       0.47786031 </v>
    <v>       0.73913471       0.27248519       0.23870179 </v>
    <v>       0.51089325       0.52965022       0.00852210 </v>
    <v>       0.99094681       0.53105135       0.01826240 </v>
    <v>       0.25156572       0.72580199       0.72671914 </v>
    <v>       0.74035486       0.73226129       0.28545032 </v>
    <v>       0.75155983       0.72818238       0.72391204 </v>
    <v>       0.99619602       0.98616347       0.00193951 </v>
    <v>       0.26062016       0.26153279       0.22404555 </v>
    <v>       0.99380242       0.02670868       0.49376888 </v>
    <v>       0.25087706       0.27361223       0.76230115 </v>
    <v>       0.25810770       0.73492458       0.28286959 </v>
    <v>       0.50363565       0.97710425       0.99812635 </v>
    <v>       0.50455754       0.02219650       0.50532831 </v>
    <v>       0.74873485       0.27343125       0.76266082 </v>
    <v>       0.50466515       0.46202181       0.48953174 </v>
   </varray>
  </structure>
  <varray name="forces" >
   <v>       0.00341980       0.00839092       0.01187644 </v>
   <v>       0.00609345      -0.01533287      -0.01386012 </v>
   <v>      -0.00382841       0.00164692      -0.01267023 </v>
   <v>       0.00569203       0.00355230      -0.00453193 </v>
   <v>      -0.00515586       0.01316930       0.00328134 </v>
   <v>       0.00581982       0.00864541      -0.00910539 </v>
   <v>       0.00551853       0.01212388       0.00223337 </v>
   <v>      -0.00534742      -0.00111692       0.00637850 </v>
   <v>      -0.00230210      -0.00883784      -0.00709860 </v>
   <v>       0.00394998      -0.01514365       0.00234716 </v>
   <v>      -0.00601437      -0.00978013       0.00312756 </v>
   <v>      -0.00335162       0.01161610      -0.00611600 </v>
   <v>      -0.00002039       0.00181397       0.00286331 </v>
   <v>      -0.00087906      -0.01351589      -0.00586937 </v>
   <v>       0.00259262      -0.01368770       0.01182377 </v>
   <v>      -0.00618699       0.01645621       0.01532018 </v>
  </varray>
  <varray name="stress" >
   <v>      -0.06029094      -0.01277375      -0.03808506 </v>
   <v>      -0.01277372       0.15383299      -0.10528225 </v>
   <v>      -0.03808505      -0.10528227       0.07094109 </v>
  </varray>
  <energy>
   <i name="e_fr_energy">   -152.27262633 </i>
   <i name="e_wo_entrp">   -152.27902752 </i>
   <i name="e_0_energy">      0.01920359 </i>
  </energy>
  <time name="totalsc">    0.71    0.74</time>
 </calculation>
 <calculation>
  <scstep>
   <time name="dav">    0.13    0.13</time>
   <time name="total">    0.15    0.15</time>
   <energy>
    <i name="alphaZ">    676.81872229 </i>
    <i name="ewald">  -9724.50588391 </i>
    <i name="hartreedc">  -2912.89634018 </i>
    <i name="XCdc">     41.55294735 </i>
    <i name="pawpsdc">  16388.33074712 </i>
    <i name="pawaedc"> -15752.61661203 </i>
    <i name="eentropy">      0.01921323 </i>
    <i name="bandstr">  -1392.98149695 </i>
    <i name="atom">  12524.00607526 </i>
    <i name="e_fr_energy">   -152.27262782 </i>
    <i name="e_wo_entrp">   -152.29184104 </i>
    <i name="e_0_energy">   -152.27903223 </i>
   </energy>
  </scstep>
  <scstep>
   <time name="diag">    0.02    0.02</time>
   <time name="diis">    0.05    0.05</time>
   <time name="orth">    0.00    0.00</time>
   <time name="total">    0.09    0.09</time>
   <energy>
    <i name="alphaZ">    676.81872229 </i>
    <i name="ewald">  -9724.50588391 </i>
    <i name="hartreedc">  -2912.91666307 </i>
    <i name="XCdc">     41.55384470 </i>
    <i name="pawpsdc">  16388.09503137 </i>
    <i name="pawaedc"> -15752.37010006 </i>
    <i name="eentropy">      0.01921323 </i>
    <i name="bandstr">  -1392.97286915 </i>
    <i name="atom">  12524.00607526 </i>
    <i name="e_fr_energy">   -152.27262935 </i>
    <i name="e_wo_entrp">   -152.29184257 </i>
    <i name="e_0_energy">   -152.27903375 </i>
   </energy>
  </scstep>
  <structure>
   <crystal>
    <varray name="basis" >
     <v>       6.91530021       0.00492157      -0.00818082 </v>
     <v>       0.00553546       7.08615617       0.04536467 </v>
     <v>      -0.00697541       0.04374223       7.02143305 </v>
    </varray>
    <i name="volume">    344.05624108 </i>
    <varray name="rec_basis" >
     <v>       0.14460713      -0.00011389       0.00014437 </v>
     <v>      -0.00010148       0.14112594      -0.00087929 </v>
     <v>       0.00016914      -0.00091193       0.14242692 </v>
    </varray>
   </crystal>
   <varray name="positions" >
    <v>       0.99434834       0.46287199       0.47786030 </v>
    <v>       0.73913465       0.27248511       0.23870192 </v>
    <v>       0.51089318       0.52965014       0.00852222 </v>
    <v>       0.99094684       0.53105127       0.01826235 </v>
    <v>       0.25156577       0.72580195       0.72671911 </v>
    <v>       0.74035480       0.73226141       0.28545040 </v>
    <v>       0.75155978       0.72818238       0.72391204 </v>
    <v>       0.99619613       0.98616353       0.00193941 </v>
    <v>       0.26062015       0.26153275       0.22404565 </v>
    <v>       0.99380243       0.02670880       0.49376886 </v>
    <v>       0.25087713       0.27361221       0.76230111 </v>
    <v>       0.25810772       0.73492459       0.28286965 </v>
    <v>       0.50363562       0.97710432       0.99812630 </v>
    <v>       0.50455750       0.02219661       0.50532843 </v>
    <v>       0.74873484       0.27343124       0.76266065 </v>
    <v>       0.50466512       0.46202170       0.48953162 </v>
   </varray>
  </structure>
  <varray name="forces" >
   <v>       0.00291143       0.00867985       0.01174528 </v>
   <v>       0.00648025      -0.01494248      -0.01405633 </v>
   <v>      -0.00363892       0.00150156      -0.01281786 </v>
   <v>       0.00543694       0.00349037      -0.00471032 </v>
   <v>      -0.00526991       0.01302387       0.00370059 </v>
   <v>       0.00623706       0.00842301      -0.00949672 </v>
   <v>       0.00559611       0.01201977       0.00268549 </v>
   <v>      -0.00540811      -0.00116001       0.00641250 </v>
   <v>      -0.00225080      -0.00858548      -0.00739078 </v>
   <v>       0.00387724      -0.01514773       0.00227947 </v>
   <v>      -0.00606233      -0.00957993       0.00346589 </v>
   <v>      -0.00340782       0.01152394      -0.00623800 </v>
   <v>      -0.00013636       0.00170405       0.00283780 </v>
   <v>      -0.00086679      -0.01328518      -0.00615751 </v>
   <v>       0.00261748      -0.01352777       0.01215615 </v>
   <v>      -0.00611546       0.01586218       0.01558435 </v>
  </varray>
  <varray name="stress" >
   <v>       0.05899326      -0.01374984      -0.03063804 </v>
   <v>      -0.01374985       0.25481550      -0.11804686 </v>
   <v>      -0.03063805      -0.11804685       0.18754821 </v>
  </varray>
  <energy>
   <i name="e_fr_energy">   -152.27262935 </i>
   <i name="e_wo_entrp">   -152.27903375 </i>
   <i name="e_0_energy">      0.01921323 </i>
  </energy>
  <time name="totalsc">    0.59    0.62</time>
 </calculation>
 <calculation>
  <scstep>
   <time name="dav">    0.14    0.14</time>
   <time name="total">    0.18    0.18</time>
   <energy>
    <i name="alphaZ">    676.79612252 </i>
    <i name="ewald">  -9724.39465651 </i>
    <i name="hartreedc">  -2912.90050888 </i>
    <i name="XCdc">     41.54956270 </i>
    <i name="pawpsdc">  16388.00068291 </i>
    <i name="pawaedc"> -15752.26435630 </i>
    <i name="eentropy">      0.01921085 </i>
    <i name="bandstr">  -1393.08476549 </i>
    <i name="atom">  12524.00607526 </i>
    <i name="e_fr_energy">   -152.27263292 </i>
    <i name="e_wo_entrp">   -152.29184377 </i>
    <i name="e_0_energy">   -152.27903654 </i>
   </energy>
  </scstep>
  <scstep>
   <time name="diag">    0.02    0.02</time>
   <time name="diis">    0.05    0.05</time>
   <time name="orth">    0.00    0.00</time>
   <time name="total">    0.09    0.09</time>
   <energy>
    <i name="alphaZ">    676.79612252 </i>
    <i name="ewald">  -9724.39465651 </i>
    <i name="hartreedc">  -2912.96316746 </i>
    <i name="XCdc">     41.55231102 </i>
    <i name="pawpsdc">  16387.29112353 </i>
    <i name="pawaedc"> -15751.54877278 </i>
    <i name="eentropy">      0.01921293 </i>
    <i name="bandstr">  -1393.03088155 </i>
    <i name="atom">  12524.00607526 </i>
    <i name="e_fr_energy">   -152.27263303 </i>
    <i name="e_wo_entrp">   -152.29184597 </i>
    <i name="e_0_energy">   -152.27903735 </i>
   </energy>
  </scstep>
  <structure>
   <crystal>
    <varray name="basis" >
     <v>       6.91537790       0.00492171      -0.00818024 </v>
     <v>       0.00553561       7.08623512       0.04536649 </v>
     <v>      -0.00697480       0.04374403       7.02151042 </v>
    </varray>
    <i name="volume">    344.06772990 </i>
    <varray name="rec_basis" >
     <v>       0.14460551      -0.00011389       0.00014435 </v>
     <v>      -0.00010148       0.14112437      -0.00087931 </v>
     <v>       0.00016912      -0.00091195       0.14242535 </v>
    </varray>
   </crystal>
   <varray name="positions" >
    <v>       0.99434849       0.46287196       0.47786028 </v>
    <v>       0.73913452       0.27248494       0.23870218 </v>
    <v>       0.51089303       0.52964996       0.00852245 </v>
    <v>       0.99094691       0.53105111       0.01826225 </v>
    <v>       0.25156586       0.72580187       0.72671905 </v>
    <v>       0.74035468       0.73226164       0.28545055 </v>
    <v>       0.75155967       0.72818239       0.72391202 </v>
    <v>       0.99619636       0.98616367       0.00193919 </v>
    <v>       0.26062013       0.26153265       0.22404586 </v>
    <v>       0.99380243       0.02670904       0.49376882 </v>
    <v>       0.25087728       0.27361217       0.76230102 </v>
    <v>       0.25810776       0.73492461       0.28286977 </v>
    <v>       0.50363556       0.97710447       0.99812619 </v>
    <v>       0.50455743       0.02219684       0.50532868 </v>
    <v>       0.74873482       0.27343120       0.76266030 </v>
    <v>       0.50466506       0.46202147       0.48953138 </v>
   </varray>
  </structure>
  <varray name="forces" >
   <v>       0.00263140       0.00868634       0.01161903 </v>
   <v>       0.00659330      -0.01462425      -0.01415792 </v>
   <v>      -0.00349812       0.00147214      -0.01285842 </v>
   <v>       0.00523482       0.00343097      -0.00465967 </v>
   <v>      -0.00531036       0.01290965       0.00380243 </v>
   <v>       0.00636097       0.00819014      -0.00961173 </v>
   <v>       0.00560986       0.01188228       0.00279705 </v>
   <v>      -0.00545469      -0.00126845       0.00643275 </v>
   <v>      -0.00220205      -0.00835294      -0.00756475 </v>
   <v>       0.00378619      -0.01509677       0.00224417 </v>
   <v>      -0.00607582      -0.00936417       0.00361497 </v>
   <v>      -0.00339834       0.01135051      -0.00619834 </v>
   <v>      -0.00016108       0.00152617       0.00284403 </v>
   <v>      -0.00083348      -0.01313887      -0.00626973 </v>
   <v>       0.00259979      -0.01326355       0.01231824 </v>
   <v>      -0.00588238       0.01566081       0.01564790 </v>
  </varray>
  <varray name="stress" >
   <v>       0.11921919      -0.01362477      -0.02842128 </v>
   <v>      -0.01362475       0.30966272      -0.12279679 </v>
   <v>      -0.02842134      -0.12279680       0.24596784 </v>
  </varray>
  <energy>
   <i name="e_fr_energy">   -152.27263303 </i>
   <i name="e_wo_entrp">   -152.27903735 </i>
   <i name="e_0_energy">      0.01921293 </i>
  </energy>
  <time name="totalsc">    0.68    0.70</time>
 </calculation>
 <calculation>
  <scstep>
   <time name="dav">    0.12    0.12</time>
   <time name="total">    0.15    0.15</time>
   <energy>
    <i name="alphaZ">    676.78725025 </i>
    <i name="ewald">  -9724.35098992 </i>
    <i name="hartreedc">  -2912.95851199 </i>
    <i name="XCdc">     41.55088743 </i>
    <i name="pawpsdc">  16387.19480515 </i>
    <i name="pawaedc"> -15751.44985531 </i>
    <i name="eentropy">      0.01920772 </i>
    <i name="bandstr">  -1393.07150229 </i>
    <i name="atom">  12524.00607526 </i>
    <i name="e_fr_energy">   -152.27263368 </i>
    <i name="e_wo_entrp">   -152.29184141 </i>
    <i name="e_0_energy">   -152.27903626 </i>
   </energy>
  </scstep>
  <scstep>
   <time name="diag">    0.02    0.02</time>
   <time name="diis">    0.05    0.05</time>
   <time name="orth">    0.00    0.00</time>
   <time name="total">    0.09    0.10</time>
   <energy>
    <i name="alphaZ">    676.78725025 </i>
    <i name="ewald">  -9724.35098992 </i>
    <i name="hartreedc">  -2912.99394521 </i>
    <i name="XCdc">     41.55243590 </i>
    <i name="pawpsdc">  16386.91490307 </i>
    <i name="pawaedc"> -15751.16633612 </i>
    <i name="eentropy">      0.01920857 </i>
    <i name="bandstr">  -1393.04123545 </i>
    <i name="atom">  12524.00607526 </i>
    <i name="e_fr_energy">   -152.27263364 </i>
    <i name="e_wo_entrp">   -152.29184222 </i>
    <i name="e_0_energy">   -152.27903650 </i>
   </energy>
  </scstep>
  <structure>
   <crystal>
    <varray name="basis" >
     <v>       6.91540840       0.00492176      -0.00818001 </v>
     <v>       0.00553567       7.08626611       0.04536720 </v>
     <v>      -0.00697456       0.04374473       7.02154080 </v>
    </varray>
    <i name="volume">    344.07224042 </i>
    <varray name="rec_basis" >
     <v>       0.14460487      -0.00011389       0.00014435 </v>
     <v>      -0.00010148       0.14112375      -0.00087931 </v>
     <v>       0.00016912      -0.00091195       0.14242473 </v>
    </varray>
   </crystal>
   <varray name="positions" >
    <v>       0.99434856       0.46287195       0.47786028 </v>
    <v>       0.73913447       0.27248487       0.23870229 </v>
    <v>       0.51089297       0.52964989       0.00852254 </v>
    <v>       0.99094694       0.53105105       0.01826221 </v>
    <v>       0.25156590       0.72580184       0.72671902 </v>
    <v>       0.74035463       0.73226173       0.28545062 </v>
    <v>       0.75155963       0.72818240       0.72391201 </v>
    <v>       0.99619645       0.98616373       0.00193911 </v>
    <v>       0.26062013       0.26153261       0.22404594 </v>
    <v>       0.99380244       0.02670914       0.49376881 </v>
    <v>       0.25087734       0.27361215       0.76230099 </v>
    <v>       0.25810777       0.73492462       0.28286982 </v>
    <v>       0.50363554       0.97710453       0.99812615 </v>
    <v>       0.50455741       0.02219693       0.50532877 </v>
    <v>       0.74873481       0.27343119       0.76266016 </v>
    <v>       0.50466503       0.46202138       0.48953129 </v>
   </varray>
  </structure>
  <varray name="forces" >
   <v>       0.00268656       0.00858076       0.01154459 </v>
   <v>       0.00649997      -0.01458394      -0.01411838 </v>
   <v>      -0.00349467       0.00150412      -0.01279893 </v>
   <v>       0.00524979       0.00344228      -0.00460350 </v>
   <v>      -0.00527766       0.01288893       0.00371423 </v>
   <v>       0.00627920       0.00818412      -0.00953413 </v>
   <v>       0.00558962       0.01185467       0.00269200 </v>
   <v>      -0.00554173      -0.00142095       0.00644814 </v>
   <v>      -0.00220613      -0.00824736      -0.00758693 </v>
   <v>       0.00374656      -0.01518056       0.00226404 </v>
   <v>      -0.00614803      -0.00920699       0.00358058 </v>
   <v>      -0.00342251       0.01124914      -0.00616212 </v>
   <v>      -0.00009001       0.00139869       0.00283665 </v>
   <v>      -0.00076621      -0.01330862      -0.00629615 </v>
   <v>       0.00264278      -0.01310516       0.01238259 </v>
   <v>      -0.00574752       0.01595087       0.01563730 </v>
  </varray>
  <varray name="stress" >
   <v>       0.08680813      -0.01327056      -0.02994400 </v>
   <v>      -0.01327042       0.28006070      -0.12100707 </v>
   <v>      -0.02994399      -0.12100703       0.21261991 </v>
  </varray>
  <energy>
   <i name="e_fr_energy">   -152.27263364 </i>
   <i name="e_wo_entrp">   -152.27903650 </i>
   <i name="e_0_energy">      0.01920857 </i>
  </energy>
  <time name="totalsc">    0.59    0.62</time>
 </calculation>
 <calculation>
  <scstep>
   <time name="dav">    0.12    0.12</time>
   <time name="total">    0.15    0.15</time>
   <energy>
    <i name="alphaZ">    676.78493394 </i>
    <i name="ewald">  -9724.33958967 </i>
    <i name="hartreedc">  -2912.99575340 </i>
    <i name="XCdc">     41.55223241 </i>
    <i name="pawpsdc">  16386.93566912 </i>
    <i name="pawaedc"> -15751.18549304 </i>
    <i name="eentropy">      0.01920598 </i>
    <i name="bandstr">  -1393.04991426 </i>
    <i name="atom">  12524.00607526 </i>
    <i name="e_fr_energy">   -152.27263366 </i>
    <i name="e_wo_entrp">   -152.29183964 </i>
    <i name="e_0_energy">   -152.27903566 </i>
   </energy>
  </scstep>
  <scstep>
   <time name="diag">    0.02    0.02</time>
   <time name="diis">    0.05    0.05</time>
   <time name="orth">    0.00    0.00</time>
   <time name="total">    0.09    0.10</time>
   <energy>
    <i name="alphaZ">    676.78493394 </i>
    <i name="ewald">  -9724.33958967 </i>
    <i name="hartreedc">  -2913.00990476 </i>
    <i name="XCdc">     41.55284036 </i>
    <i name="pawpsdc">  16386.89689648 </i>
    <i name="pawaedc"> -15751.14457918 </i>
    <i name="eentropy">      0.01920610 </i>
    <i name="bandstr">  -1393.03851215 </i>
    <i name="atom">  12524.00607526 </i>
    <i name="e_fr_energy">   -152.27263362 </i>
    <i name="e_wo_entrp">   -152.29183972 </i>
    <i name="e_0_energy">   -152.27903565 </i>
   </energy>
  </scstep>
  <structure>
   <crystal>
    <varray name="basis" >
     <v>       6.91541636       0.00492177      -0.00817995 </v>
     <v>       0.00553569       7.08627421       0.04536739 </v>
     <v>      -0.00697450       0.04374492       7.02154873 </v>
    </varray>
    <i name="volume">    344.07341801 </i>
    <varray name="rec_basis" >
     <v>       0.14460470      -0.00011389       0.00014435 </v>
     <v>      -0.00010148       0.14112359      -0.00087931 </v>
     <v>       0.00016912      -0.00091196       0.14242457 </v>
    </varray>
   </crystal>
   <varray name="positions" >
    <v>       0.99434857       0.46287195       0.47786028 </v>
    <v>       0.73913446       0.27248485       0.23870232 </v>
    <v>       0.51089296       0.52964987       0.00852257 </v>
    <v>       0.99094694       0.53105103       0.01826220 </v>
    <v>       0.25156591       0.72580183       0.72671902 </v>
    <v>       0.74035462       0.73226176       0.28545063 </v>
    <v>       0.75155962       0.72818240       0.72391201 </v>
    <v>       0.99619647       0.98616374       0.00193909 </v>
    <v>       0.26062012       0.26153260       0.22404596 </v>
    <v>       0.99380244       0.02670916       0.49376880 </v>
    <v>       0.25087736       0.27361214       0.76230098 </v>
    <v>       0.25810777       0.73492462       0.28286983 </v>
    <v>       0.50363553       0.97710454       0.99812613 </v>
    <v>       0.50455740       0.02219695       0.50532880 </v>
    <v>       0.74873481       0.27343119       0.76266012 </v>
    <v>       0.50466503       0.46202136       0.48953126 </v>
   </varray>
  </structure>
  <varray name="forces" >
   <v>       0.00274839       0.00852127       0.01154281 </v>
   <v>       0.00643213      -0.01459745      -0.01407268 </v>
   <v>      -0.00350949       0.00154523      -0.01276308 </v>
   <v>       0.00527590       0.00346832      -0.00456760 </v>
   <v>      -0.00525118       0.01288991       0.00365469 </v>
   <v>       0.00621603       0.00819501      -0.00946133 </v>
   <v>       0.00557633       0.01185727       0.00262364 </v>
   <v>      -0.00550967      -0.00140227       0.00643367 </v>
   <v>      -0.00218758      -0.00828498      -0.00753599 </v>
   <v>       0.00378943      -0.01513272       0.00228395 </v>
   <v>      -0.00612537      -0.00923697       0.00352581 </v>
   <v>      -0.00339329       0.01125184      -0.00610774 </v>
   <v>      -0.00009475       0.00143804       0.00283815 </v>
   <v>      -0.00079282      -0.01328994      -0.00623598 </v>
   <v>       0.00262747      -0.01313488       0.01232754 </v>
   <v>      -0.00580155       0.01591233       0.01551414 </v>
  </varray>
  <varray name="stress" >
   <v>       0.08285670      -0.01316117      -0.03103178 </v>
   <v>      -0.01316120       0.27818143      -0.11902500 </v>
   <v>      -0.03103168      -0.11902502       0.20886507 </v>
  </varray>
  <energy>
   <i name="e_fr_energy">   -152.27263362 </i>
   <i name="e_wo_entrp">   -152.27903565 </i>
   <i name="e_0_energy">      0.01920610 </i>
  </energy>
  <time name="totalsc">    0.61    0.64</time>
 </calculation>
 <calculation>
  <scstep>
   <time name="dav">    0.12    0.12</time>
   <time name="total">    0.14    0.15</time>
   <energy>
    <i name="alphaZ">    676.78421285 </i>
    <i name="ewald">  -9724.33604069 </i>
    <i name="hartreedc">  -2913.01232214 </i>
    <i name="XCdc">     41.55286140 </i>
    <i name="pawpsdc">  16386.96167061 </i>
    <i name="pawaedc"> -15751.20810944 </i>
    <i name="eentropy">      0.01920528 </i>
    <i name="bandstr">  -1393.04018678 </i>
    <i name="atom">  12524.00607526 </i>
    <i name="e_fr_energy">   -152.27263364 </i>
    <i name="e_wo_entrp">   -152.29183891 </i>
    <i name="e_0_energy">   -152.27903540 </i>
   </energy>
  </scstep>
  <scstep>
   <time name="diag">    0.02    0.02</time>
   <time name="diis">    0.04    0.04</time>
   <time name="orth">    0.00    0.00</time>
   <time name="total">    0.08    0.08</time>
   <energy>
    <i name="alphaZ">    676.78421285 </i>
    <i name="ewald">  -9724.33604069 </i>
    <i name="hartreedc">  -2913.01659418 </i>
    <i name="XCdc">     41.55303219 </i>
    <i name="pawpsdc">  16387.01581231 </i>
    <i name="pawaedc"> -15751.26117062 </i>
    <i name="eentropy">      0.01920531 </i>
    <i name="bandstr">  -1393.03716600 </i>
    <i name="atom">  12524.00607526 </i>
    <i name="e_fr_energy">   -152.27263356 </i>
    <i name="e_wo_entrp">   -152.29183887 </i>
    <i name="e_0_energy">   -152.27903533 </i>
   </energy>
  </scstep>
  <structure>
   <crystal>
    <varray name="basis" >
     <v>       6.91541884       0.00492178      -0.00817993 </v>
     <v>       0.00553569       7.08627673       0.04536745 </v>
     <v>      -0.00697448       0.04374497       7.02155120 </v>
    </varray>
    <i name="volume">    344.07378461 </i>
    <varray name="rec_basis" >
     <v>       0.14460465      -0.00011389       0.00014434 </v>
     <v>      -0.00010148       0.14112354      -0.00087931 </v>
     <v>       0.00016912      -0.00091196       0.14242452 </v>
    </varray>
   </crystal>
   <varray name="positions" >
    <v>       0.99434858       0.46287195       0.47786027 </v>
    <v>       0.73913445       0.27248485       0.23870233 </v>
    <v>       0.51089295       0.52964986       0.00852258 </v>
    <v>       0.99094694       0.53105103       0.01826220 </v>
    <v>       0.25156591       0.72580183       0.72671901 </v>
    <v>       0.74035461       0.73226176       0.28545064 </v>
    <v>       0.75155962       0.72818240       0.72391201 </v>
    <v>       0.99619648       0.98616375       0.00193908 </v>
    <v>       0.26062012       0.26153260       0.22404596 </v>
    <v>       0.99380244       0.02670917       0.49376880 </v>
    <v>       0.25087736       0.27361214       0.76230098 </v>
    <v>       0.25810778       0.73492462       0.28286983 </v>
    <v>       0.50363553       0.97710455       0.99812613 </v>
    <v>       0.50455740       0.02219696       0.50532881 </v>
    <v>       0.74873481       0.27343119       0.76266011 </v>
    <v>       0.50466502       0.46202135       0.48953125 </v>
   </varray>
  </structure>
  <varray name="forces" >
   <v>       0.00277865       0.00848733       0.01155407 </v>
   <v>       0.00640045      -0.01461936      -0.01403916 </v>
   <v>      -0.00352487       0.00155334      -0.01274493 </v>
   <v>       0.00529582       0.00346964      -0.00454967 </v>
   <v>      -0.00523532       0.01289056       0.00363070 </v>
   <v>       0.00618513       0.00820657      -0.00942201 </v>
   <v>       0.00556524       0.01186180       0.00260034 </v>
   <v>      -0.00545184      -0.00133497       0.00640435 </v>
   <v>      -0.00217652      -0.00834468      -0.00745495 </v>
   <v>       0.00381715      -0.01506326       0.00228341 </v>
   <v>      -0.00606448      -0.00929843       0.00347714 </v>
   <v>      -0.00336467       0.01128346      -0.00607909 </v>
   <v>      -0.00011172       0.00150488       0.00283419 </v>
   <v>      -0.00082457      -0.01321147      -0.00617670 </v>
   <v>       0.00259788      -0.01319122       0.01223217 </v>
   <v>      -0.00588635       0.01580582       0.01545014 </v>
  </varray>
  <varray name="stress" >
   <v>       0.05851802      -0.01316017      -0.03143528 </v>
   <v>      -0.01316015       0.25456506      -0.11806948 </v>
   <v>      -0.03143529      -0.11806947       0.18490998 </v>
  </varray>
  <energy>
   <i name="e_fr_energy">   -152.27263356 </i>
   <i name="e_wo_entrp">   -152.27903533 </i>
   <i name="e_0_energy">      0.01920531 </i>
  </energy>
  <time name="totalsc">    0.59    0.62</time>
 </calculation>
 <calculation>
  <scstep>
   <time name="dav">    0.14    0.15</time>
   <time name="total">    0.16    0.18</time>
   <energy>
    <i name="alphaZ">    676.78399632 </i>
    <i name="ewald">  -9724.33497495 </i>
    <i name="hartreedc">  -2913.01919044 </i>
    <i name="XCdc">     41.55311768 </i>
    <i name="pawpsdc">  16387.07521301 </i>
    <i name="pawaedc"> -15751.31946644 </i>
    <i name="eentropy">      0.01920494 </i>
    <i name="bandstr">  -1393.03660890 </i>
    <i name="atom">  12524.00607526 </i>
    <i name="e_fr_energy">   -152.27263352 </i>
    <i name="e_wo_entrp">   -152.29183846 </i>
    <i name="e_0_energy">   -152.27903517 </i>
   </energy>
  </scstep>
  <scstep>
   <time name="diag">    0.02    0.02</time>
   <time name="diis">    0.05    0.05</time>
   <time name="orth">    0.00    0.00</time>
   <time name="total">    0.08    0.09</time>
   <energy>
    <i name="alphaZ">    676.78399632 </i>
    <i name="ewald">  -9724.33497495 </i>
    <i name="hartreedc">  -2913.01922669 </i>
    <i name="XCdc">     41.55310067 </i>
    <i name="pawpsdc">  16387.14366832 </i>
    <i name="pawaedc"> -15751.38785154 </i>
    <i name="eentropy">      0.01920519 </i>
    <i name="bandstr">  -1393.03662603 </i>
    <i name="atom">  12524.00607526 </i>
    <i name="e_fr_energy">   -152.27263346 </i>
    <i name="e_wo_entrp">   -152.29183865 </i>
    <i name="e_0_energy">   -152.27903519 </i>
   </energy>
  </scstep>
  <structure>
   <crystal>
    <varray name="basis" >
     <v>       6.91541958       0.00492178      -0.00817992 </v>
     <v>       0.00553569       7.08627748       0.04536747 </v>
     <v>      -0.00697447       0.04374499       7.02155194 </v>
    </varray>
    <i name="volume">    344.07389470 </i>
    <varray name="rec_basis" >
     <v>       0.14460464      -0.00011389       0.00014434 </v>
     <v>      -0.00010148       0.14112352      -0.00087931 </v>
     <v>       0.00016912      -0.00091196       0.14242451 </v>
    </varray>
   </crystal>
   <varray name="positions" >
    <v>       0.99434858       0.46287195       0.47786027 </v>
    <v>       0.73913445       0.27248485       0.23870233 </v>
    <v>       0.51089295       0.52964986       0.00852258 </v>
    <v>       0.99094694       0.53105103       0.01826220 </v>
    <v>       0.25156591       0.72580183       0.72671901 </v>
    <v>       0.74035461       0.73226177       0.28545064 </v>
    <v>       0.75155962       0.72818240       0.72391201 </v>
    <v>       0.99619648       0.98616375       0.00193908 </v>
    <v>       0.26062012       0.26153259       0.22404597 </v>
    <v>       0.99380244       0.02670917       0.49376880 </v>
    <v>       0.25087736       0.27361214       0.76230097 </v>
    <v>       0.25810778       0.73492462       0.28286983 </v>
    <v>       0.50363553       0.97710455       0.99812613 </v>
    <v>       0.50455740       0.02219696       0.50532881 </v>
    <v>       0.74873481       0.27343119       0.76266011 </v>
    <v>       0.50466502       0.46202135       0.48953125 </v>
   </varray>
  </structure>
  <varray name="forces" >
   <v>       0.00279339       0.00846167       0.01155742 </v>
   <v>       0.00637602      -0.01462365      -0.01401571 </v>
   <v>      -0.00353937       0.00154358      -0.01273630 </v>
   <v>       0.00530620       0.00346073      -0.00454788 </v>
   <v>      -0.00522207       0.01288228       0.00361210 </v>
   <v>       0.00616512       0.00820307      -0.00940848 </v>
   <v>       0.00555213       0.01185594       0.00258511 </v>
   <v>      -0.00543050      -0.00130635       0.00639089 </v>
   <v>      -0.00215842      -0.00834873      -0.00740344 </v>
   <v>       0.00382324      -0.01504498       0.00228322 </v>
   <v>      -0.00603062      -0.00929613       0.00343178 </v>
   <v>      -0.00333955       0.01127182      -0.00605368 </v>
   <v>      -0.00011723       0.00153698       0.00282727 </v>
   <v>      -0.00083627      -0.01318022      -0.00615285 </v>
   <v>       0.00257626      -0.01320326       0.01216040 </v>
   <v>      -0.00591833       0.01578724       0.01547014 </v>
  </varray>
  <varray name="stress" >
   <v>       0.03316075      -0.01306238      -0.03157352 </v>
   <v>      -0.01306237       0.22912446      -0.11786109 </v>
   <v>      -0.03157355      -0.11786109       0.15972749 </v>
  </varray>
  <energy>
   <i name="e_fr_energy">   -152.27263346 </i>
   <i name="e_wo_entrp">   -152.27903519 </i>
   <i name="e_0_energy">      0.01920519 </i>
  </energy>
  <time name="totalsc">    0.59    0.70</time>
 </calculation>
 <calculation>
  <scstep>
   <time name="dav">    0.12    0.13</time>
   <time name="total">    0.14    0.16</time>
   <energy>
    <i name="alphaZ">    676.78392557 </i>
    <i name="ewald">  -9724.33462676 </i>
    <i name="hartreedc">  -2913.01844191 </i>
    <i name="XCdc">     41.55305442 </i>
    <i name="pawpsdc">  16387.19010227 </i>
    <i name="pawaedc"> -15751.43424193 </i>
    <i name="eentropy">      0.01920518 </i>
    <i name="bandstr">  -1393.03768553 </i>
    <i name="atom">  12524.00607526 </i>
    <i name="e_fr_energy">   -152.27263342 </i>
    <i name="e_wo_entrp">   -152.29183860 </i>
    <i name="e_0_energy">   -152.27903515 </i>
   </energy>
  </scstep>
  <scstep>
   <time name="diag">    0.02    0.02</time>
   <time name="diis">    0.04    0.04</time>
   <time name="orth">    0.00    0.00</time>
   <time name="total">    0.08    0.09</time>
   <energy>
    <i name="alphaZ">    676.78392557 </i>
    <i name="ewald">  -9724.33462676 </i>
    <i name="hartreedc">  -2913.01889852 </i>
    <i name="XCdc">     41.55307130 </i>
    <i name="pawpsdc">  16387.19551244 </i>
    <i name="pawaedc"> -15751.43950626 </i>
    <i name="eentropy">      0.01920521 </i>
    <i name="bandstr">  -1393.03739166 </i>
    <i name="atom">  12524.00607526 </i>
    <i name="e_fr_energy">   -152.27263342 </i>
    <i name="e_wo_entrp">   -152.29183862 </i>
    <i name="e_0_energy">   -152.27903515 </i>
   </energy>
  </scstep>
  <structure>
   <crystal>
    <varray name="basis" >
     <v>       6.91541982       0.00492178      -0.00817992 </v>
     <v>       0.00553569       7.08627773       0.04536747 </v>
     <v>      -0.00697447       0.04374500       7.02155218 </v>
    </varray>
    <i name="volume">    344.07393066 </i>
    <varray name="rec_basis" >
     <v>       0.14460463      -0.00011389       0.00014434 </v>
     <v>      -0.00010148       0.14112352      -0.00087931 </v>
     <v>       0.00016912      -0.00091196       0.14242450 </v>
    </varray>
   </crystal>
   <varray name="positions" >
    <v>       0.99434858       0.46287195       0.47786027 </v>
    <v>       0.73913445       0.27248485       0.23870233 </v>
    <v>       0.51089295       0.52964986       0.00852258 </v>
    <v>       0.99094695       0.53105103       0.01826220 </v>
    <v>       0.25156591       0.72580183       0.72671901 </v>
    <v>       0.74035461       0.73226177       0.28545064 </v>
    <v>       0.75155962       0.72818240       0.72391201 </v>
    <v>       0.99619648       0.98616375       0.00193908 </v>
    <v>       0.26062012       0.26153259       0.22404597 </v>
    <v>       0.99380244       0.02670917       0.49376880 </v>
    <v>       0.25087736       0.27361214       0.76230097 </v>
    <v>       0.25810778       0.73492462       0.28286983 </v>
    <v>       0.50363553       0.97710455       0.99812613 </v>
    <v>       0.50455740       0.02219696       0.50532881 </v>
    <v>       0.74873481       0.27343119       0.76266011 </v>
    <v>       0.50466502       0.46202135       0.48953125 </v>
   </varray>
  </structure>
  <varray name="forces" >
   <v>       0.00279250       0.00846453       0.01155923 </v>
   <v>       0.00638217      -0.01462172      -0.01402064 </v>
   <v>      -0.00353546       0.00154989      -0.01273589 </v>
   <v>       0.00530467       0.00346434      -0.00454306 </v>
   <v>      -0.00522393       0.01288416       0.00361521 </v>
   <v>       0.00616813       0.00820660      -0.00940655 </v>
   <v>       0.00555577       0.01185856       0.00258871 </v>
   <v>      -0.00543190      -0.00131214       0.00638908 </v>
   <v>      -0.00217476      -0.00835147      -0.00740764 </v>
   <v>       0.00381614      -0.01504433       0.00228055 </v>
   <v>      -0.00603781      -0.00929850       0.00344775 </v>
   <v>      -0.00335587       0.01128497      -0.00606596 </v>
   <v>      -0.00011033       0.00152732       0.00282644 </v>
   <v>      -0.00082789      -0.01319160      -0.00614669 </v>
   <v>       0.00259142      -0.01320184       0.01216662 </v>
   <v>      -0.00591284       0.01578123       0.01545283 </v>
  </varray>
  <varray name="stress" >
   <v>       0.03974160      -0.01313607      -0.03153863 </v>
   <v>      -0.01313606       0.23584674      -0.11784665 </v>
   <v>      -0.03153858      -0.11784662       0.16651739 </v>
  </varray>
  <energy>
   <i name="e_fr_energy">   -152.27263342 </i>
   <i name="e_wo_entrp">   -152.27903515 </i>
   <i name="e_0_energy">      0.01920521 </i>
  </energy>
  <time name="totalsc">    0.58    0.61</time>
 </calculation>
 <calculation>
  <scstep>
   <time name="dav">    0.17    0.17</time>
   <time name="total">    0.21    0.22</time>
   <energy>
    <i name="alphaZ">    676.78389640 </i>
    <i name="ewald">  -9724.33448317 </i>
    <i name="hartreedc">  -2913.01884502 </i>
    <i name="XCdc">     41.55306740 </i>
    <i name="pawpsdc">  16387.19854003 </i>
    <i name="pawaedc"> -15751.44245429 </i>
[...]
    <i name="e_fr_energy">   -152.27263343 </i>
    <i name="e_wo_entrp">   -152.29183869 </i>
    <i name="e_0_energy">   -152.27903518 </i>
   </energy>
  </scstep>
  <scstep>
   <time name="diag">    0.02    0.02</time>
   <time name="diis">    0.04    0.04</time>
   <time name="orth">    0.00    0.00</time>
   <time name="total">    0.08    0.08</time>
   <energy>
    <i name="alphaZ">    676.78387804 </i>
    <i name="ewald">  -9724.33439283 </i>
    <i name="hartreedc">  -2913.01912679 </i>
    <i name="XCdc">     41.55307881 </i>
    <i name="pawpsdc">  16387.23186540 </i>
    <i name="pawaedc"> -15751.47514629 </i>
    <i name="eentropy">      0.01920523 </i>
    <i name="bandstr">  -1393.03807027 </i>
    <i name="atom">  12524.00607526 </i>
    <i name="e_fr_energy">   -152.27263343 </i>
    <i name="e_wo_entrp">   -152.29183867 </i>
    <i name="e_0_energy">   -152.27903518 </i>
   </energy>
  </scstep>
  <structure>
   <crystal>
    <varray name="basis" >
     <v>       6.91541999       0.00492178      -0.00817992 </v>
     <v>       0.00553569       7.08627790       0.04536748 </v>
     <v>      -0.00697447       0.04374500       7.02155234 </v>
    </varray>
    <i name="volume">    344.07395483 </i>
    <varray name="rec_basis" >
     <v>       0.14460463      -0.00011389       0.00014434 </v>
     <v>      -0.00010148       0.14112352      -0.00087931 </v>
     <v>       0.00016912      -0.00091196       0.14242450 </v>
    </varray>
   </crystal>
   <varray name="positions" >
    <v>       0.99434858       0.46287195       0.47786027 </v>
    <v>       0.73913445       0.27248485       0.23870233 </v>
    <v>       0.51089295       0.52964986       0.00852258 </v>
    <v>       0.99094695       0.53105103       0.01826220 </v>
    <v>       0.25156591       0.72580183       0.72671901 </v>
    <v>       0.74035461       0.73226177       0.28545064 </v>
    <v>       0.75155962       0.72818240       0.72391201 </v>
    <v>       0.99619648       0.98616375       0.00193908 </v>
    <v>       0.26062012       0.26153259       0.22404597 </v>
    <v>       0.99380244       0.02670917       0.49376880 </v>
    <v>       0.25087737       0.27361214       0.76230097 </v>
    <v>       0.25810778       0.73492462       0.28286983 </v>
    <v>       0.50363553       0.97710455       0.99812613 </v>
    <v>       0.50455740       0.02219696       0.50532881 </v>
    <v>       0.74873481       0.27343119       0.76266011 </v>
    <v>       0.50466502       0.46202135       0.48953125 </v>
   </varray>
  </structure>
  <varray name="forces" >
   <v>       0.00279632       0.00846286       0.01155677 </v>
   <v>       0.00638286      -0.01462226      -0.01402697 </v>
   <v>      -0.00353114       0.00156124      -0.01273427 </v>
   <v>       0.00530625       0.00347150      -0.00453800 </v>
   <v>      -0.00522362       0.01288637       0.00361575 </v>
   <v>       0.00616875       0.00821202      -0.00940300 </v>
   <v>       0.00555951       0.01186161       0.00258765 </v>
   <v>      -0.00542436      -0.00132588       0.00638163 </v>
   <v>      -0.00219557      -0.00835789      -0.00742680 </v>
   <v>       0.00381121      -0.01505210       0.00227472 </v>
   <v>      -0.00605671      -0.00930055       0.00347612 </v>
   <v>      -0.00338056       0.01130660      -0.00608509 </v>
   <v>      -0.00010361       0.00151664       0.00282378 </v>
   <v>      -0.00081861      -0.01321113      -0.00613791 </v>
   <v>       0.00261927      -0.01320663       0.01218478 </v>
   <v>      -0.00591000       0.01579757       0.01545086 </v>
  </varray>
  <varray name="stress" >
   <v>       0.03877313      -0.01313335      -0.03153126 </v>
   <v>      -0.01313330       0.23513189      -0.11779890 </v>
   <v>      -0.03153121      -0.11779890       0.16590539 </v>
  </varray>
  <energy>
   <i name="e_fr_energy">   -152.27263343 </i>
   <i name="e_wo_entrp">   -152.27903518 </i>
   <i name="e_0_energy">      0.01920523 </i>
  </energy>
  <time name="totalsc">    0.59    0.64</time>
 </calculation>
 <calculation>
  <scstep>
   <time name="dav">    0.11    0.11</time>
   <time name="total">    0.13    0.14</time>
   <energy>
    <i name="alphaZ">    676.78387794 </i>
    <i name="ewald">  -9724.33439231 </i>
    <i name="hartreedc">  -2913.01918806 </i>
    <i name="XCdc">     41.55308211 </i>
    <i name="pawpsdc">  16387.22865674 </i>
    <i name="pawaedc"> -15751.47190064 </i>
    <i name="eentropy">      0.01920524 </i>
    <i name="bandstr">  -1393.03804972 </i>
    <i name="atom">  12524.00607526 </i>
    <i name="e_fr_energy">   -152.27263343 </i>
    <i name="e_wo_entrp">   -152.29183868 </i>
    <i name="e_0_energy">   -152.27903518 </i>
   </energy>
  </scstep>
  <scstep>
   <time name="diag">    0.02    0.02</time>
   <time name="diis">    0.04    0.04</time>
   <time name="orth">    0.00    0.00</time>
   <time name="total">    0.08    0.09</time>
   <energy>
    <i name="alphaZ">    676.78387794 </i>
    <i name="ewald">  -9724.33439231 </i>
    <i name="hartreedc">  -2913.01916536 </i>
    <i name="XCdc">     41.55308078 </i>
    <i name="pawpsdc">  16387.23243778 </i>
    <i name="pawaedc"> -15751.47565916 </i>
    <i name="eentropy">      0.01920524 </i>
    <i name="bandstr">  -1393.03809361 </i>
    <i name="atom">  12524.00607526 </i>
    <i name="e_fr_energy">   -152.27263343 </i>
    <i name="e_wo_entrp">   -152.29183867 </i>
    <i name="e_0_energy">   -152.27903518 </i>
   </energy>
  </scstep>
  <structure>
   <crystal>
    <varray name="basis" >
     <v>       6.91541999       0.00492178      -0.00817992 </v>
     <v>       0.00553569       7.08627790       0.04536748 </v>
     <v>      -0.00697447       0.04374500       7.02155234 </v>
    </varray>
    <i name="volume">    344.07395488 </i>
    <varray name="rec_basis" >
     <v>       0.14460463      -0.00011389       0.00014434 </v>
     <v>      -0.00010148       0.14112352      -0.00087931 </v>
     <v>       0.00016912      -0.00091196       0.14242450 </v>
    </varray>
   </crystal>
   <varray name="positions" >
    <v>       0.99434858       0.46287195       0.47786027 </v>
    <v>       0.73913445       0.27248485       0.23870233 </v>
    <v>       0.51089295       0.52964986       0.00852258 </v>
    <v>       0.99094695       0.53105103       0.01826220 </v>
    <v>       0.25156591       0.72580183       0.72671901 </v>
    <v>       0.74035461       0.73226177       0.28545064 </v>
    <v>       0.75155962       0.72818240       0.72391201 </v>
    <v>       0.99619648       0.98616375       0.00193908 </v>
    <v>       0.26062012       0.26153259       0.22404597 </v>
    <v>       0.99380244       0.02670917       0.49376880 </v>
    <v>       0.25087737       0.27361214       0.76230097 </v>
    <v>       0.25810778       0.73492462       0.28286983 </v>
    <v>       0.50363553       0.97710455       0.99812613 </v>
    <v>       0.50455740       0.02219696       0.50532881 </v>
    <v>       0.74873481       0.27343119       0.76266011 </v>
    <v>       0.50466502       0.46202135       0.48953125 </v>
   </varray>
  </structure>
  <varray name="forces" >
   <v>       0.00279668       0.00846218       0.01155649 </v>
   <v>       0.00638083      -0.01462152      -0.01402598 </v>
   <v>      -0.00353094       0.00156138      -0.01273427 </v>
   <v>       0.00530661       0.00347185      -0.00453793 </v>
   <v>      -0.00522238       0.01288541       0.00361395 </v>
   <v>       0.00616757       0.00821105      -0.00940167 </v>
   <v>       0.00555902       0.01186072       0.00258580 </v>
   <v>      -0.00542356      -0.00132622       0.00638132 </v>
   <v>      -0.00219390      -0.00835786      -0.00742626 </v>
   <v>       0.00381219      -0.01505288       0.00227416 </v>
   <v>      -0.00605585      -0.00929962       0.00347509 </v>
   <v>      -0.00337961       0.01130632      -0.00608374 </v>
   <v>      -0.00010389       0.00151754       0.00282338 </v>
   <v>      -0.00081954      -0.01321026      -0.00613738 </v>
   <v>       0.00261941      -0.01320722       0.01218377 </v>
   <v>      -0.00591264       0.01579913       0.01545328 </v>
  </varray>
  <varray name="stress" >
   <v>       0.03793199      -0.01312770      -0.03153816 </v>
   <v>      -0.01312768       0.23430158      -0.11778581 </v>
   <v>      -0.03153818      -0.11778579       0.16506103 </v>
  </varray>
  <energy>
   <i name="e_fr_energy">   -152.27263343 </i>
   <i name="e_wo_entrp">   -152.27903518 </i>
   <i name="e_0_energy">      0.01920524 </i>
  </energy>
  <time name="totalsc">    0.63    0.65</time>
 </calculation>
 <calculation>
  <scstep>
   <time name="dav">    0.18    0.18</time>
   <time name="total">    0.21    0.21</time>
   <energy>
    <i name="alphaZ">    674.25223912 </i>
    <i name="ewald">  -9711.85865975 </i>
    <i name="hartreedc">  -2909.70416879 </i>
    <i name="XCdc">     41.00198200 </i>
    <i name="pawpsdc">  16387.23598801 </i>
    <i name="pawaedc"> -15751.47918536 </i>
    <i name="eentropy">      0.01906502 </i>
    <i name="bandstr">  -1405.75834928 </i>
    <i name="atom">  12524.00607526 </i>
    <i name="e_fr_energy">   -152.28501378 </i>
    <i name="e_wo_entrp">   -152.30407880 </i>
    <i name="e_0_energy">   -152.29136879 </i>
   </energy>
  </scstep>
  <scstep>
   <time name="diag">    0.02    0.02</time>
   <time name="diis">    0.13    0.13</time>
   <time name="orth">    0.00    0.00</time>
   <time name="total">    0.18    0.18</time>
   <energy>
    <i name="e_fr_energy">   -152.27425453 </i>
    <i name="e_wo_entrp">   -152.29353927 </i>
    <i name="e_0_energy">   -152.28068278 </i>
   </energy>
  </scstep>
  <scstep>
   <time name="diag">    0.02    0.02</time>
   <time name="diis">    0.13    0.13</time>
   <time name="orth">    0.00    0.00</time>
   <time name="total">    0.18    0.19</time>
   <energy>
    <i name="e_fr_energy">   -152.27149296 </i>
    <i name="e_wo_entrp">   -152.29009212 </i>
    <i name="e_0_energy">   -152.27769268 </i>
   </energy>
  </scstep>
  <scstep>
   <time name="diag">    0.02    0.02</time>
   <time name="diis">    0.13    0.13</time>
   <time name="orth">    0.00    0.00</time>
   <time name="total">    0.18    0.19</time>
   <energy>
    <i name="e_fr_energy">   -152.27084157 </i>
    <i name="e_wo_entrp">   -152.28956581 </i>
    <i name="e_0_energy">   -152.27708298 </i>
   </energy>
  </scstep>
  <scstep>
   <time name="diag">    0.02    0.02</time>
   <time name="diis">    0.14    0.14</time>
   <time name="orth">    0.00    0.00</time>
   <time name="total">    0.19    0.20</time>
   <energy>
    <i name="e_fr_energy">   -152.27091458 </i>
    <i name="e_wo_entrp">   -152.28963483 </i>
    <i name="e_0_energy">   -152.27715466 </i>
   </energy>
  </scstep>
  <scstep>
   <time name="diag">    0.02    0.02</time>
   <time name="diis">    0.12    0.12</time>
   <time name="orth">    0.00    0.00</time>
   <time name="total">    0.17    0.18</time>
   <energy>
    <i name="e_fr_energy">   -152.27094198 </i>
    <i name="e_wo_entrp">   -152.28967759 </i>
    <i name="e_0_energy">   -152.27718718 </i>
   </energy>
  </scstep>
  <scstep>
   <time name="diag">    0.02    0.02</time>
   <time name="diis">    0.09    0.09</time>
   <time name="orth">    0.00    0.00</time>
   <time name="total">    0.14    0.14</time>
   <energy>
    <i name="e_fr_energy">   -152.27095406 </i>
    <i name="e_wo_entrp">   -152.28968461 </i>
    <i name="e_0_energy">   -152.27719757 </i>
   </energy>
  </scstep>
  <scstep>
   <time name="diag">    0.03    0.03</time>
   <time name="diis">    0.09    0.09</time>
   <time name="orth">    0.00    0.00</time>
   <time name="total">    0.13    0.14</time>
   <energy>
    <i name="alphaZ">    674.25223912 </i>
    <i name="ewald">  -9711.85865975 </i>
    <i name="hartreedc">  -2917.29378443 </i>
    <i name="XCdc">     41.35802572 </i>
    <i name="pawpsdc">  16305.63816788 </i>
    <i name="pawaedc"> -15669.94311162 </i>
    <i name="eentropy">      0.01870945 </i>
    <i name="bandstr">  -1398.44862325 </i>
    <i name="atom">  12524.00607526 </i>
    <i name="e_fr_energy">   -152.27096162 </i>
    <i name="e_wo_entrp">   -152.28967107 </i>
    <i name="e_0_energy">   -152.27719811 </i>
   </energy>
  </scstep>
  <structure>
   <crystal>
    <varray name="basis" >
     <v>       6.92414433       0.00493679      -0.00811414 </v>
     <v>       0.00555242       7.09514406       0.04557220 </v>
     <v>      -0.00690625       0.04394688       7.03024177 </v>
    </varray>
    <i name="volume">    345.36586157 </i>
    <varray name="rec_basis" >
     <v>       0.14442243      -0.00011394       0.00014259 </v>
     <v>      -0.00010153       0.14094720      -0.00088118 </v>
     <v>       0.00016735      -0.00091379       0.14224850 </v>
    </varray>
   </crystal>
   <varray name="positions" >
    <v>       0.99436620       0.46286852       0.47785818 </v>
    <v>       0.73912015       0.27246594       0.23873232 </v>
    <v>       0.51087616       0.52962967       0.00854902 </v>
    <v>       0.99095451       0.53103337       0.01825103 </v>
    <v>       0.25157623       0.72579274       0.72671173 </v>
    <v>       0.74034102       0.73228804       0.28546848 </v>
    <v>       0.75154788       0.72818354       0.72391017 </v>
    <v>       0.99622178       0.98617939       0.00191505 </v>
    <v>       0.26061780       0.26152152       0.22406889 </v>
    <v>       0.99380342       0.02673598       0.49376474 </v>
    <v>       0.25089441       0.27360701       0.76229114 </v>
    <v>       0.25811181       0.73492707       0.28288358 </v>
    <v>       0.50362898       0.97712088       0.99811384 </v>
    <v>       0.50454952       0.02222279       0.50535652 </v>
    <v>       0.74873224       0.27342755       0.76262093 </v>
    <v>       0.50465790       0.46199600       0.48950438 </v>
   </varray>
  </structure>
  <varray name="forces" >
   <v>      -0.00516668       0.00126245       0.00140429 </v>
   <v>       0.00424760       0.00551824      -0.01002748 </v>
   <v>       0.00512541       0.00662240      -0.00846871 </v>
   <v>      -0.00220411       0.00587028       0.00324059 </v>
   <v>      -0.00338681       0.00304577       0.00167662 </v>
   <v>       0.00415573      -0.00808839      -0.00509909 </v>
   <v>       0.00397863      -0.00028106       0.00008743 </v>
   <v>      -0.00788767      -0.00548707       0.00741688 </v>
   <v>       0.00025674       0.00304519      -0.00859062 </v>
   <v>      -0.00045797      -0.00925184       0.00132222 </v>
   <v>      -0.00625158       0.00156884       0.00429068 </v>
   <v>      -0.00172596       0.00013374      -0.00447415 </v>
   <v>       0.00233762      -0.00575829       0.00360121 </v>
   <v>       0.00265349      -0.00951505      -0.00871788 </v>
   <v>       0.00174223       0.00099331       0.01330933 </v>
   <v>       0.00258334       0.01032146       0.00902868 </v>
  </varray>
  <varray name="stress" >
   <v>      -4.02670548      -0.00458773      -0.04130543 </v>
   <v>      -0.00458771      -4.00075461      -0.05738347 </v>
   <v>      -0.04130545      -0.05738347      -3.95417483 </v>
  </varray>
  <energy>
   <i name="e_fr_energy">   -152.27096162 </i>
   <i name="e_wo_entrp">   -152.27719811 </i>
   <i name="e_0_energy">      0.01870945 </i>
  </energy>
  <time name="totalsc">    1.78    1.85</time>
 </calculation>
 <calculation>
  <scstep>
   <time name="dav">    0.17    0.17</time>
   <time name="total">    0.20    0.20</time>
   <energy>
    <i name="alphaZ">    674.25223912 </i>
    <i name="ewald">  -9711.85865975 </i>
    <i name="hartreedc">  -2917.24594748 </i>
    <i name="XCdc">     41.35592791 </i>
    <i name="pawpsdc">  16305.63864853 </i>
    <i name="pawaedc"> -15669.99577697 </i>
    <i name="eentropy">      0.01871085 </i>
    <i name="bandstr">  -1398.44218081 </i>
    <i name="atom">  12524.00607526 </i>
    <i name="e_fr_energy">   -152.27096334 </i>
    <i name="e_wo_entrp">   -152.28967419 </i>
    <i name="e_0_energy">   -152.27720029 </i>
   </energy>
  </scstep>
  <scstep>
   <time name="diag">    0.02    0.02</time>
   <time name="diis">    0.06    0.06</time>
   <time name="orth">    0.00    0.00</time>
   <time name="total">    0.09    0.10</time>
   <energy>
    <i name="alphaZ">    674.25223912 </i>
    <i name="ewald">  -9711.85865975 </i>
    <i name="hartreedc">  -2917.21593807 </i>
    <i name="XCdc">     41.35455037 </i>
    <i name="pawpsdc">  16305.26951815 </i>
    <i name="pawaedc"> -15669.65723205 </i>
    <i name="eentropy">      0.01871907 </i>
    <i name="bandstr">  -1398.44023413 </i>
    <i name="atom">  12524.00607526 </i>
    <i name="e_fr_energy">   -152.27096202 </i>
    <i name="e_wo_entrp">   -152.28968109 </i>
    <i name="e_0_energy">   -152.27720171 </i>
   </energy>
  </scstep>
  <structure>
   <crystal>
    <varray name="basis" >
     <v>       6.92414433       0.00493679      -0.00811414 </v>
     <v>       0.00555242       7.09514406       0.04557220 </v>
     <v>      -0.00690625       0.04394688       7.03024177 </v>
    </varray>
    <i name="volume">    345.36586157 </i>
    <varray name="rec_basis" >
     <v>       0.14442243      -0.00011394       0.00014259 </v>
     <v>      -0.00010153       0.14094720      -0.00088118 </v>
     <v>       0.00016735      -0.00091379       0.14224850 </v>
    </varray>
   </crystal>
   <varray name="positions" >
    <v>       0.99436620       0.46286852       0.47785818 </v>
    <v>       0.73912015       0.27246594       0.23873232 </v>
    <v>       0.51087616       0.52962967       0.00854902 </v>
    <v>       0.99095451       0.53103337       0.01825103 </v>
    <v>       0.25157623       0.72579274       0.72671173 </v>
    <v>       0.74034102       0.73228804       0.28546848 </v>
    <v>       0.75154788       0.72818354       0.72391017 </v>
    <v>       0.99622178       0.98617939       0.00191505 </v>
    <v>       0.26061780       0.26152152       0.22406889 </v>
    <v>       0.99380342       0.02673598       0.49376474 </v>
    <v>       0.25089441       0.27360701       0.76229114 </v>
    <v>       0.25811181       0.73492707       0.28288358 </v>
    <v>       0.50362898       0.97712088       0.99811384 </v>
    <v>       0.50454952       0.02222279       0.50535652 </v>
    <v>       0.74873224       0.27342755       0.76262093 </v>
    <v>       0.50465790       0.46199600       0.48950438 </v>
   </varray>
  </structure>
  <varray name="forces" >
   <v>      -0.00518588       0.00094166       0.00103793 </v>
   <v>       0.00448000       0.00538638      -0.01034088 </v>
   <v>       0.00504702       0.00630304      -0.00841831 </v>
   <v>      -0.00219824       0.00578225       0.00329389 </v>
   <v>      -0.00343822       0.00340215       0.00235681 </v>
   <v>       0.00438913      -0.00779241      -0.00582263 </v>
   <v>       0.00395358       0.00005147       0.00063612 </v>
   <v>      -0.00741374      -0.00453455       0.00740533 </v>
   <v>       0.00063715       0.00231715      -0.00783263 </v>
   <v>       0.00008910      -0.00873501       0.00123646 </v>
   <v>      -0.00554378       0.00091526       0.00368620 </v>
   <v>      -0.00134219       0.00080149      -0.00434798 </v>
   <v>       0.00187953      -0.00491320       0.00373735 </v>
   <v>       0.00201045      -0.00845584      -0.00877380 </v>
   <v>       0.00111339       0.00038406       0.01290016 </v>
   <v>       0.00152268       0.00814610       0.00924599 </v>
  </varray>
  <varray name="stress" >
   <v>      -4.19564757      -0.00638560      -0.03788638 </v>
   <v>      -0.00638557      -4.17070661      -0.07018309 </v>
   <v>      -0.03788640      -0.07018310      -4.13480471 </v>
  </varray>
  <energy>
   <i name="e_fr_energy">   -152.27096202 </i>
   <i name="e_wo_entrp">   -152.27720171 </i>
   <i name="e_0_energy">      0.01871907 </i>
  </energy>
