automatically generated by mexm         
           1
     6.918438    0.004927   -0.008157
     0.005541    7.089345    0.045438
    -0.006951    0.043815    7.024558
   Ta   Hf   Zr   Nb
   3   4   8   1
Direct configuration=     1
   0.99436619  0.46286852  0.47785819
   0.73912017  0.27246596  0.23873229
   0.51087617  0.52962969  0.00854900
   0.99095451  0.53103339  0.01825104
   0.25157622  0.72579275  0.72671174
   0.74034104  0.73228802  0.28546846
   0.75154789  0.72818354  0.72391017
   0.99622175  0.98617938  0.00191507
   0.26061780  0.26152153  0.22406886
   0.99380341  0.02673595  0.49376475
   0.25089439  0.27360701  0.76229115
   0.25811180  0.73492707  0.28288356
   0.50362898  0.97712086  0.99811386
   0.50454953  0.02222276  0.50535649
   0.74873224  0.27342755  0.76262097
   0.50465790  0.46199603  0.48950441
automatically generated by mexm         
           1
     6.915420    0.004922   -0.008180
     0.005536    7.086278    0.045367
    -0.006974    0.043745    7.021552
   Ta   Hf   Zr   Nb
   3   4   8   1
Direct configuration=     2
   0.99435467  0.46287076  0.47785955
   0.73912951  0.27247831  0.23871270
   0.51088714  0.52964288  0.00853172
   0.99094956  0.53104492  0.01825833
   0.25156948  0.72579869  0.72671649
   0.74034991  0.73227085  0.28545681
   0.75155556  0.72818279  0.72391137
   0.99620523  0.98616916  0.00193077
   0.26061932  0.26152876  0.22405389
   0.99380278  0.02671844  0.49376740
   0.25088326  0.27361037  0.76229757
   0.25810917  0.73492547  0.28287459
   0.50363326  0.97711019  0.99812188
   0.50455467  0.02220589  0.50533839
   0.74873392  0.27342993  0.76264656
   0.50466256  0.46201258  0.48952196
automatically generated by mexm         
           1
     6.915262    0.004922   -0.008181
     0.005535    7.086117    0.045364
    -0.006976    0.043741    7.021395
   Ta   Hf   Zr   Nb
   3   4   8   1
Direct configuration=     3
   0.99434858  0.46287195  0.47786027
   0.73913445  0.27248485  0.23870233
   0.51089295  0.52964986  0.00852258
   0.99094695  0.53105103  0.01826220
   0.25156591  0.72580183  0.72671901
   0.74035461  0.73226177  0.28545064
   0.75155962  0.72818240  0.72391201
   0.99619648  0.98616375  0.00193908
   0.26062012  0.26153259  0.22404597
   0.99380244  0.02670917  0.49376880
   0.25087737  0.27361214  0.76230097
   0.25810778  0.73492462  0.28286983
   0.50363553  0.97710455  0.99812613
   0.50455740  0.02219696  0.50532881
   0.74873481  0.27343119  0.76266011
   0.50466502  0.46202135  0.48953125
automatically generated by mexm         
           1
     6.915300    0.004922   -0.008181
     0.005535    7.086156    0.045365
    -0.006975    0.043742    7.021433
   Ta   Hf   Zr   Nb
   3   4   8   1
Direct configuration=     4
   0.99434826  0.46287201  0.47786031
   0.73913471  0.27248519  0.23870179
   0.51089325  0.52965022  0.00852210
   0.99094681  0.53105135  0.01826240
   0.25156572  0.72580199  0.72671914
   0.74035486  0.73226129  0.28545032
   0.75155983  0.72818238  0.72391204
   0.99619602  0.98616347  0.00193951
   0.26062016  0.26153279  0.22404555
   0.99380242  0.02670868  0.49376888
   0.25087706  0.27361223  0.76230115
   0.25810770  0.73492458  0.28286959
   0.50363565  0.97710425  0.99812635
   0.50455754  0.02219650  0.50532831
   0.74873485  0.27343125  0.76266082
   0.50466515  0.46202181  0.48953174
automatically generated by mexm         
           1
     6.915378    0.004922   -0.008180
     0.005536    7.086235    0.045366
    -0.006975    0.043744    7.021510
   Ta   Hf   Zr   Nb
   3   4   8   1
Direct configuration=     5
   0.99434834  0.46287199  0.47786030
   0.73913465  0.27248511  0.23870192
   0.51089318  0.52965014  0.00852222
   0.99094684  0.53105127  0.01826235
   0.25156577  0.72580195  0.72671911
   0.74035480  0.73226141  0.28545040
   0.75155978  0.72818238  0.72391204
   0.99619613  0.98616353  0.00193941
   0.26062015  0.26153275  0.22404565
   0.99380243  0.02670880  0.49376886
   0.25087713  0.27361221  0.76230111
   0.25810772  0.73492459  0.28286965
   0.50363562  0.97710432  0.99812630
   0.50455750  0.02219661  0.50532843
   0.74873484  0.27343124  0.76266065
   0.50466512  0.46202170  0.48953162
automatically generated by mexm         
           1
     6.915408    0.004922   -0.008180
     0.005536    7.086266    0.045367
    -0.006975    0.043745    7.021541
   Ta   Hf   Zr   Nb
   3   4   8   1
Direct configuration=     6
   0.99434849  0.46287196  0.47786028
   0.73913452  0.27248494  0.23870218
   0.51089303  0.52964996  0.00852245
   0.99094691  0.53105111  0.01826225
   0.25156586  0.72580187  0.72671905
   0.74035468  0.73226164  0.28545055
   0.75155967  0.72818239  0.72391202
   0.99619636  0.98616367  0.00193919
   0.26062013  0.26153265  0.22404586
   0.99380243  0.02670904  0.49376882
   0.25087728  0.27361217  0.76230102
   0.25810776  0.73492461  0.28286977
   0.50363556  0.97710447  0.99812619
   0.50455743  0.02219684  0.50532868
   0.74873482  0.27343120  0.76266030
   0.50466506  0.46202147  0.48953138
automatically generated by mexm         
           1
     6.915416    0.004922   -0.008180
     0.005536    7.086274    0.045367
    -0.006974    0.043745    7.021549
   Ta   Hf   Zr   Nb
   3   4   8   1
Direct configuration=     7
   0.99434856  0.46287195  0.47786028
   0.73913447  0.27248487  0.23870229
   0.51089297  0.52964989  0.00852254
   0.99094694  0.53105105  0.01826221
   0.25156590  0.72580184  0.72671902
   0.74035463  0.73226173  0.28545062
   0.75155963  0.72818240  0.72391201
   0.99619645  0.98616373  0.00193911
   0.26062013  0.26153261  0.22404594
   0.99380244  0.02670914  0.49376881
   0.25087734  0.27361215  0.76230099
   0.25810777  0.73492462  0.28286982
   0.50363554  0.97710453  0.99812615
   0.50455741  0.02219693  0.50532877
   0.74873481  0.27343119  0.76266016
   0.50466503  0.46202138  0.48953129
automatically generated by mexm         
           1
     6.915419    0.004922   -0.008180
     0.005536    7.086277    0.045367
    -0.006974    0.043745    7.021551
   Ta   Hf   Zr   Nb
   3   4   8   1
Direct configuration=     8
   0.99434857  0.46287195  0.47786028
   0.73913446  0.27248485  0.23870232
   0.51089296  0.52964987  0.00852257
   0.99094694  0.53105103  0.01826220
   0.25156591  0.72580183  0.72671902
   0.74035462  0.73226176  0.28545063
   0.75155962  0.72818240  0.72391201
   0.99619647  0.98616374  0.00193909
   0.26062012  0.26153260  0.22404596
   0.99380244  0.02670916  0.49376880
   0.25087736  0.27361214  0.76230098
   0.25810777  0.73492462  0.28286983
   0.50363553  0.97710454  0.99812613
   0.50455740  0.02219695  0.50532880
   0.74873481  0.27343119  0.76266012
   0.50466503  0.46202136  0.48953126
automatically generated by mexm         
           1
     6.915420    0.004922   -0.008180
     0.005536    7.086277    0.045367
    -0.006974    0.043745    7.021552
   Ta   Hf   Zr   Nb
   3   4   8   1
Direct configuration=     9
   0.99434858  0.46287195  0.47786027
   0.73913445  0.27248485  0.23870233
   0.51089295  0.52964986  0.00852258
   0.99094694  0.53105103  0.01826220
   0.25156591  0.72580183  0.72671901
   0.74035461  0.73226176  0.28545064
   0.75155962  0.72818240  0.72391201
   0.99619648  0.98616375  0.00193908
   0.26062012  0.26153260  0.22404596
   0.99380244  0.02670917  0.49376880
   0.25087736  0.27361214  0.76230098
   0.25810778  0.73492462  0.28286983
   0.50363553  0.97710455  0.99812613
   0.50455740  0.02219696  0.50532881
   0.74873481  0.27343119  0.76266011
   0.50466502  0.46202135  0.48953125
automatically generated by mexm         
           1
     6.915420    0.004922   -0.008180
     0.005536    7.086278    0.045367
    -0.006974    0.043745    7.021552
   Ta   Hf   Zr   Nb
   3   4   8   1
Direct configuration=    10
   0.99434858  0.46287195  0.47786027
   0.73913445  0.27248485  0.23870233
   0.51089295  0.52964986  0.00852258
   0.99094694  0.53105103  0.01826220
   0.25156591  0.72580183  0.72671901
   0.74035461  0.73226177  0.28545064
   0.75155962  0.72818240  0.72391201
   0.99619648  0.98616375  0.00193908
   0.26062012  0.26153259  0.22404597
   0.99380244  0.02670917  0.49376880
   0.25087736  0.27361214  0.76230097
   0.25810778  0.73492462  0.28286983
   0.50363553  0.97710455  0.99812613
   0.50455740  0.02219696  0.50532881
   0.74873481  0.27343119  0.76266011
   0.50466502  0.46202135  0.48953125
automatically generated by mexm         
           1
     6.915420    0.004922   -0.008180
     0.005536    7.086278    0.045367
    -0.006974    0.043745    7.021552
   Ta   Hf   Zr   Nb
   3   4   8   1
Direct configuration=    11
   0.99434858  0.46287195  0.47786027
   0.73913445  0.27248485  0.23870233
   0.51089295  0.52964986  0.00852258
   0.99094695  0.53105103  0.01826220
   0.25156591  0.72580183  0.72671901
   0.74035461  0.73226177  0.28545064
   0.75155962  0.72818240  0.72391201
   0.99619648  0.98616375  0.00193908
   0.26062012  0.26153259  0.22404597
   0.99380244  0.02670917  0.49376880
   0.25087736  0.27361214  0.76230097
   0.25810778  0.73492462  0.28286983
   0.50363553  0.97710455  0.99812613
   0.50455740  0.02219696  0.50532881
   0.74873481  0.27343119  0.76266011
   0.50466502  0.46202135  0.48953125
automatically generated by mexm         
           1
     6.915420    0.004922   -0.008180
     0.005536    7.086278    0.045367
    -0.006974    0.043745    7.021552
   Ta   Hf   Zr   Nb
   3   4   8   1
Direct configuration=    12
   0.99434858  0.46287195  0.47786027
   0.73913445  0.27248485  0.23870233
   0.51089295  0.52964986  0.00852258
   0.99094695  0.53105103  0.01826220
   0.25156591  0.72580183  0.72671901
   0.74035461  0.73226177  0.28545064
   0.75155962  0.72818240  0.72391201
   0.99619648  0.98616375  0.00193908
   0.26062012  0.26153259  0.22404597
   0.99380244  0.02670917  0.49376880
   0.25087736  0.27361214  0.76230097
   0.25810778  0.73492462  0.28286983
   0.50363553  0.97710455  0.99812613
   0.50455740  0.02219696  0.50532881
   0.74873481  0.27343119  0.76266011
   0.50466502  0.46202135  0.48953125
automatically generated by mexm         
           1
     6.915420    0.004922   -0.008180
     0.005536    7.086278    0.045367
    -0.006974    0.043745    7.021552
   Ta   Hf   Zr   Nb
   3   4   8   1
Direct configuration=    13
   0.99434858  0.46287195  0.47786027
   0.73913445  0.27248485  0.23870233
   0.51089295  0.52964986  0.00852258
   0.99094695  0.53105103  0.01826220
   0.25156591  0.72580183  0.72671901
   0.74035461  0.73226177  0.28545064
   0.75155962  0.72818240  0.72391201
   0.99619648  0.98616375  0.00193908
   0.26062012  0.26153259  0.22404597
   0.99380244  0.02670917  0.49376880
   0.25087736  0.27361214  0.76230097
   0.25810778  0.73492462  0.28286983
   0.50363553  0.97710455  0.99812613
   0.50455740  0.02219696  0.50532881
   0.74873481  0.27343119  0.76266011
   0.50466502  0.46202135  0.48953125
automatically generated by mexm         
           1
     6.915420    0.004922   -0.008180
     0.005536    7.086278    0.045367
    -0.006974    0.043745    7.021552
   Ta   Hf   Zr   Nb
   3   4   8   1
Direct configuration=    14
   0.99434858  0.46287195  0.47786027
   0.73913445  0.27248485  0.23870233
   0.51089295  0.52964986  0.00852258
   0.99094695  0.53105103  0.01826220
   0.25156591  0.72580183  0.72671901
   0.74035461  0.73226177  0.28545064
   0.75155962  0.72818240  0.72391201
   0.99619648  0.98616375  0.00193908
   0.26062012  0.26153259  0.22404597
   0.99380244  0.02670917  0.49376880
   0.25087736  0.27361214  0.76230097
   0.25810778  0.73492462  0.28286983
   0.50363553  0.97710455  0.99812613
   0.50455740  0.02219696  0.50532881
   0.74873481  0.27343119  0.76266011
   0.50466502  0.46202135  0.48953125
automatically generated by mexm         
           1
     6.915420    0.004922   -0.008180
     0.005536    7.086278    0.045367
    -0.006974    0.043745    7.021552
   Ta   Hf   Zr   Nb
   3   4   8   1
Direct configuration=    15
   0.99434858  0.46287195  0.47786027
   0.73913445  0.27248485  0.23870233
   0.51089295  0.52964986  0.00852258
   0.99094695  0.53105103  0.01826220
   0.25156591  0.72580183  0.72671901
   0.74035461  0.73226177  0.28545064
   0.75155962  0.72818240  0.72391201
   0.99619648  0.98616375  0.00193908
   0.26062012  0.26153259  0.22404597
   0.99380244  0.02670917  0.49376880
   0.25087737  0.27361214  0.76230097
   0.25810778  0.73492462  0.28286983
   0.50363553  0.97710455  0.99812613
   0.50455740  0.02219696  0.50532881
   0.74873481  0.27343119  0.76266011
   0.50466502  0.46202135  0.48953125
automatically generated by mexm         
           1
     6.915420    0.004922   -0.008180
     0.005536    7.086278    0.045367
    -0.006974    0.043745    7.021552
   Ta   Hf   Zr   Nb
   3   4   8   1
Direct configuration=    16
   0.99434858  0.46287195  0.47786027
   0.73913445  0.27248485  0.23870233
   0.51089295  0.52964986  0.00852258
   0.99094695  0.53105103  0.01826220
   0.25156591  0.72580183  0.72671901
   0.74035461  0.73226177  0.28545064
   0.75155962  0.72818240  0.72391201
   0.99619648  0.98616375  0.00193908
   0.26062012  0.26153259  0.22404597
   0.99380244  0.02670917  0.49376880
   0.25087737  0.27361214  0.76230097
   0.25810778  0.73492462  0.28286983
   0.50363553  0.97710455  0.99812613
   0.50455740  0.02219696  0.50532881
   0.74873481  0.27343119  0.76266011
   0.50466502  0.46202135  0.48953125
automatically generated by mexm         
           1
     6.915420    0.004922   -0.008180
     0.005536    7.086278    0.045367
    -0.006974    0.043745    7.021552
   Ta   Hf   Zr   Nb
   3   4   8   1
Direct configuration=    17
   0.99434858  0.46287195  0.47786027
   0.73913445  0.27248485  0.23870233
   0.51089295  0.52964986  0.00852258
   0.99094695  0.53105103  0.01826220
   0.25156591  0.72580183  0.72671901
   0.74035461  0.73226177  0.28545064
   0.75155962  0.72818240  0.72391201
   0.99619648  0.98616375  0.00193908
   0.26062012  0.26153259  0.22404597
   0.99380244  0.02670917  0.49376880
   0.25087737  0.27361214  0.76230097
   0.25810778  0.73492462  0.28286983
   0.50363553  0.97710455  0.99812613
   0.50455740  0.02219696  0.50532881
   0.74873481  0.27343119  0.76266011
   0.50466502  0.46202135  0.48953125
automatically generated by mexm         
           1
     6.924144    0.004937   -0.008114
     0.005552    7.095144    0.045572
    -0.006906    0.043947    7.030242
   Ta   Hf   Zr   Nb
   3   4   8   1
Direct configuration=    18
   0.99434858  0.46287195  0.47786027
   0.73913445  0.27248485  0.23870233
   0.51089295  0.52964986  0.00852258
   0.99094695  0.53105103  0.01826220
   0.25156591  0.72580183  0.72671901
   0.74035461  0.73226177  0.28545064
   0.75155962  0.72818240  0.72391201
   0.99619648  0.98616375  0.00193908
   0.26062012  0.26153259  0.22404597
   0.99380244  0.02670917  0.49376880
   0.25087737  0.27361214  0.76230097
   0.25810778  0.73492462  0.28286983
   0.50363553  0.97710455  0.99812613
   0.50455740  0.02219696  0.50532881
   0.74873481  0.27343119  0.76266011
   0.50466502  0.46202135  0.48953125
automatically generated by mexm         
           1
     6.924144    0.004937   -0.008114
     0.005552    7.095144    0.045572
    -0.006906    0.043947    7.030242
   Ta   Hf   Zr   Nb
   3   4   8   1
Direct configuration=    19
   0.99436620  0.46286852  0.47785818
   0.73912015  0.27246594  0.23873232
   0.51087616  0.52962967  0.00854902
   0.99095451  0.53103337  0.01825103
   0.25157623  0.72579274  0.72671173
   0.74034102  0.73228804  0.28546848
   0.75154788  0.72818354  0.72391017
   0.99622178  0.98617939  0.00191505
   0.26061780  0.26152152  0.22406889
   0.99380342  0.02673598  0.49376474
   0.25089441  0.27360701  0.76229114
   0.25811181  0.73492707  0.28288358
   0.50362898  0.97712088  0.99811384
   0.50454952  0.02222279  0.50535652
   0.74873224  0.27342755  0.76262093
   0.50465790  0.46199600  0.48950438
