 vasp.5.4.1 05Feb16 (build Jan 29 2020 16:04:39) complex                        
  
 executed on           IFC91_ompi date 2020.06.15  07:47:02
 running on  160 total cores
 distrk:  each k-point on   20 cores,    8 groups
 distr:  one band on NCORES_PER_BAND=   5 cores,    4 groups


--------------------------------------------------------------------------------------------------------


 INCAR:
 POTCAR:    PAW_PBE Nb_sv 25May2007               
 POTCAR:    PAW_PBE Hf 20Jan2003                  
 POTCAR:    PAW_PBE Zr_sv 04Jan2005               
 POTCAR:    PAW_PBE Ta 17Jan2003                  

 ----------------------------------------------------------------------------- 
|                                                                             |
|           W    W    AA    RRRRR   N    N  II  N    N   GGGG   !!!           |
|           W    W   A  A   R    R  NN   N  II  NN   N  G    G  !!!           |
|           W    W  A    A  R    R  N N  N  II  N N  N  G       !!!           |
|           W WW W  AAAAAA  RRRRR   N  N N  II  N  N N  G  GGG   !            |
|           WW  WW  A    A  R   R   N   NN  II  N   NN  G    G                |
|           W    W  A    A  R    R  N    N  II  N    N   GGGG   !!!           |
|                                                                             |
|      For optimal performance we recommend to set                            |
|        NCORE= 4 - approx SQRT( number of cores)                             |
|      NCORE specifies how many cores store one orbital (NPAR=cpu/NCORE).     |
|      This setting can  greatly improve the performance of VASP for DFT.     |
|      The default, NPAR=number of cores might be grossly inefficient         |
|      on modern multi-core architectures or massively parallel machines.     |
|      Do your own testing !!!!                                               |
|      Unfortunately you need to use the default for GW and RPA calculations. |
|      (for HF NCORE is supported but not extensively tested yet)             |
|                                                                             |
 ----------------------------------------------------------------------------- 


 ----------------------------------------------------------------------------- 
|                                                                             |
|           W    W    AA    RRRRR   N    N  II  N    N   GGGG   !!!           |
|           W    W   A  A   R    R  NN   N  II  NN   N  G    G  !!!           |
|           W    W  A    A  R    R  N N  N  II  N N  N  G       !!!           |
|           W WW W  AAAAAA  RRRRR   N  N N  II  N  N N  G  GGG   !            |
|           WW  WW  A    A  R   R   N   NN  II  N   NN  G    G                |
|           W    W  A    A  R    R  N    N  II  N    N   GGGG   !!!           |
|                                                                             |
|      You have enabled k-point parallelism (KPAR>1).                         |
|      This developmental code was originally  written by Paul Kent at ORNL,  |
|      and carefully double checked in Vienna.                                |
|      GW as well as linear response parallelism added by Martijn Marsman     |
|      and Georg Kresse.                                                      |
|      Carefully verify results versus KPAR=1.                                |
|      Report problems to Paul Kent and Vienna.                               |
|                                                                             |
 ----------------------------------------------------------------------------- 

 POTCAR:    PAW_PBE Nb_sv 25May2007               
   VRHFIN =Nb: 4p5s4d                                                           
   LEXCH  = PE                                                                  
   EATOM  =  1555.1913 eV,  114.3033 Ry                                         
                                                                                
   TITEL  = PAW_PBE Nb_sv 25May2007                                             
   LULTRA =        F    use ultrasoft PP ?                                      
   IUNSCR =        1    unscreen: 0-lin 1-nonlin 2-no                           
   RPACOR =    1.800    partial core radius                                     
   POMASS =   92.910; ZVAL   =   13.000    mass and valenz                      
   RCORE  =    2.400    outmost cutoff radius                                   
   RWIGS  =    2.400; RWIGS  =    1.270    wigner-seitz radius (au A)           
   ENMAX  =  293.235; ENMIN  =  219.927 eV                                      
   ICORE  =        3    local potential                                         
   LCOR   =        T    correct aug charges                                     
   LPAW   =        T    paw PP                                                  
   EAUG   =  455.659                                                            
   DEXC   =    0.000                                                            
   RMAX   =    2.456    core radius for proj-oper                               
   RAUG   =    1.300    factor for augmentation sphere                          
   RDEP   =    2.451    radius for radial grids                                 
   RDEPT  =    1.956    core radius for aug-charge                              
                                                                                
   Atomic configuration                                                         
   11 entries                                                                   
     n  l   j            E        occ.                                          
     1  0  0.50    -18805.2457   2.0000                                         
     2  0  0.50     -2630.2869   2.0000                                         
     2  1  1.50     -2348.4046   6.0000                                         
     3  0  0.50      -438.8757   2.0000                                         
     3  1  1.50      -346.7588   6.0000                                         
     3  2  2.50      -196.2560  10.0000                                         
     4  0  0.50       -58.3859   2.0000                                         
     5  0  0.50        -3.9816   1.0000                                         
     4  1  1.50       -34.5141   6.0000                                         
     4  2  2.50        -3.0408   4.0000                                         
     4  3  2.50        -1.3606   0.0000                                         
   Description                                                                  
     l       E           TYP  RCUT    TYP  RCUT                                 
     0    -58.3859094     23  2.200                                             
     0     -3.9816262     23  2.200                                             
     1    -34.5140738     23  2.200                                             
     1     13.6058260     23  2.200                                             
     2     -3.0408010     23  2.200                                             
     2     -0.1283038     23  2.200                                             
     3     -1.3605826     23  2.400                                             
  local pseudopotential read in
  partial core-charges read in
  partial kinetic energy density read in
  atomic valenz-charges read in
  non local Contribution for L=           0  read in
    real space projection operators read in
  non local Contribution for L=           0  read in
    real space projection operators read in
  non local Contribution for L=           1  read in
    real space projection operators read in
  non local Contribution for L=           1  read in
    real space projection operators read in
  non local Contribution for L=           2  read in
    real space projection operators read in
  non local Contribution for L=           2  read in
    real space projection operators read in
    PAW grid and wavefunctions read in
 
   number of l-projection  operators is LMAX  =           6
   number of lm-projection operators is LMMAX =          18
 
 POTCAR:    PAW_PBE Hf 20Jan2003                  
   VRHFIN =Hf: 6s5d                                                             
   LEXCH  = PE                                                                  
   EATOM  =    75.9011 eV,    5.5786 Ry                                         
                                                                                
   TITEL  = PAW_PBE Hf 20Jan2003                                                
   LULTRA =        F    use ultrasoft PP ?                                      
   IUNSCR =        1    unscreen: 0-lin 1-nonlin 2-no                           
   RPACOR =    2.500    partial core radius                                     
   POMASS =  178.490; ZVAL   =    4.000    mass and valenz                      
   RCORE  =    3.000    outmost cutoff radius                                   
   RWIGS  =    3.050; RWIGS  =    1.614    wigner-seitz radius (au A)           
   ENMAX  =  220.334; ENMIN  =  165.250 eV                                      
   RCLOC  =    2.212    cutoff for local pot                                    
   LCOR   =        T    correct aug charges                                     
   LPAW   =        T    paw PP                                                  
   EAUG   =  335.116                                                            
   DEXC   =    0.000                                                            
   RMAX   =    3.077    core radius for proj-oper                               
   RAUG   =    1.300    factor for augmentation sphere                          
   RDEP   =    3.047    radius for radial grids                                 
   RDEPT  =    2.344    core radius for aug-charge                              
                                                                                
   Atomic configuration                                                         
   16 entries                                                                   
     n  l   j            E        occ.                                          
     1  0  0.50    -65259.4397   2.0000                                         
     2  0  0.50    -11157.9882   2.0000                                         
     2  1  1.50     -9795.2113   6.0000                                         
     3  0  0.50     -2541.4058   2.0000                                         
     3  1  1.50     -2134.4770   6.0000                                         
     3  2  2.50     -1653.5418  10.0000                                         
     4  0  0.50      -510.9575   2.0000                                         
     4  1  1.50      -377.5023   6.0000                                         
     4  2  2.50      -205.2085  10.0000                                         
     4  3  3.50       -15.4905  14.0000                                         
     5  0  0.50       -65.6020   2.0000                                         
     5  1  1.50       -34.2798   6.0000                                         
     5  2  2.50        -1.9877   3.0000                                         
     6  0  0.50        -4.7357   1.0000                                         
     6  1  1.50        -1.3606   0.0000                                         
     5  3  2.50        -1.3606   0.0000                                         
   Description                                                                  
     l       E           TYP  RCUT    TYP  RCUT                                 
     2     -1.9876627     23  2.500                                             
     2      0.0744703     23  2.500                                             
     0     -4.7356889     23  2.600                                             
     0      3.2364747     23  2.600                                             
     1     -1.3605826     23  3.000                                             
     1     27.2116520     23  3.000                                             
  local pseudopotential read in
  partial core-charges read in
  partial kinetic energy density read in
  atomic valenz-charges read in
  non local Contribution for L=           2  read in
    real space projection operators read in
  non local Contribution for L=           2  read in
    real space projection operators read in
  non local Contribution for L=           0  read in
    real space projection operators read in
  non local Contribution for L=           0  read in
    real space projection operators read in
  non local Contribution for L=           1  read in
    real space projection operators read in
  non local Contribution for L=           1  read in
    real space projection operators read in
    PAW grid and wavefunctions read in
 
   number of l-projection  operators is LMAX  =           6
   number of lm-projection operators is LMMAX =          18
 
 POTCAR:    PAW_PBE Zr_sv 04Jan2005               
   VRHFIN =Zr: 4s4p5s4d                                                         
   LEXCH  = PE                                                                  
   EATOM  =  1284.2219 eV,   94.3876 Ry                                         
                                                                                
   TITEL  = PAW_PBE Zr_sv 04Jan2005                                             
   LULTRA =        F    use ultrasoft PP ?                                      
   IUNSCR =        1    unscreen: 0-lin 1-nonlin 2-no                           
   RPACOR =    2.200    partial core radius                                     
   POMASS =   91.224; ZVAL   =   12.000    mass and valenz                      
   RCORE  =    2.500    outmost cutoff radius                                   
   RWIGS  =    3.070; RWIGS  =    1.625    wigner-seitz radius (au A)           
   ENMAX  =  229.898; ENMIN  =  172.424 eV                                      
   ICORE  =        3    local potential                                         
   LCOR   =        T    correct aug charges                                     
   LPAW   =        T    paw PP                                                  
   EAUG   =  461.257                                                            
   DEXC   =    0.000                                                            
   RMAX   =    2.561    core radius for proj-oper                               
   RAUG   =    1.300    factor for augmentation sphere                          
   RDEP   =    2.597    radius for radial grids                                 
   RDEPT  =    2.007    core radius for aug-charge                              
                                                                                
   Atomic configuration                                                         
   11 entries                                                                   
     n  l   j            E        occ.                                          
     1  0  0.50    -17820.0161   2.0000                                         
     2  0  0.50     -2467.0882   2.0000                                         
     2  1  1.50     -2199.6095   6.0000                                         
     3  0  0.50      -402.4863   2.0000                                         
     3  1  1.50      -315.3675   6.0000                                         
     3  2  2.50      -172.4472  10.0000                                         
     4  0  0.50       -52.4146   2.0000                                         
     5  0  0.50        -3.8421   1.0000                                         
     4  1  1.50       -30.5054   6.0000                                         
     4  2  2.50        -2.3341   3.0000                                         
     4  3  2.50        -1.3606   0.0000                                         
   Description                                                                  
     l       E           TYP  RCUT    TYP  RCUT                                 
     0    -52.4145962     23  2.200                                             
     0     -3.8421270     23  2.500                                             
     1    -30.5053914     23  2.200                                             
     1     20.4087390     23  2.200                                             
     2     -2.3340816     23  2.500                                             
     2     -0.6120942     23  2.500                                             
     3     -4.0817478     23  2.500                                             
  local pseudopotential read in
  partial core-charges read in
  partial kinetic energy density read in
  atomic valenz-charges read in
  non local Contribution for L=           0  read in
    real space projection operators read in
  non local Contribution for L=           0  read in
    real space projection operators read in
  non local Contribution for L=           1  read in
    real space projection operators read in
  non local Contribution for L=           1  read in
    real space projection operators read in
  non local Contribution for L=           2  read in
    real space projection operators read in
  non local Contribution for L=           2  read in
    real space projection operators read in
    PAW grid and wavefunctions read in
 
   number of l-projection  operators is LMAX  =           6
   number of lm-projection operators is LMMAX =          18
 
 POTCAR:    PAW_PBE Ta 17Jan2003                  
   VRHFIN =Ta:  6s5d                                                            
   LEXCH  = PE                                                                  
   EATOM  =   130.6506 eV,    9.6025 Ry                                         
                                                                                
   TITEL  = PAW_PBE Ta 17Jan2003                                                
   LULTRA =        F    use ultrasoft PP ?                                      
   IUNSCR =        1    unscreen: 0-lin 1-nonlin 2-no                           
   RPACOR =    2.330    partial core radius                                     
   POMASS =  180.948; ZVAL   =    5.000    mass and valenz                      
   RCORE  =    2.900    outmost cutoff radius                                   
   RWIGS  =    2.840; RWIGS  =    1.503    wigner-seitz radius (au A)           
   ENMAX  =  223.667; ENMIN  =  167.750 eV                                      
   RCLOC  =    2.205    cutoff for local pot                                    
   LCOR   =        T    correct aug charges                                     
   LPAW   =        T    paw PP                                                  
   EAUG   =  332.075                                                            
   DEXC   =    0.000                                                            
   RMAX   =    2.970    core radius for proj-oper                               
   RAUG   =    1.300    factor for augmentation sphere                          
   RDEP   =    3.060    radius for radial grids                                 
   RDEPT  =    2.354    core radius for aug-charge                              
                                                                                
   Atomic configuration                                                         
   16 entries                                                                   
     n  l   j            E        occ.                                          
     1  0  0.50    -67341.2807   2.0000                                         
     2  0  0.50    -11566.9376   2.0000                                         
     2  1  1.50    -10134.1182   6.0000                                         
     3  0  0.50     -2648.5620   2.0000                                         
     3  1  1.50     -2222.6012   6.0000                                         
     3  2  2.50     -1726.3120  10.0000                                         
     4  0  0.50      -538.6961   2.0000                                         
     4  1  1.50      -399.0129   6.0000                                         
     4  2  2.50      -220.3959  10.0000                                         
     4  3  3.50       -23.0374  14.0000                                         
     5  0  0.50       -71.2901   2.0000                                         
     5  1  1.50       -37.8225   6.0000                                         
     5  2  2.50        -2.6455   4.0000                                         
     6  0  0.50        -4.9623   1.0000                                         
     6  1  1.50        -1.3606   0.0000                                         
     5  3  2.50        -1.3606   0.0000                                         
   Description                                                                  
     l       E           TYP  RCUT    TYP  RCUT                                 
     2     -2.6455043     23  2.500                                             
     2     -0.6258895     23  2.500                                             
     0     -4.9622780     23  2.500                                             
     0      4.7531321     23  2.500                                             
     1     -1.3605826     23  2.900                                             
     1     27.2116520     23  2.900                                             
  local pseudopotential read in
  partial core-charges read in
  partial kinetic energy density read in
  atomic valenz-charges read in
  non local Contribution for L=           2  read in
    real space projection operators read in
  non local Contribution for L=           2  read in
    real space projection operators read in
  non local Contribution for L=           0  read in
    real space projection operators read in
  non local Contribution for L=           0  read in
    real space projection operators read in
  non local Contribution for L=           1  read in
    real space projection operators read in
  non local Contribution for L=           1  read in
    real space projection operators read in
    PAW grid and wavefunctions read in
 
   number of l-projection  operators is LMAX  =           6
   number of lm-projection operators is LMMAX =          18
 
 Optimization of the real space projectors (new method)

 maximal supplied QI-value         = 15.68
 optimisation between [QCUT,QGAM] = [  8.78, 17.72] = [ 21.60, 87.97] Ry 
 Optimized for a Real-space Cutoff    1.96 Angstroem

   l    n(q)    QCUT    max X(q) W(low)/X(q) W(high)/X(q)  e(spline) 
   0     10     8.783    10.201    0.29E-04    0.25E-05    0.69E-07
   0     10     8.783     8.174    0.45E-04    0.57E-05    0.14E-06
   1     10     8.783     3.488    0.76E-05    0.24E-04    0.95E-07
   1     10     8.783     4.917    0.78E-04    0.14E-03    0.46E-06
   2      9     8.783   153.744    0.22E-03    0.34E-04    0.15E-05
   2      9     8.783   126.342    0.22E-03    0.35E-04    0.15E-05
 Optimization of the real space projectors (new method)

 maximal supplied QI-value         = 12.47
 optimisation between [QCUT,QGAM] = [  8.86, 17.71] = [ 21.96, 87.83] Ry 
 Optimized for a Real-space Cutoff    1.90 Angstroem

   l    n(q)    QCUT    max X(q) W(low)/X(q) W(high)/X(q)  e(spline) 
   2      9     8.855    48.111    0.22E-03    0.80E-04    0.10E-05
   2      9     8.855    40.545    0.21E-03    0.76E-04    0.95E-06
   0     10     8.855   121.658    0.27E-04    0.12E-04    0.11E-06
   0     10     8.855    71.177    0.22E-04    0.11E-04    0.99E-07
   1     10     8.855    14.183    0.65E-04    0.10E-03    0.98E-07
   1     10     8.855     8.257    0.43E-04    0.73E-04    0.72E-07
 Optimization of the real space projectors (new method)

 maximal supplied QI-value         = 15.12
 optimisation between [QCUT,QGAM] = [  8.77, 17.69] = [ 21.53, 87.61] Ry 
 Optimized for a Real-space Cutoff    1.74 Angstroem

   l    n(q)    QCUT    max X(q) W(low)/X(q) W(high)/X(q)  e(spline) 
   0      9     8.768    12.107    0.28E-04    0.53E-06    0.29E-07
   0      9     8.768     9.948    0.36E-04    0.50E-05    0.64E-07
   1      9     8.768     3.563    0.14E-04    0.16E-04    0.88E-07
   1      9     8.768     4.524    0.21E-03    0.33E-03    0.19E-06
   2      8     8.768    87.261    0.19E-03    0.25E-03    0.24E-06
   2      8     8.768    70.950    0.19E-03    0.24E-03    0.24E-06
 Optimization of the real space projectors (new method)

 maximal supplied QI-value         = 12.85
 optimisation between [QCUT,QGAM] = [  8.87, 17.73] = [ 22.01, 88.06] Ry 
 Optimized for a Real-space Cutoff    1.90 Angstroem

   l    n(q)    QCUT    max X(q) W(low)/X(q) W(high)/X(q)  e(spline) 
   2      9     8.867    62.315    0.23E-03    0.62E-04    0.11E-05
   2      9     8.867    52.185    0.23E-03    0.62E-04    0.11E-05
   0     10     8.867   103.837    0.15E-04    0.23E-04    0.98E-07
   0     10     8.867    59.728    0.12E-04    0.21E-04    0.89E-07
   1     10     8.867    13.958    0.50E-04    0.22E-04    0.14E-06
   1     10     8.867     8.441    0.36E-04    0.19E-04    0.98E-07
  PAW_PBE Nb_sv 25May2007               :
 energy of atom  1       EATOM=-1555.1913
 kinetic energy error for atom=    0.0655 (will be added to EATOM!!)
  PAW_PBE Hf 20Jan2003                  :
 energy of atom  2       EATOM=  -75.9011
 kinetic energy error for atom=    0.0071 (will be added to EATOM!!)
  PAW_PBE Zr_sv 04Jan2005               :
 energy of atom  3       EATOM=-1284.2219
 kinetic energy error for atom=    0.0483 (will be added to EATOM!!)
  PAW_PBE Ta 17Jan2003                  :
 energy of atom  4       EATOM= -130.6506
 kinetic energy error for atom=    0.0121 (will be added to EATOM!!)
 
 
 POSCAR: generated by pypospack                  
  positions in direct lattice
  No initial velocities read in
 exchange correlation table for  LEXCH =        8
   RHO(1)=    0.500       N(1)  =     2000
   RHO(2)=  100.500       N(2)  =     4000
 


--------------------------------------------------------------------------------------------------------


 ion  position               nearest neighbor table
   1  0.992  0.981  0.323-   3 2.74  17 2.90   8 2.91  15 2.92  20 2.99  22 3.03  11 3.03  25 3.10
                            35 3.22  21 3.26
   2  0.497  0.987  0.344-   8 2.74   3 2.85  17 2.91  15 2.97  11 3.03  25 3.05  20 3.06  22 3.07
                            16 3.23  33 3.26
   3  0.742  0.832  0.182-   1 2.74  33 2.77  35 2.84  31 2.84   2 2.85  14 2.97  21 3.04  24 3.11
                            17 3.31  15 3.37
   4  0.514  0.346  0.345-  30 2.78  29 2.80  34 2.82  25 2.87  12 3.01  22 3.03  11 3.06  20 3.07
                            27 3.25  33 3.31
   5  0.267  0.504  0.840-   9 2.81  36 2.89   7 2.92  13 2.95  27 2.96  18 2.98  31 3.08  14 3.10
                            19 3.21  26 3.30  12 3.35
   6  0.976  0.354  0.322-  30 2.72  34 2.84  29 2.91  25 2.92  12 2.98  20 3.00  22 3.03  11 3.09
                            35 3.21  13 3.31
   7  0.018  0.342  0.680-  10 2.79  23 2.89  26 2.90   5 2.92  29 2.97  11 3.01  34 3.15  22 3.15
                            27 3.26  13 3.26  18 3.32
   8  0.251  0.833  0.488-   2 2.74  32 2.89   1 2.91  18 2.92  16 2.93  33 2.94  36 2.98  35 3.01
                            15 3.26  11 3.44  29 3.47
   9  0.483  0.330  0.991-   5 2.81  10 2.91  12 2.96  26 2.98  20 3.01  25 3.03  23 3.08  30 3.09
                            24 3.29  13 3.32  27 3.36
  10  0.234  0.171  0.830-   7 2.79  32 2.83  13 2.89  27 2.91   9 2.91  16 2.92  21 2.99  24 3.05
                            23 3.30
  11  0.225  0.169  0.487-  32 2.92  16 2.97   7 3.01   2 3.03   1 3.03  27 3.04   4 3.06   6 3.09
                            20 3.09  22 3.20  29 3.34   8 3.44  22 3.79
  12  0.266  0.506  0.168-  31 2.96   9 2.96   6 2.98  33 2.99   4 3.01  35 3.05  13 3.05  14 3.08
                            29 3.25  15 3.25  30 3.26   5 3.35  20 3.42  30 3.72
  13  0.007  0.338  0.999-  10 2.89   5 2.95  23 3.05  12 3.05  26 3.05  20 3.07  30 3.08  25 3.10
                             7 3.26   6 3.31   9 3.32  14 3.33  21 3.47
  14  0.976  0.663  0.006-  30 2.93   3 2.97  26 3.03  31 3.05  19 3.06  12 3.08  28 3.08  15 3.09
                             5 3.10  35 3.31  13 3.33  21 3.46  18 3.52
  15  0.261  0.823  0.169-   1 2.92  33 2.95   2 2.97  35 2.99  31 2.99  24 3.06  14 3.09  21 3.10
                            12 3.25   8 3.26  19 3.29   3 3.37  20 3.58
  16  0.468  0.006  0.659-  10 2.92   8 2.93  11 2.97  32 3.02  19 3.03  22 3.08  28 3.08  17 3.09
                            23 3.15   2 3.23  27 3.31  24 3.49  36 3.56
  17  0.755  0.833  0.505-   1 2.90   2 2.91  35 2.93  33 2.94  36 3.00  18 3.05  32 3.08  16 3.09
                            28 3.18   3 3.31  34 3.34  22 3.38
  18  0.028  0.665  0.663-   8 2.92  29 2.94   5 2.98  19 3.00  17 3.05  28 3.05  34 3.06  26 3.11
                            36 3.20   7 3.32  32 3.34  35 3.42  14 3.52
  19  0.274  0.817  0.847-  36 2.94  31 2.96  24 2.99  18 3.00  16 3.03  32 3.04  14 3.06  21 3.13
                             5 3.21  15 3.29  28 3.30  28 3.72
  20  0.249  0.172  0.184-   1 2.99   6 3.00   9 3.01   2 3.06  24 3.06   4 3.07  13 3.07  11 3.09
                            21 3.12  25 3.37  12 3.42  15 3.58  25 3.61
  21  0.996  1.000  0.005-  10 2.99  23 3.04   3 3.04  15 3.10  25 3.11  20 3.12  28 3.13  19 3.13
                             1 3.26  32 3.41  14 3.46  24 3.46  13 3.47  24 3.53
  22  0.767  0.163  0.500-   1 3.03   4 3.03   6 3.03   2 3.07  27 3.08  16 3.08  32 3.13   7 3.15
                            11 3.20  23 3.29  25 3.32  17 3.38  34 3.53  11 3.79
  23  0.762  0.169  0.822-   7 2.89  27 3.03  24 3.03  21 3.04  32 3.04  13 3.05   9 3.08  16 3.15
                            22 3.29  10 3.30  26 3.36  28 3.44  25 3.63
  24  0.501  0.010  1.000-  25 2.98  19 2.99  23 3.03  10 3.05  15 3.06  20 3.06  28 3.09   3 3.11
                             9 3.29  21 3.46  16 3.49  21 3.53  31 3.54
  25  0.732  0.177  0.176-   4 2.87   6 2.92  24 2.98   9 3.03   2 3.05   1 3.10  13 3.10  21 3.11
                            30 3.29  22 3.32  20 3.37  20 3.61  23 3.63
  26  0.740  0.496  0.825-   7 2.90  31 2.92   9 2.98  27 3.00  36 3.01  14 3.03  13 3.05  18 3.11
                             5 3.30  23 3.36  34 3.36  28 3.46  30 3.56
  27  0.484  0.328  0.663-  10 2.91   5 2.96  26 3.00  29 3.00  23 3.03  11 3.04  22 3.08  34 3.10
                             4 3.25   7 3.26  16 3.31   9 3.36  36 3.39
  28  0.744  0.834  0.817-  32 2.97  31 2.99  18 3.05  36 3.05  16 3.08  14 3.08  24 3.09  21 3.13
                            17 3.18  19 3.30  23 3.44  26 3.46  19 3.72
  29  0.245  0.494  0.486-   4 2.80   6 2.91  18 2.94  36 2.95   7 2.97  27 3.00  33 3.01  35 3.01
                            12 3.25  11 3.34  34 3.45   8 3.47  34 3.54
  30  0.733  0.498  0.174-   6 2.72  31 2.75   4 2.78  33 2.84  14 2.93  35 2.95  13 3.08   9 3.09
                            12 3.26  25 3.29  34 3.31  26 3.56  12 3.72
  31  0.539  0.665  0.011-  30 2.75   3 2.84  26 2.92  19 2.96  12 2.96  15 2.99  28 2.99  14 3.05
                             5 3.08  33 3.32  24 3.54
  32  0.036  0.991  0.672-  10 2.83   8 2.89  11 2.92  28 2.97  16 3.02  19 3.04  23 3.04  17 3.08
                            22 3.13  18 3.34  21 3.41
  33  0.518  0.669  0.336-   3 2.77  30 2.84  34 2.85  17 2.94   8 2.94  15 2.95  12 2.99  29 3.01
                            35 3.26   2 3.26  36 3.26   4 3.31  31 3.32
  34  0.751  0.507  0.497-   4 2.82   6 2.84  35 2.85  33 2.85  36 2.90  18 3.06  27 3.10   7 3.15
                            30 3.31  17 3.34  26 3.36  29 3.45  22 3.53  29 3.54
  35  0.984  0.667  0.330-   3 2.84  34 2.85  17 2.93  30 2.95  15 2.99   8 3.01  29 3.01  12 3.05
                             6 3.21   1 3.22  33 3.26  14 3.31  18 3.42
  36  0.486  0.659  0.655-   5 2.89  34 2.90  19 2.94  29 2.95   8 2.98  17 3.00  26 3.01  28 3.05
                            18 3.20  33 3.26  27 3.39  16 3.56
 
  LATTYP: Found a triclinic cell.
 ALAT       =    23.9718079191
 B/A-ratio  =     0.9997538224
 C/A-ratio  =     0.9550461963
 COS(alpha) =     0.0000502349
 COS(beta)  =     0.5737357573
 COS(gamma) =     0.8171802802
  
  Lattice vectors:
  
 A1 = (  -7.1228228139,  10.2249580250, -20.4783593937)
 A2 = (  -7.0598803183,  20.4849289980, -10.2416040155)
 A3 = (  -0.1312873309, -10.2728408127, -20.4595983598)


Analysis of symmetry for initial positions (statically):
=====================================================================
 Subroutine PRICEL returns:
 Original cell was already a primitive cell.
 

 Routine SETGRP: Setting up the symmetry group for a 
 triclinic supercell.


 Subroutine GETGRP returns: Found  1 space group operations
 (whereof  1 operations were pure point group operations)
 out of a pool of  2 trial point group operations.


The static configuration has the point symmetry C_1 .


Analysis of symmetry for dynamics (positions and initial velocities):
=====================================================================
 Subroutine PRICEL returns:
 Original cell was already a primitive cell.
 

 Routine SETGRP: Setting up the symmetry group for a 
 triclinic supercell.


 Subroutine GETGRP returns: Found  1 space group operations
 (whereof  1 operations were pure point group operations)
 out of a pool of  2 trial point group operations.


The dynamic configuration has the point symmetry C_1 .


 Subroutine INISYM returns: Found  1 space group operations
 (whereof  1 operations are pure point group operations),
 and found     1 'primitive' translations

 
 
 KPOINTS: k-points                                

Automatic generation of k-mesh.
Space group operators:
 irot       det(A)        alpha          n_x          n_y          n_z        tau_x        tau_y        tau_z
    1     1.000000     0.000001     1.000000     0.000000     0.000000     0.000000     0.000000     0.000000
 
 Subroutine IBZKPT returns following result:
 ===========================================
 
 Found     14 irreducible k-points:
 
 Following reciprocal coordinates:
            Coordinates               Weight
  0.000000  0.000000  0.000000      1.000000
  0.333333  0.000000  0.000000      2.000000
 -0.000000  0.333333 -0.000000      2.000000
  0.333333  0.333333 -0.000000      2.000000
 -0.333333  0.333333 -0.000000      2.000000
  0.000000 -0.000000  0.333333      2.000000
  0.333333 -0.000000  0.333333      2.000000
 -0.333333 -0.000000  0.333333      2.000000
 -0.000000  0.333333  0.333333      2.000000
  0.333333  0.333333  0.333333      2.000000
 -0.333333  0.333333  0.333333      2.000000
  0.000000 -0.333333  0.333333      2.000000
  0.333333 -0.333333  0.333333      2.000000
 -0.333333 -0.333333  0.333333      2.000000
 
 Following cartesian coordinates:
            Coordinates               Weight
  0.000000  0.000000  0.000000      1.000000
  0.238205  0.000128 -0.001593      2.000000
  0.000085  0.162268 -0.000205      2.000000
  0.238290  0.162395 -0.001798      2.000000
 -0.238120  0.162140  0.001388      2.000000
 -0.001086 -0.000221  0.162660      2.000000
  0.237119 -0.000094  0.161067      2.000000
 -0.239291 -0.000349  0.164253      2.000000
 -0.001001  0.162046  0.162455      2.000000
  0.237204  0.162174  0.160862      2.000000
 -0.239206  0.161919  0.164048      2.000000
 -0.001171 -0.162489  0.162865      2.000000
  0.237034 -0.162361  0.161272      2.000000
 -0.239376 -0.162617  0.164457      2.000000
 


--------------------------------------------------------------------------------------------------------




 Dimension of arrays:
   k-points           NKPTS =     14   k-points in BZ     NKDIM =     14   number of bands    NBANDS=    192
   number of dos      NEDOS =    301   number of ions     NIONS =     36
   non local maximal  LDIM  =      6   non local SUM 2l+1 LMDIM =     18
   total plane-waves  NPLWV = 144000
   max r-space proj   IRMAX =   6266   max aug-charges    IRDMAX=  13603
   dimension x,y,z NGX =    40 NGY =   60 NGZ =   60
   dimension x,y,z NGXF=    80 NGYF=  120 NGZF=  120
   support grid    NGXF=    80 NGYF=  120 NGZF=  120
   ions per type =              10   9  10   7
 NGX,Y,Z   is equivalent  to a cutoff of   9.53,  9.73,  9.76 a.u.
 NGXF,Y,Z  is equivalent  to a cutoff of  19.05, 19.47, 19.51 a.u.


 I would recommend the setting:
   dimension x,y,z NGX =    39 NGY =   58 NGZ =   58
 SYSTEM =  automatically generated by mexm         
 POSCAR =  generated by pypospack                  

 Startparameter for this run:
   NWRITE =      2    write-flag & timer
   PREC   = accura    normal or accurate (medium, high low for compatibility)
   ISTART =      0    job   : 0-new  1-cont  2-samecut
   ICHARG =      2    charge: 1-file 2-atom 10-const
   ISPIN  =      1    spin polarized calculation?
   LNONCOLLINEAR =      F non collinear calculations
   LSORBIT =      F    spin-orbit coupling
   INIWAV =      1    electr: 0-lowe 1-rand  2-diag
   LASPH  =      F    aspherical Exc in radial PAW
   METAGGA=      F    non-selfconsistent MetaGGA calc.

 Electronic Relaxation 1
   ENCUT  =  300.0 eV  22.05 Ry    4.70 a.u.   9.86 14.47 14.44*2*pi/ulx,y,z
   ENINI  =  300.0     initial cutoff
   ENAUG  =  461.3 eV  augmentation charge cutoff
   NELM   =     70;   NELMIN=  2; NELMDL= -5     # of ELM steps 
   EDIFF  = 0.1E-04   stopping-criterion for ELM
   LREAL  =      T    real-space projection
   NLSPLINE    = F    spline interpolate recip. space projectors
   LCOMPAT=      F    compatible to vasp.4.4
   GGA_COMPAT  = T    GGA compatible to vasp.4.4-vasp.4.6
   LMAXPAW     = -100 max onsite density
   LMAXMIX     =    2 max onsite mixed and CHGCAR
   VOSKOWN=      0    Vosko Wilk Nusair interpolation
   ROPT   =   -0.00025  -0.00025  -0.00025  -0.00025
 Ionic relaxation
   EDIFFG = -.1E-01   stopping-criterion for IOM
   NSW    =    300    number of steps for IOM
   NBLOCK =      1;   KBLOCK =    300    inner block; outer block 
   IBRION =      2    ionic relax: 0-MD 1-quasi-New 2-CG
   NFREE  =      1    steps in history (QN), initial steepest desc. (CG)
   ISIF   =      3    stress and relaxation
   IWAVPR =     11    prediction:  0-non 1-charg 2-wave 3-comb
   ISYM   =      1    0-nonsym 1-usesym 2-fastsym
   LCORR  =      T    Harris-Foulkes like correction to forces

   POTIM  = 0.1500    time-step for ionic-motion
   TEIN   =    0.0    initial temperature
   TEBEG  =    0.0;   TEEND  =   0.0 temperature during run
   SMASS  =  -3.00    Nose mass-parameter (am)
   estimated Nose-frequenzy (Omega)   =  0.10E-29 period in steps =****** mass=  -0.111E-26a.u.
   SCALEE = 1.0000    scale energy and forces
   NPACO  =    256;   APACO  = 16.0  distance and # of slots for P.C.
   PSTRESS=    0.0 pullay stress

  Mass of Ions in am
   POMASS =  92.91178.49 91.22180.95
  Ionic Valenz
   ZVAL   =  13.00  4.00 12.00  5.00
  Atomic Wigner-Seitz radii
   RWIGS  =  -1.00 -1.00 -1.00 -1.00
  virtual crystal weights 
   VCA    =   1.00  1.00  1.00  1.00
   NELECT =     321.0000    total number of electrons
   NUPDOWN=      -1.0000    fix difference up-down

 DOS related values:
   EMIN   =  10.00;   EMAX   =-10.00  energy-range for DOS
   EFERMI =   0.00
   ISMEAR =     1;   SIGMA  =   0.15  broadening in eV -4-tet -1-fermi 0-gaus

 Electronic relaxation 2 (details)
   IALGO  =     68    algorithm
   LDIAG  =      T    sub-space diagonalisation (order eigenvalues)
   LSUBROT=      F    optimize rotation matrix (better conditioning)
   TURBO    =      0    0=normal 1=particle mesh
   IRESTART =      0    0=no restart 2=restart with 2 vectors
   NREBOOT  =      0    no. of reboots
   NMIN     =      0    reboot dimension
   EREF     =   0.00    reference energy to select bands
   IMIX   =      4    mixing-type and parameters
     AMIX     =   0.40;   BMIX     =  1.00
     AMIX_MAG =   1.60;   BMIX_MAG =  1.00
     AMIN     =   0.10
     WC   =   100.;   INIMIX=   1;  MIXPRE=   1;  MAXMIX= -45

 Intra band minimization:
   WEIMIN = 0.0010     energy-eigenvalue tresh-hold
   EBREAK =  0.13E-07  absolut break condition
   DEPER  =   0.30     relativ break condition  

   TIME   =   0.40     timestep for ELM

  volume/ion in A,a.u.               =      20.31       137.07
  Fermi-wavevector in a.u.,A,eV,Ry     =   1.244205  2.351207 21.062456  1.548047
  Thomas-Fermi vector in A             =   2.378482
 
 Write flags
   LWAVE  =      F    write WAVECAR
   LCHARG =      F    write CHGCAR
   LVTOT  =      F    write LOCPOT, total local potential
   LVHAR  =      F    write LOCPOT, Hartree potential only
   LELF   =      F    write electronic localiz. function (ELF)
   LORBIT =      0    0 simple, 1 ext, 2 COOP (PROOUT)


 Dipole corrections
   LMONO  =      F    monopole corrections only (constant potential shift)
   LDIPOL =      F    correct potential (dipole corrections)
   IDIPOL =      0    1-x, 2-y, 3-z, 4-all directions 
   EPSILON=  1.0000000 bulk dielectric constant

 Exchange correlation treatment:
   GGA     =    --    GGA type
   LEXCH   =     8    internal setting for exchange type
   VOSKOWN=      0    Vosko Wilk Nusair interpolation
   LHFCALC =     F    Hartree Fock is set to
   LHFONE  =     F    Hartree Fock one center treatment
   AEXX    =    0.0000 exact exchange contribution

 Linear response parameters
   LEPSILON=     F    determine dielectric tensor
   LRPA    =     F    only Hartree local field effects (RPA)
   LNABLA  =     F    use nabla operator in PAW spheres
   LVEL    =     F    velocity operator in full k-point grid
   LINTERFAST=   F  fast interpolation
   KINTER  =     0    interpolate to denser k-point grid
   CSHIFT  =0.1000    complex shift for real part using Kramers Kronig
   OMEGAMAX=  -1.0    maximum frequency
   DEG_THRESHOLD= 0.2000000E-02 threshold for treating states as degnerate
   RTIME   =    0.100 relaxation time in fs

 Orbital magnetization related:
   ORBITALMAG=     F  switch on orbital magnetization
   LCHIMAG   =     F  perturbation theory with respect to B field
   DQ        =  0.001000  dq finite difference perturbation B field



--------------------------------------------------------------------------------------------------------


 conjugate gradient relaxation of ions
 charge density and potential will be updated during run
 non-spin polarized calculation
 RMM-DIIS sequential band-by-band and
  variant of blocked Davidson during initial phase
 perform sub-space diagonalisation
    before iterative eigenvector-optimisation
 modified Broyden-mixing scheme, WC =      100.0
 initial mixing is a Kerker type mixing with AMIX =  0.4000 and BMIX =      1.0000
 Hartree-type preconditioning will be used
 using additional bands           31
 real space projection scheme for non local part
 use partial core corrections
 calculate Harris-corrections to forces 
   (improved forces if not selfconsistent)
 use gradient corrections 
 use of overlap-Matrix (Vanderbilt PP)
 Methfessel and Paxton  Order N= 1 SIGMA  =   0.15


--------------------------------------------------------------------------------------------------------


  energy-cutoff  :      300.00
  volume of cell :      731.23
      direct lattice vectors                 reciprocal lattice vectors
     6.980730804 -0.003596572  0.046585827     0.143257909  0.000076827 -0.000957848
    -0.005402340 10.247101133  0.013912397     0.000051101  0.097588769 -0.000123199
     0.068344835  0.012869840 10.222842982    -0.000652900 -0.000133160  0.097824679

  length of vectors
     6.980887173 10.247112002 10.223079540     0.143261132  0.097588861  0.097826949


 
 k-points in units of 2pi/SCALE and weight: k-points                                
   0.00000000  0.00000000  0.00000000       0.037
   0.23820495  0.00012775 -0.00159268       0.074
   0.00008497  0.16226768 -0.00020485       0.074
   0.23828992  0.16239542 -0.00179753       0.074
  -0.23811998  0.16213993  0.00138783       0.074
  -0.00108562 -0.00022141  0.16265994       0.074
   0.23711933 -0.00009367  0.16106726       0.074
  -0.23929058 -0.00034916  0.16425262       0.074
  -0.00100065  0.16204626  0.16245509       0.074
   0.23720430  0.16217401  0.16086241       0.074
  -0.23920561  0.16191852  0.16404777       0.074
  -0.00117059 -0.16248909  0.16286479       0.074
   0.23703436 -0.16236135  0.16127211       0.074
  -0.23937555 -0.16261684  0.16445747       0.074
 
 k-points in reciprocal lattice and weights: k-points                                
   0.00000000  0.00000000  0.00000000       0.037
   0.33333333  0.00000000  0.00000000       0.074
  -0.00000000  0.33333333 -0.00000000       0.074
   0.33333333  0.33333333 -0.00000000       0.074
  -0.33333333  0.33333333 -0.00000000       0.074
   0.00000000 -0.00000000  0.33333333       0.074
   0.33333333 -0.00000000  0.33333333       0.074
  -0.33333333 -0.00000000  0.33333333       0.074
  -0.00000000  0.33333333  0.33333333       0.074
   0.33333333  0.33333333  0.33333333       0.074
  -0.33333333  0.33333333  0.33333333       0.074
   0.00000000 -0.33333333  0.33333333       0.074
   0.33333333 -0.33333333  0.33333333       0.074
  -0.33333333 -0.33333333  0.33333333       0.074
 
 position of ions in fractional coordinates (direct lattice) 
   0.99243900  0.98132700  0.32290800
   0.49735700  0.98658900  0.34406600
   0.74243300  0.83220700  0.18192800
   0.51418100  0.34610100  0.34515400
   0.26694200  0.50353800  0.83993300
   0.97609200  0.35445200  0.32181700
   0.01780700  0.34198200  0.67971200
   0.25052500  0.83318200  0.48771100
   0.48325200  0.33039000  0.99134700
   0.23431500  0.17139200  0.83028000
   0.22472600  0.16867100  0.48679300
   0.26581300  0.50598700  0.16795000
   0.00725200  0.33816900  0.99855300
   0.97609300  0.66279000  0.00627800
   0.26116800  0.82330300  0.16912100
   0.46768700  0.00563700  0.65918000
   0.75484300  0.83311400  0.50524500
   0.02791400  0.66530000  0.66341100
   0.27380200  0.81695200  0.84710600
   0.24872100  0.17233900  0.18438200
   0.99586600  0.99999400  0.00457600
   0.76657500  0.16271800  0.49967000
   0.76244600  0.16903800  0.82180700
   0.50086900  0.00977400  0.99964100
   0.73208800  0.17651200  0.17642800
   0.73972900  0.49619900  0.82525800
   0.48369600  0.32806200  0.66265500
   0.74437200  0.83391200  0.81675600
   0.24525500  0.49431600  0.48557000
   0.73286600  0.49783200  0.17366300
   0.53864000  0.66514300  0.01145000
   0.03564600  0.99117900  0.67163400
   0.51769700  0.66891800  0.33639400
   0.75134000  0.50742200  0.49679200
   0.98402400  0.66704800  0.33018200
   0.48552800  0.65852100  0.65464600
 
 position of ions in cartesian coordinates  (Angst):
   6.94471713 10.05634341  3.36092398
   3.49010058 10.11231655  3.55422830
   5.19066289  8.52738046  1.90598623
   3.61107888  3.54912474  3.55722379
   1.91813504  5.16965454  8.60594431
   6.83391515  3.63273664  3.34028799
   0.16891318  3.51300788  6.95417639
   1.77767898  8.54307595  5.00905545
   3.43942069  3.39656017 10.16149393
   1.69150937  1.76611400  8.50112230
   1.60111028  1.73384550  4.98922407
   1.86431400  5.18610544  1.73634909
   0.11704330  3.47807708 10.21309311
   6.81069092  6.78824637  0.11887211
   1.83025429  8.43770635  1.75251827
   3.30981814  0.06456438  6.76055965
   5.29938590  8.54079099  5.21179590
   0.23660666  6.82583398  6.79250280
   1.96481992  8.38130713  8.68395268
   1.74792487  1.76745359  1.89889276
   6.94678290 10.24351684  0.10708528
   5.38452452  1.67106143  5.14602328
   5.37768334  1.73998381  8.43907482
   3.56469915  0.11121897 10.24264236
   5.12161362  1.80837391  1.84015637
   5.21757050  5.09256179  8.47784716
   3.42006831  3.36847311  6.80131552
   5.24757653  8.55301493  8.39584724
   1.74257487  5.07067317  4.98220839
   5.12511977  5.10093406  1.81639679
   3.75729006  6.81399769  0.15139828
   0.28938316 10.16522707  6.88145920
   3.63328047  6.85693780  3.47232664
   5.27611418  5.20329594  5.12068786
   6.88816926  6.83601859  3.43052055
   3.43052438  6.75461024  6.72412360
 


--------------------------------------------------------------------------------------------------------


 k-point  1 :   0.0000 0.0000 0.0000  plane waves:    8653
 k-point  2 :   0.3333 0.0000 0.0000  plane waves:    8642
 k-point  3 :  -0.0000 0.3333-0.0000  plane waves:    8628
 k-point  4 :   0.3333 0.3333-0.0000  plane waves:    8631
 k-point  5 :  -0.3333 0.3333-0.0000  plane waves:    8627
 k-point  6 :   0.0000-0.0000 0.3333  plane waves:    8619
 k-point  7 :   0.3333-0.0000 0.3333  plane waves:    8631
 k-point  8 :  -0.3333-0.0000 0.3333  plane waves:    8621
 k-point  9 :  -0.0000 0.3333 0.3333  plane waves:    8628
 k-point 10 :   0.3333 0.3333 0.3333  plane waves:    8638
 k-point 11 :  -0.3333 0.3333 0.3333  plane waves:    8632
 k-point 12 :   0.0000-0.3333 0.3333  plane waves:    8625
 k-point 13 :   0.3333-0.3333 0.3333  plane waves:    8635
 k-point 14 :  -0.3333-0.3333 0.3333  plane waves:    8628

 maximum and minimum number of plane-waves per node :      1750     1705

 maximum number of plane-waves:      8653
 maximum index in each direction: 
   IXMAX=   10   IYMAX=   14   IZMAX=   14
   IXMIN=  -10   IYMIN=  -14   IZMIN=  -14

 WARNING: aliasing errors must be expected set NGX to  42 to avoid them
 NGY is ok and might be reduce to  58
 NGZ is ok and might be reduce to  58
 aliasing errors are usually negligible using standard VASP settings
 and one can safely disregard these warnings

 real space projection operators:
  total allocation   :      26847.84 KBytes
  max/ min on nodes  :       5415.33       5301.84


 parallel 3D FFT for wavefunctions:
    minimum data exchange during FFTs selected (reduces bandwidth)
 parallel 3D FFT for charge:
    minimum data exchange during FFTs selected (reduces bandwidth)


 total amount of memory used by VASP on root node    68938. kBytes
========================================================================

   base      :      30000. kBytes
   nonlr-proj:      10341. kBytes
   fftplans  :       2814. kBytes
   grid      :       5360. kBytes
   one-center:        124. kBytes
   wavefun   :      20299. kBytes
 
     INWAV:  cpu time    0.0000: real time    0.0000
 Broyden mixing: mesh for mixing (old mesh)
   NGX = 19   NGY = 29   NGZ = 29
  (NGX  = 80   NGY  =120   NGZ  =120)
  gives a total of  15979 points

 initial charge density was supplied:
 charge density of overlapping atoms calculated
 number of electron     321.0000000 magnetization 
 keeping initial charge density in first step


--------------------------------------------------------------------------------------------------------


 Maximum index for non-local projection operator         1217
 Maximum index for augmentation-charges          681 (set IRDMAX)


--------------------------------------------------------------------------------------------------------


 First call to EWALD:  gamma=   0.197
 Maximum number of real-space cells 3x 2x 2
 Maximum number of reciprocal cells 2x 3x 3

 FEWALD executed in parallel
    FEWALD:  cpu time    0.0446: real time    0.0447


----------------------------------------- Iteration    1(   1)  ---------------------------------------


    POTLOK:  cpu time    0.0512: real time    0.0755
    SETDIJ:  cpu time    0.0975: real time    0.0978
     EDDAV:  cpu time    1.0939: real time    1.1396
       DOS:  cpu time    0.0021: real time    0.0021
    --------------------------------------------
      LOOP:  cpu time    1.2520: real time    1.4682

 eigenvalue-minimisations  :  5856
 total energy-change (2. order) : 0.2247169E+04  (-0.1235751E+05)
 number of electron     321.0000000 magnetization 
 augmentation part      321.0000000 magnetization 

 Free energy of the ion-electron system (eV)
  ---------------------------------------------------
  alpha Z        PSCENC =      1656.29882405
  Ewald energy   TEWEN  =    -22488.57696046
  -Hartree energ DENC   =     -8173.27713943
  -exchange      EXHF   =         0.00000000
  -V(xc)+E(xc)   XCENC  =       123.28581340
  PAW double counting   =     24815.49741299   -23389.33410035
  entropy T*S    EENTRO =         0.00244629
  eigenvalues    EBANDS =      -287.23627693
  atomic energy  EATOM  =     29990.50946633
  Solvation  Ediel_sol  =         0.00000000
  ---------------------------------------------------
  free energy    TOTEN  =      2247.16948587 eV

  energy without entropy =     2247.16703958  energy(sigma->0) =     2247.16867044


--------------------------------------------------------------------------------------------------------




----------------------------------------- Iteration    1(   2)  ---------------------------------------


     EDDAV:  cpu time    1.0861: real time    1.0892
       DOS:  cpu time    0.0013: real time    0.0013
    --------------------------------------------
      LOOP:  cpu time    1.1284: real time    1.2068

 eigenvalue-minimisations  :  6048
 total energy-change (2. order) :-0.2290427E+04  (-0.2213785E+04)
 number of electron     321.0000000 magnetization 
 augmentation part      321.0000000 magnetization 

 Free energy of the ion-electron system (eV)
  ---------------------------------------------------
  alpha Z        PSCENC =      1656.29882405
  Ewald energy   TEWEN  =    -22488.57696046
  -Hartree energ DENC   =     -8173.27713943
  -exchange      EXHF   =         0.00000000
  -V(xc)+E(xc)   XCENC  =       123.28581340
  PAW double counting   =     24815.49741299   -23389.33410035
  entropy T*S    EENTRO =         0.00727848
  eigenvalues    EBANDS =     -2577.66837938
  atomic energy  EATOM  =     29990.50946633
  Solvation  Ediel_sol  =         0.00000000
  ---------------------------------------------------
  free energy    TOTEN  =       -43.25778439 eV

  energy without entropy =      -43.26506287  energy(sigma->0) =      -43.26021055


--------------------------------------------------------------------------------------------------------




----------------------------------------- Iteration    1(   3)  ---------------------------------------


     EDDAV:  cpu time    1.5020: real time    1.5064
       DOS:  cpu time    0.0013: real time    0.0013
    --------------------------------------------
      LOOP:  cpu time    1.5038: real time    1.5218

 eigenvalue-minimisations  :  9056
 total energy-change (2. order) :-0.2892473E+03  (-0.2751461E+03)
 number of electron     321.0000000 magnetization 
 augmentation part      321.0000000 magnetization 

 Free energy of the ion-electron system (eV)
  ---------------------------------------------------
  alpha Z        PSCENC =      1656.29882405
  Ewald energy   TEWEN  =    -22488.57696046
  -Hartree energ DENC   =     -8173.27713943
  -exchange      EXHF   =         0.00000000
  -V(xc)+E(xc)   XCENC  =       123.28581340
  PAW double counting   =     24815.49741299   -23389.33410035
  entropy T*S    EENTRO =         0.00173338
  eigenvalues    EBANDS =     -2866.91010478
  atomic energy  EATOM  =     29990.50946633
  Solvation  Ediel_sol  =         0.00000000
  ---------------------------------------------------
  free energy    TOTEN  =      -332.50505489 eV

  energy without entropy =     -332.50678827  energy(sigma->0) =     -332.50563268


--------------------------------------------------------------------------------------------------------




----------------------------------------- Iteration    1(   4)  ---------------------------------------


     EDDAV:  cpu time    1.6441: real time    1.7202
       DOS:  cpu time    0.0011: real time    0.0011
    --------------------------------------------
      LOOP:  cpu time    1.6456: real time    1.7362

 eigenvalue-minimisations  :  9032
 total energy-change (2. order) :-0.3495838E+02  (-0.3336756E+02)
 number of electron     321.0000000 magnetization 
 augmentation part      321.0000000 magnetization 

 Free energy of the ion-electron system (eV)
  ---------------------------------------------------
  alpha Z        PSCENC =      1656.29882405
  Ewald energy   TEWEN  =    -22488.57696046
  -Hartree energ DENC   =     -8173.27713943
  -exchange      EXHF   =         0.00000000
  -V(xc)+E(xc)   XCENC  =       123.28581340
  PAW double counting   =     24815.49741299   -23389.33410035
  entropy T*S    EENTRO =         0.00937913
  eigenvalues    EBANDS =     -2901.87613133
  atomic energy  EATOM  =     29990.50946633
  Solvation  Ediel_sol  =         0.00000000
  ---------------------------------------------------
  free energy    TOTEN  =      -367.46343568 eV

  energy without entropy =     -367.47281482  energy(sigma->0) =     -367.46656206


--------------------------------------------------------------------------------------------------------




----------------------------------------- Iteration    1(   5)  ---------------------------------------


     EDDAV:  cpu time    1.5877: real time    1.6120
       DOS:  cpu time    0.0013: real time    0.0013
    CHARGE:  cpu time    0.0322: real time    0.0322
    MIXING:  cpu time    0.0015: real time    0.0015
    --------------------------------------------
      LOOP:  cpu time    1.6231: real time    1.6795

 eigenvalue-minimisations  :  8624
 total energy-change (2. order) :-0.3583990E+01  (-0.3511352E+01)
 number of electron     321.0000006 magnetization 
 augmentation part       17.9537180 magnetization 

 Broyden mixing:
  rms(total) = 0.62846E+01    rms(broyden)= 0.62842E+01
  rms(prec ) = 0.65527E+01
  weight for this iteration     100.00

 Free energy of the ion-electron system (eV)
  ---------------------------------------------------
  alpha Z        PSCENC =      1656.29882405
  Ewald energy   TEWEN  =    -22488.57696046
  -Hartree energ DENC   =     -8173.27713943
  -exchange      EXHF   =         0.00000000
  -V(xc)+E(xc)   XCENC  =       123.28581340
  PAW double counting   =     24815.49741299   -23389.33410035
  entropy T*S    EENTRO =         0.00949652
  eigenvalues    EBANDS =     -2905.46023825
  atomic energy  EATOM  =     29990.50946633
  Solvation  Ediel_sol  =         0.00000000
  ---------------------------------------------------
  free energy    TOTEN  =      -371.04742523 eV

  energy without entropy =     -371.05692174  energy(sigma->0) =     -371.05059073


--------------------------------------------------------------------------------------------------------




----------------------------------------- Iteration    1(   6)  ---------------------------------------


    POTLOK:  cpu time    0.0298: real time    0.0299
    SETDIJ:  cpu time    0.0035: real time    0.0036
    EDDIAG:  cpu time    0.0844: real time    0.0846
  RMM-DIIS:  cpu time    0.8779: real time    0.8808
    ORTHCH:  cpu time    0.0138: real time    0.0139
       DOS:  cpu time    0.0022: real time    0.0022
    CHARGE:  cpu time    0.0315: real time    0.0316
    MIXING:  cpu time    0.0018: real time    0.0139
    --------------------------------------------
      LOOP:  cpu time    1.0455: real time    1.0772

 eigenvalue-minimisations  :  7375
 total energy-change (2. order) : 0.1047274E+02  (-0.2406547E+01)
 number of electron     321.0000006 magnetization 
 augmentation part       18.7295612 magnetization 

 Broyden mixing:
  rms(total) = 0.29334E+01    rms(broyden)= 0.29334E+01
  rms(prec ) = 0.31724E+01
  weight for this iteration     100.00

 eigenvalues of (default mixing * dielectric matrix)
  average eigenvalue GAMMA=   1.7953
  1.7953

 Free energy of the ion-electron system (eV)
  ---------------------------------------------------
  alpha Z        PSCENC =      1656.29882405
  Ewald energy   TEWEN  =    -22488.57696046
  -Hartree energ DENC   =     -7969.03921129
  -exchange      EXHF   =         0.00000000
  -V(xc)+E(xc)   XCENC  =       117.06512996
  PAW double counting   =     30501.31594776   -29081.96681523
  entropy T*S    EENTRO =         0.01521358
  eigenvalues    EBANDS =     -3086.19627821
  atomic energy  EATOM  =     29990.50946633
  Solvation  Ediel_sol  =         0.00000000
  ---------------------------------------------------
  free energy    TOTEN  =      -360.57468351 eV

  energy without entropy =     -360.58989710  energy(sigma->0) =     -360.57975471


--------------------------------------------------------------------------------------------------------




----------------------------------------- Iteration    1(   7)  ---------------------------------------


    POTLOK:  cpu time    0.0292: real time    0.0293
    SETDIJ:  cpu time    0.0036: real time    0.0036
    EDDIAG:  cpu time    0.0853: real time    0.0856
  RMM-DIIS:  cpu time    0.7965: real time    0.8032
    ORTHCH:  cpu time    0.0143: real time    0.0143
       DOS:  cpu time    0.0029: real time    0.0029
    CHARGE:  cpu time    0.0640: real time    0.0642
    MIXING:  cpu time    0.0013: real time    0.0013
    --------------------------------------------
      LOOP:  cpu time    0.9976: real time    1.0191

 eigenvalue-minimisations  :  7736
 total energy-change (2. order) :-0.4897704E-01  (-0.2202255E+01)
 number of electron     321.0000006 magnetization 
 augmentation part       19.1474890 magnetization 

 Broyden mixing:
  rms(total) = 0.98976E+00    rms(broyden)= 0.98944E+00
  rms(prec ) = 0.26275E+01
  weight for this iteration     100.00

 eigenvalues of (default mixing * dielectric matrix)
  average eigenvalue GAMMA=   1.1860
  1.8026  0.5694

 Free energy of the ion-electron system (eV)
  ---------------------------------------------------
  alpha Z        PSCENC =      1656.29882405
  Ewald energy   TEWEN  =    -22488.57696046
  -Hartree energ DENC   =     -7901.11202330
  -exchange      EXHF   =         0.00000000
  -V(xc)+E(xc)   XCENC  =       116.55167363
  PAW double counting   =     35944.17183685   -34514.79960172
  entropy T*S    EENTRO =        -0.00306089
  eigenvalues    EBANDS =     -3163.66381505
  atomic energy  EATOM  =     29990.50946633
  Solvation  Ediel_sol  =         0.00000000
  ---------------------------------------------------
  free energy    TOTEN  =      -360.62366055 eV

  energy without entropy =     -360.62059966  energy(sigma->0) =     -360.62264026


--------------------------------------------------------------------------------------------------------




----------------------------------------- Iteration    1(   8)  ---------------------------------------


    POTLOK:  cpu time    0.0292: real time    0.0292
    SETDIJ:  cpu time    0.0130: real time    0.0130
    EDDIAG:  cpu time    0.1489: real time    0.1493
  RMM-DIIS:  cpu time    0.9469: real time    0.9509
    ORTHCH:  cpu time    0.0139: real time    0.0140
       DOS:  cpu time    0.0197: real time    0.0197
    CHARGE:  cpu time    0.0329: real time    0.0330
    MIXING:  cpu time    0.0013: real time    0.0013
    --------------------------------------------
      LOOP:  cpu time    1.2062: real time    1.2274

 eigenvalue-minimisations  :  8093
 total energy-change (2. order) : 0.3879983E+01  (-0.4694517E+00)
 number of electron     321.0000005 magnetization 
 augmentation part       18.9089882 magnetization 

 Broyden mixing:
  rms(total) = 0.43107E+00    rms(broyden)= 0.43072E+00
  rms(prec ) = 0.72197E+00
  weight for this iteration     100.00

 eigenvalues of (default mixing * dielectric matrix)
  average eigenvalue GAMMA=   1.1712
  1.7451  1.3552  0.4133

 Free energy of the ion-electron system (eV)
  ---------------------------------------------------
  alpha Z        PSCENC =      1656.29882405
  Ewald energy   TEWEN  =    -22488.57696046
  -Hartree energ DENC   =     -7865.43836311
  -exchange      EXHF   =         0.00000000
  -V(xc)+E(xc)   XCENC  =       116.16886760
  PAW double counting   =     36655.25361231   -35223.50503835
  entropy T*S    EENTRO =         0.01954051
  eigenvalues    EBANDS =     -3197.47362687
  atomic energy  EATOM  =     29990.50946633
  Solvation  Ediel_sol  =         0.00000000
  ---------------------------------------------------
  free energy    TOTEN  =      -356.74367799 eV

  energy without entropy =     -356.76321850  energy(sigma->0) =     -356.75019150


--------------------------------------------------------------------------------------------------------




----------------------------------------- Iteration    1(   9)  ---------------------------------------


    POTLOK:  cpu time    0.0296: real time    0.0297
    SETDIJ:  cpu time    0.0037: real time    0.0037
    EDDIAG:  cpu time    0.0971: real time    0.0974
  RMM-DIIS:  cpu time    0.9047: real time    0.9129
    ORTHCH:  cpu time    0.0150: real time    0.0151
       DOS:  cpu time    0.0015: real time    0.0016
    CHARGE:  cpu time    0.0335: real time    0.0337
    MIXING:  cpu time    0.0014: real time    0.0014
    --------------------------------------------
      LOOP:  cpu time    1.0870: real time    1.1100

 eigenvalue-minimisations  :  8041
 total energy-change (2. order) : 0.1143103E+00  (-0.1880523E+00)
 number of electron     321.0000006 magnetization 
 augmentation part       18.7611196 magnetization 

 Broyden mixing:
  rms(total) = 0.31110E+00    rms(broyden)= 0.31097E+00
  rms(prec ) = 0.45161E+00
  weight for this iteration     100.00

 eigenvalues of (default mixing * dielectric matrix)
  average eigenvalue GAMMA=   1.1438
  1.8721  1.8721  0.4563  0.3748

 Free energy of the ion-electron system (eV)
  ---------------------------------------------------
  alpha Z        PSCENC =      1656.29882405
  Ewald energy   TEWEN  =    -22488.57696046
  -Hartree energ DENC   =     -7873.47723414
  -exchange      EXHF   =         0.00000000
  -V(xc)+E(xc)   XCENC  =       116.78167076
  PAW double counting   =     36826.12477770   -35389.24763957
  entropy T*S    EENTRO =         0.02170853
  eigenvalues    EBANDS =     -3195.06398086
  atomic energy  EATOM  =     29990.50946633
  Solvation  Ediel_sol  =         0.00000000
  ---------------------------------------------------
  free energy    TOTEN  =      -356.62936768 eV

  energy without entropy =     -356.65107621  energy(sigma->0) =     -356.63660385


--------------------------------------------------------------------------------------------------------




----------------------------------------- Iteration    1(  10)  ---------------------------------------


    POTLOK:  cpu time    0.0296: real time    0.0297
    SETDIJ:  cpu time    0.0394: real time    0.0412
    EDDIAG:  cpu time    0.0978: real time    0.1011
  RMM-DIIS:  cpu time    0.7908: real time    0.8369
    ORTHCH:  cpu time    0.0139: real time    0.0140
       DOS:  cpu time    0.0011: real time    0.0012
    CHARGE:  cpu time    0.0332: real time    0.0335
    MIXING:  cpu time    0.0014: real time    0.0014
    --------------------------------------------
      LOOP:  cpu time    1.0079: real time    1.0728

 eigenvalue-minimisations  :  7919
 total energy-change (2. order) : 0.8574167E-01  (-0.3769870E-01)
 number of electron     321.0000006 magnetization 
 augmentation part       18.6484651 magnetization 

 Broyden mixing:
  rms(total) = 0.12002E+00    rms(broyden)= 0.11995E+00
  rms(prec ) = 0.19000E+00
  weight for this iteration     100.00

 eigenvalues of (default mixing * dielectric matrix)
  average eigenvalue GAMMA=   1.1328
  2.1307  1.8441  0.8635  0.4660  0.3600

 Free energy of the ion-electron system (eV)
  ---------------------------------------------------
  alpha Z        PSCENC =      1656.29882405
  Ewald energy   TEWEN  =    -22488.57696046
  -Hartree energ DENC   =     -7891.55303351
  -exchange      EXHF   =         0.00000000
  -V(xc)+E(xc)   XCENC  =       118.03553057
  PAW double counting   =     37079.51389102   -35632.71345294
  entropy T*S    EENTRO =         0.02025804
  eigenvalues    EBANDS =     -3188.07814909
  atomic energy  EATOM  =     29990.50946633
  Solvation  Ediel_sol  =         0.00000000
  ---------------------------------------------------
  free energy    TOTEN  =      -356.54362600 eV

  energy without entropy =     -356.56388404  energy(sigma->0) =     -356.55037868


--------------------------------------------------------------------------------------------------------




----------------------------------------- Iteration    1(  11)  ---------------------------------------


    POTLOK:  cpu time    0.0295: real time    0.0296
    SETDIJ:  cpu time    0.0036: real time    0.0036
    EDDIAG:  cpu time    0.0840: real time    0.0842
  RMM-DIIS:  cpu time    0.8205: real time    0.8253
    ORTHCH:  cpu time    0.0143: real time    0.0144
       DOS:  cpu time    0.0009: real time    0.0009
    CHARGE:  cpu time    0.0332: real time    0.0333
    MIXING:  cpu time    0.0014: real time    0.0014
    --------------------------------------------
      LOOP:  cpu time    0.9881: real time    1.0068

 eigenvalue-minimisations  :  8033
 total energy-change (2. order) : 0.1390471E-01  (-0.1256736E-01)
 number of electron     321.0000006 magnetization 
 augmentation part       18.6193107 magnetization 

 Broyden mixing:
  rms(total) = 0.61475E-01    rms(broyden)= 0.61435E-01
  rms(prec ) = 0.11631E+00
  weight for this iteration     100.00

 eigenvalues of (default mixing * dielectric matrix)
  average eigenvalue GAMMA=   1.0927
  2.2318  1.7913  1.1833  0.5262  0.4634  0.3605

 Free energy of the ion-electron system (eV)
  ---------------------------------------------------
  alpha Z        PSCENC =      1656.29882405
  Ewald energy   TEWEN  =    -22488.57696046
  -Hartree energ DENC   =     -7895.29608378
  -exchange      EXHF   =         0.00000000
  -V(xc)+E(xc)   XCENC  =       118.42259293
  PAW double counting   =     37250.57570886   -35799.62860658
  entropy T*S    EENTRO =         0.02004653
  eigenvalues    EBANDS =     -3188.85470916
  atomic energy  EATOM  =     29990.50946633
  Solvation  Ediel_sol  =         0.00000000
  ---------------------------------------------------
  free energy    TOTEN  =      -356.52972129 eV

  energy without entropy =     -356.54976782  energy(sigma->0) =     -356.53640347


--------------------------------------------------------------------------------------------------------




----------------------------------------- Iteration    1(  12)  ---------------------------------------


    POTLOK:  cpu time    0.0296: real time    0.0296
    SETDIJ:  cpu time    0.0036: real time    0.0037
    EDDIAG:  cpu time    0.0831: real time    0.0834
  RMM-DIIS:  cpu time    0.8896: real time    0.8945
    ORTHCH:  cpu time    0.0208: real time    0.0209
       DOS:  cpu time    0.0028: real time    0.0028
    CHARGE:  cpu time    0.0324: real time    0.0325
    MIXING:  cpu time    0.0015: real time    0.0015
    --------------------------------------------
      LOOP:  cpu time    1.0641: real time    1.0853

 eigenvalue-minimisations  :  8073
 total energy-change (2. order) : 0.2199498E-02  (-0.4287883E-02)
 number of electron     321.0000006 magnetization 
 augmentation part       18.6117343 magnetization 

 Broyden mixing:
  rms(total) = 0.37549E-01    rms(broyden)= 0.37530E-01
  rms(prec ) = 0.62273E-01
  weight for this iteration     100.00

 eigenvalues of (default mixing * dielectric matrix)
  average eigenvalue GAMMA=   1.0690
  2.2840  1.7638  1.4776  0.6822  0.3528  0.4787  0.4438

 Free energy of the ion-electron system (eV)
  ---------------------------------------------------
  alpha Z        PSCENC =      1656.29882405
  Ewald energy   TEWEN  =    -22488.57696046
  -Hartree energ DENC   =     -7896.99052819
  -exchange      EXHF   =         0.00000000
  -V(xc)+E(xc)   XCENC  =       118.50532953
  PAW double counting   =     37336.70445436   -35884.35974467
  entropy T*S    EENTRO =         0.01910562
  eigenvalues    EBANDS =     -3188.63746837
  atomic energy  EATOM  =     29990.50946633
  Solvation  Ediel_sol  =         0.00000000
  ---------------------------------------------------
  free energy    TOTEN  =      -356.52752179 eV

  energy without entropy =     -356.54662742  energy(sigma->0) =     -356.53389033


--------------------------------------------------------------------------------------------------------




----------------------------------------- Iteration    1(  13)  ---------------------------------------


    POTLOK:  cpu time    0.1583: real time    0.1592
    SETDIJ:  cpu time    0.0034: real time    0.0034
    EDDIAG:  cpu time    0.1754: real time    0.1790
  RMM-DIIS:  cpu time    0.8454: real time    0.8580
    ORTHCH:  cpu time    0.0145: real time    0.0145
       DOS:  cpu time    0.0019: real time    0.0019
    CHARGE:  cpu time    0.0355: real time    0.0356
    MIXING:  cpu time    0.0015: real time    0.0015
    --------------------------------------------
      LOOP:  cpu time    1.2366: real time    1.2863

 eigenvalue-minimisations  :  8111
 total energy-change (2. order) : 0.8670978E-03  (-0.1639243E-02)
 number of electron     321.0000006 magnetization 
 augmentation part       18.6107991 magnetization 

 Broyden mixing:
  rms(total) = 0.22425E-01    rms(broyden)= 0.22415E-01
  rms(prec ) = 0.30406E-01
  weight for this iteration     100.00

 eigenvalues of (default mixing * dielectric matrix)
  average eigenvalue GAMMA=   1.1023
  2.4501  2.0122  1.5775  1.0101  0.5619  0.4800  0.3628  0.3640

 Free energy of the ion-electron system (eV)
  ---------------------------------------------------
  alpha Z        PSCENC =      1656.29882405
  Ewald energy   TEWEN  =    -22488.57696046
  -Hartree energ DENC   =     -7896.84939417
  -exchange      EXHF   =         0.00000000
  -V(xc)+E(xc)   XCENC  =       118.50551789
  PAW double counting   =     37391.11153112   -35937.93468673
  entropy T*S    EENTRO =         0.01982380
  eigenvalues    EBANDS =     -3189.61077652
  atomic energy  EATOM  =     29990.50946633
  Solvation  Ediel_sol  =         0.00000000
  ---------------------------------------------------
  free energy    TOTEN  =      -356.52665470 eV

  energy without entropy =     -356.54647850  energy(sigma->0) =     -356.53326263


--------------------------------------------------------------------------------------------------------




----------------------------------------- Iteration    1(  14)  ---------------------------------------


    POTLOK:  cpu time    0.0293: real time    0.0294
    SETDIJ:  cpu time    0.0036: real time    0.0036
    EDDIAG:  cpu time    0.1753: real time    0.1760
  RMM-DIIS:  cpu time    0.8822: real time    0.8879
    ORTHCH:  cpu time    0.0155: real time    0.0155
       DOS:  cpu time    0.0039: real time    0.0039
    CHARGE:  cpu time    0.0333: real time    0.0334
    MIXING:  cpu time    0.0015: real time    0.0015
    --------------------------------------------
      LOOP:  cpu time    1.1452: real time    1.1672

 eigenvalue-minimisations  :  8413
 total energy-change (2. order) :-0.5379457E-03  (-0.7936606E-03)
 number of electron     321.0000006 magnetization 
 augmentation part       18.6086493 magnetization 

 Broyden mixing:
  rms(total) = 0.12095E-01    rms(broyden)= 0.12090E-01
  rms(prec ) = 0.20915E-01
  weight for this iteration     100.00

 eigenvalues of (default mixing * dielectric matrix)
  average eigenvalue GAMMA=   1.0759
  2.5825  2.0750  1.5495  1.1544  0.5760  0.5760  0.4433  0.3514  0.3753

 Free energy of the ion-electron system (eV)
  ---------------------------------------------------
  alpha Z        PSCENC =      1656.29882405
  Ewald energy   TEWEN  =    -22488.57696046
  -Hartree energ DENC   =     -7897.31140142
  -exchange      EXHF   =         0.00000000
  -V(xc)+E(xc)   XCENC  =       118.51886411
  PAW double counting   =     37422.37930179   -35968.50948292
  entropy T*S    EENTRO =         0.01973972
  eigenvalues    EBANDS =     -3189.85554384
  atomic energy  EATOM  =     29990.50946633
  Solvation  Ediel_sol  =         0.00000000
  ---------------------------------------------------
  free energy    TOTEN  =      -356.52719264 eV

  energy without entropy =     -356.54693236  energy(sigma->0) =     -356.53377255


--------------------------------------------------------------------------------------------------------




----------------------------------------- Iteration    1(  15)  ---------------------------------------


    POTLOK:  cpu time    0.0288: real time    0.0289
    SETDIJ:  cpu time    0.0035: real time    0.0035
    EDDIAG:  cpu time    0.1528: real time    0.1536
  RMM-DIIS:  cpu time    0.8960: real time    0.9037
    ORTHCH:  cpu time    0.0151: real time    0.0152
       DOS:  cpu time    0.0009: real time    0.0009
    CHARGE:  cpu time    0.0313: real time    0.0314
    MIXING:  cpu time    0.0016: real time    0.0016
    --------------------------------------------
      LOOP:  cpu time    1.1306: real time    1.1646

 eigenvalue-minimisations  :  8200
 total energy-change (2. order) :-0.7011027E-04  (-0.3246366E-03)
 number of electron     321.0000006 magnetization 
 augmentation part       18.6073242 magnetization 

 Broyden mixing:
  rms(total) = 0.52570E-02    rms(broyden)= 0.52513E-02
  rms(prec ) = 0.96176E-02
  weight for this iteration     100.00

 eigenvalues of (default mixing * dielectric matrix)
  average eigenvalue GAMMA=   1.0656
  2.6305  2.0931  1.5781  1.2858  0.8523  0.6191  0.4585  0.4261  0.3618  0.3503

 Free energy of the ion-electron system (eV)
  ---------------------------------------------------
  alpha Z        PSCENC =      1656.29882405
  Ewald energy   TEWEN  =    -22488.57696046
  -Hartree energ DENC   =     -7897.71769364
  -exchange      EXHF   =         0.00000000
  -V(xc)+E(xc)   XCENC  =       118.53162607
  PAW double counting   =     37438.93149953   -35984.67101382
  entropy T*S    EENTRO =         0.01981967
  eigenvalues    EBANDS =     -3189.85283049
  atomic energy  EATOM  =     29990.50946633
  Solvation  Ediel_sol  =         0.00000000
  ---------------------------------------------------
  free energy    TOTEN  =      -356.52726275 eV

  energy without entropy =     -356.54708243  energy(sigma->0) =     -356.53386931


--------------------------------------------------------------------------------------------------------




----------------------------------------- Iteration    1(  16)  ---------------------------------------


    POTLOK:  cpu time    0.0292: real time    0.0302
    SETDIJ:  cpu time    0.0123: real time    0.0124
    EDDIAG:  cpu time    0.0873: real time    0.0877
  RMM-DIIS:  cpu time    0.7067: real time    0.7283
    ORTHCH:  cpu time    0.0159: real time    0.0159
       DOS:  cpu time    0.0072: real time    0.0073
    CHARGE:  cpu time    0.0510: real time    0.0512
    MIXING:  cpu time    0.0018: real time    0.0018
    --------------------------------------------
      LOOP:  cpu time    0.9121: real time    0.9676

 eigenvalue-minimisations  :  6869
 total energy-change (2. order) :-0.8358524E-04  (-0.1504526E-03)
 number of electron     321.0000006 magnetization 
 augmentation part       18.6061834 magnetization 

 Broyden mixing:
  rms(total) = 0.27437E-02    rms(broyden)= 0.27418E-02
  rms(prec ) = 0.54608E-02
  weight for this iteration     100.00

 eigenvalues of (default mixing * dielectric matrix)
  average eigenvalue GAMMA=   1.0365
  2.6609  2.1021  1.6296  1.3503  0.9642  0.5799  0.5290  0.4769  0.3974  0.3463
  0.3647

 Free energy of the ion-electron system (eV)
  ---------------------------------------------------
  alpha Z        PSCENC =      1656.29882405
  Ewald energy   TEWEN  =    -22488.57696046
  -Hartree energ DENC   =     -7897.91277042
  -exchange      EXHF   =         0.00000000
  -V(xc)+E(xc)   XCENC  =       118.53778107
[...]
    114       5.9020      2.00000
    115       5.9707      2.00000
    116       6.0444      2.00000
    117       6.1059      2.00000
    118       6.1218      2.00000
    119       6.1448      2.00000
    120       6.2340      2.00000
    121       6.2855      2.00000
    122       6.4239      2.00000
    123       6.5152      2.00000
    124       6.5310      2.00000
    125       6.5783      2.00000
    126       6.6051      2.00000
    127       6.6284      2.00000
    128       6.6894      2.00000
    129       6.7209      2.00000
    130       6.7764      2.00000
    131       6.8029      2.00000
    132       6.8448      2.00000
    133       6.8631      2.00000
    134       6.8753      2.00000
    135       6.9146      2.00000
    136       6.9312      2.00000
    137       6.9823      2.00000
    138       7.0122      2.00000
    139       7.0565      2.00000
    140       7.0841      2.00000
    141       7.1106      2.00000
    142       7.1616      2.00000
    143       7.2007      2.00000
    144       7.2241      2.00000
    145       7.2908      2.00000
    146       7.3335      2.00000
    147       7.3656      2.00000
    148       7.4000      2.00000
    149       7.4501      2.00004
    150       7.4914      2.00020
    151       7.5549      2.00170
    152       7.6017      2.00643
    153       7.6085      2.00764
    154       7.6304      2.01292
    155       7.6775      2.03283
    156       7.7241      2.06048
    157       7.7414      2.06824
    158       7.7763      2.06443
    159       7.8227      1.97084
    160       7.9051      1.38310
    161       7.9167      1.26047
    162       7.9449      0.94560
    163       7.9670      0.70091
    164       8.0032      0.35271
    165       8.0369      0.12143
    166       8.1023     -0.06327
    167       8.1165     -0.07014
    168       8.1448     -0.06593
    169       8.1846     -0.04337
    170       8.2112     -0.02827
    171       8.2547     -0.01152
    172       8.2873     -0.00509
    173       8.3421     -0.00100
    174       8.3737     -0.00034
    175       8.4037     -0.00011
    176       8.4231     -0.00005
    177       8.4762     -0.00001
    178       8.5492     -0.00000
    179       8.6171     -0.00000
    180       8.6500     -0.00000
    181       8.6959     -0.00000
    182       8.7447     -0.00000
    183       8.7940     -0.00000
    184       8.8997     -0.00000
    185       9.0451     -0.00000
    186       9.1591     -0.00000
    187       9.2816     -0.00000
    188       9.7237     -0.00000
    189       9.8628     -0.00000
    190       9.9192     -0.00000
    191       9.9547     -0.00000
    192       9.9903     -0.00000


--------------------------------------------------------------------------------------------------------


 soft charge-density along one line, spin component           1
         0         1         2         3         4         5         6         7         8         9
 total charge-density along one line
 
 pseudopotential strength for first ion, spin component:           1
  5.801 -20.833   0.001   0.000   0.000  -0.002  -0.001  -0.001
-20.833   9.700   0.002   0.001   0.001  -0.000  -0.000  -0.000
  0.001   0.002 -10.152   0.001   0.000   6.471  -0.001   0.000
  0.000   0.001   0.001 -10.155   0.000  -0.001   6.474  -0.000
  0.000   0.001   0.000   0.000 -10.149   0.000  -0.000   6.468
 -0.002  -0.000   6.471  -0.001   0.000   7.647   0.001   0.000
 -0.001  -0.000  -0.001   6.474  -0.000   0.001   7.644  -0.000
 -0.001  -0.000   0.000  -0.000   6.468   0.000  -0.000   7.649
  0.000  -0.000  -0.000   0.001   0.002  -0.000  -0.000  -0.001
  0.001   0.000  -0.000   0.001   0.001  -0.000  -0.001  -0.000
 -0.002  -0.001  -0.001   0.001   0.000  -0.000   0.000  -0.000
  0.000   0.000   0.001   0.001   0.000  -0.000  -0.001  -0.000
  0.001   0.000  -0.000   0.000   0.000  -0.001  -0.000  -0.000
  0.000  -0.000  -0.000   0.001   0.002  -0.000  -0.000  -0.002
  0.001   0.000  -0.000   0.001   0.001  -0.000  -0.001  -0.000
 -0.002  -0.001  -0.001   0.001   0.000  -0.000   0.000  -0.000
  0.000   0.000   0.001   0.001   0.000  -0.000  -0.001  -0.000
  0.001   0.001  -0.000   0.000   0.001  -0.001  -0.000  -0.000
 total augmentation occupancy for first ion, spin component:           1
  1.998  -0.030   0.001   0.000   0.000   0.001  -0.000  -0.000   0.007   0.005  -0.003  -0.003   0.002  -0.006  -0.004   0.003
 -0.030   1.380   0.007   0.001  -0.001  -0.017  -0.007  -0.003   0.054   0.012   0.012  -0.016  -0.013  -0.025  -0.008   0.002
  0.001   0.007   1.997  -0.000  -0.000  -0.023   0.000   0.001  -0.007  -0.005  -0.018   0.000  -0.029   0.004   0.003   0.011
  0.000   0.001  -0.000   1.997   0.000   0.000  -0.022  -0.001   0.001  -0.004   0.009  -0.008  -0.001   0.001   0.003  -0.004
  0.000  -0.001  -0.000   0.000   1.997   0.001  -0.001  -0.023   0.004   0.001  -0.002  -0.005   0.002   0.000   0.001   0.001
  0.001  -0.017  -0.023   0.000   0.001   0.053   0.000  -0.000   0.004   0.008   0.023  -0.007   0.033  -0.000  -0.003  -0.010
 -0.000  -0.007   0.000  -0.022  -0.001   0.000   0.051   0.002  -0.010  -0.005  -0.017  -0.004  -0.000   0.002   0.004   0.004
 -0.000  -0.003   0.001  -0.001  -0.023  -0.000   0.002   0.054  -0.029  -0.009   0.002  -0.000  -0.009   0.010   0.002  -0.001
  0.007   0.054  -0.007   0.001   0.004   0.004  -0.010  -0.029   2.514   0.066  -0.073   0.053  -0.031  -0.889  -0.031   0.038
  0.005   0.012  -0.005  -0.004   0.001   0.008  -0.005  -0.009   0.066   2.323  -0.019   0.043  -0.037  -0.031  -0.821  -0.001
 -0.003   0.012  -0.018   0.009  -0.002   0.023  -0.017   0.002  -0.073  -0.019   2.119  -0.047   0.014   0.038  -0.001  -0.814
 -0.003  -0.016   0.000  -0.008  -0.005  -0.007  -0.004  -0.000   0.053   0.043  -0.047   2.351  -0.017  -0.019  -0.019   0.011
  0.002  -0.013  -0.029  -0.001   0.002   0.033  -0.000  -0.009  -0.031  -0.037   0.014  -0.017   2.065   0.011   0.018  -0.007
 -0.006  -0.025   0.004   0.001   0.000  -0.000   0.002   0.010  -0.889  -0.031   0.038  -0.019   0.011   0.328   0.013  -0.019
 -0.004  -0.008   0.003   0.003   0.001  -0.003   0.004   0.002  -0.031  -0.821  -0.001  -0.019   0.018   0.013   0.303   0.003
  0.003   0.002   0.011  -0.004   0.001  -0.010   0.004  -0.001   0.038  -0.001  -0.814   0.011  -0.007  -0.019   0.003   0.321
  0.002   0.001   0.001   0.006   0.004   0.001   0.001  -0.001  -0.019  -0.019   0.011  -0.824   0.004   0.007   0.009  -0.002
 -0.001   0.008   0.017   0.001  -0.000  -0.014   0.000   0.003   0.011   0.018  -0.007   0.004  -0.807  -0.004  -0.008   0.004


------------------------ aborting loop because EDIFF is reached ----------------------------------------


    CHARGE:  cpu time    0.0372: real time    0.0374
    FORLOC:  cpu time    0.0133: real time    0.0133
    FORNL :  cpu time    0.3158: real time    0.3181
    STRESS:  cpu time    0.9396: real time    0.9453
    FORCOR:  cpu time    0.0427: real time    0.0428
    FORHAR:  cpu time    0.0187: real time    0.0188
    MIXING:  cpu time    0.0013: real time    0.0013
    OFIELD:  cpu time    0.0000: real time    0.0000

  FORCE on cell =-STRESS in cart. coord.  units (eV):
  Direction    XX          YY          ZZ          XY          YZ          ZX
  --------------------------------------------------------------------------------------
  Alpha Z  1655.63437  1655.63437  1655.63437
  Ewald   -6158.34436 -9384.18667 -6927.15030    79.20145  -278.16793    67.49412
  Hartree  3886.03035   821.96490  3207.17983    61.80435  -250.32718    82.87917
  E(xc)   -1402.76461 -1402.54753 -1402.98290     0.28990     0.31991     0.25517
  Local   -3500.55038  2782.00099 -2053.68885  -140.70260   529.17457  -149.18700
  n-local  -314.90251  -315.87481  -317.52849    -0.03831    -1.19811     3.93061
  augment   239.97397   240.52785   240.31583    -0.02083     0.18475    -0.54548
  Kinetic  5594.90313  5602.48206  5598.16835    -0.53645     0.04370    -4.81317
  Fock        0.00000     0.00000     0.00000     0.00000     0.00000     0.00000
  -------------------------------------------------------------------------------------
  Total      -0.02003     0.00115    -0.05217    -0.00249     0.02970     0.01342
  in kB      -0.04386     0.00252    -0.11426    -0.00544     0.06505     0.02940
  external pressure =       -0.05 kB  Pullay stress =        0.00 kB


 VOLUME and BASIS-vectors are now :
 -----------------------------------------------------------------------------
  energy-cutoff  :      300.00
  volume of cell :      731.52
      direct lattice vectors                 reciprocal lattice vectors
     6.983282056 -0.000928631  0.046901207     0.143205635  0.000021759 -0.000966270
    -0.001474087 10.258101496  0.012527147     0.000013704  0.097484062 -0.000110293
     0.068904637  0.011544440 10.212247625    -0.000657709 -0.000119682  0.097926210

  length of vectors
     6.983439615 10.258109251 10.212486606     0.143208896  0.097484125  0.097928491


 FORCES acting on ions
    electron-ion (+dipol)            ewald-force                    non-local-force                 convergence-correction
 -----------------------------------------------------------------------------------------------
   -.857E+02 0.250E+03 -.155E+03   0.857E+02 -.251E+03 0.154E+03   0.145E-01 0.970E+00 0.274E+00   -.490E-03 -.761E-02 -.204E-01
   0.595E+02 0.232E+03 -.169E+03   -.594E+02 -.233E+03 0.170E+03   -.963E-01 0.110E+01 -.397E+00   0.229E-02 -.696E-02 -.226E-01
   -.116E+01 0.457E+03 0.827E+02   0.706E+00 -.458E+03 -.815E+02   0.458E+00 0.596E+00 -.121E+01   -.272E-02 0.136E-01 -.757E-02
   0.504E+02 -.290E+03 0.137E+02   -.492E+02 0.291E+03 -.133E+02   -.115E+01 -.114E+01 -.291E+00   0.353E-02 -.568E-02 -.225E-01
   0.117E+03 -.518E+03 -.148E+03   -.116E+03 0.518E+03 0.148E+03   -.434E+00 -.555E-01 0.115E+00   0.416E-02 0.147E-02 0.203E-01
   -.641E+02 -.324E+03 0.730E+02   0.631E+02 0.326E+03 -.734E+02   0.971E+00 -.107E+01 0.490E+00   -.311E-02 -.333E-02 -.151E-01
   0.664E+02 -.160E+03 0.110E+03   -.653E+02 0.160E+03 -.109E+03   -.107E+01 -.264E+00 -.113E+01   0.138E-02 -.266E-01 -.137E-01
   0.304E+02 0.234E+03 -.218E+03   -.304E+02 -.234E+03 0.217E+03   -.236E-01 -.203E+00 0.548E+00   -.253E-02 0.111E-01 -.210E-01
   -.281E+02 -.299E+03 -.150E+03   0.274E+02 0.299E+03 0.149E+03   0.713E+00 0.416E-01 0.655E+00   0.435E-04 -.291E-01 0.308E-01
   0.304E+02 0.270E+03 0.780E+02   -.311E+02 -.270E+03 -.785E+02   0.699E+00 -.164E+00 0.528E+00   0.104E-02 -.354E-01 0.217E-01
   -.349E+01 0.488E+02 -.399E+02   0.309E+01 -.489E+02 0.401E+02   0.396E+00 0.894E-01 -.165E+00   0.215E-03 -.320E-02 -.685E-02
   0.287E+02 -.131E+03 0.249E+02   -.282E+02 0.131E+03 -.244E+02   -.548E+00 0.109E-02 -.491E+00   0.205E-03 -.321E-03 0.745E-02
   0.163E+02 -.106E+03 -.489E+02   -.158E+02 0.107E+03 0.486E+02   -.536E+00 -.324E+00 0.284E+00   -.314E-03 -.789E-02 0.946E-02
   -.463E+02 0.692E+00 -.120E+02   0.455E+02 -.858E+00 0.123E+02   0.813E+00 0.157E+00 -.268E+00   -.254E-02 0.907E-02 0.929E-02
   0.108E+02 0.136E+03 0.525E+02   -.105E+02 -.136E+03 -.520E+02   -.228E+00 0.301E+00 -.529E+00   0.782E-03 0.441E-02 0.148E-02
   0.242E+01 0.101E+03 -.431E+01   -.348E+01 -.101E+03 0.417E+01   0.106E+01 -.118E+00 0.134E+00   -.147E-03 -.148E-02 0.128E-02
   -.318E+01 0.880E+02 -.760E+02   0.314E+01 -.882E+02 0.753E+02   0.410E-01 0.174E+00 0.619E+00   0.237E-03 0.368E-02 -.555E-02
   0.285E+02 -.708E+02 -.103E+02   -.278E+02 0.707E+02 0.103E+02   -.614E+00 0.581E-02 0.987E-01   0.656E-05 0.871E-02 -.498E-02
   0.175E+02 0.581E+02 0.166E+02   -.173E+02 -.584E+02 -.167E+02   -.231E+00 0.251E+00 0.938E-01   0.837E-04 0.102E-01 0.538E-02
   0.699E+02 -.379E+02 0.653E+01   -.697E+02 0.381E+02 -.609E+01   -.242E+00 -.149E+00 -.443E+00   0.212E-02 -.959E-02 0.333E-03
   -.109E+03 0.321E+03 0.127E+03   0.109E+03 -.321E+03 -.127E+03   -.101E+00 0.227E-01 -.820E-01   -.783E-02 -.464E-02 0.964E-02
   -.158E+02 0.165E+03 -.161E+03   0.163E+02 -.165E+03 0.161E+03   -.483E+00 0.290E+00 0.272E+00   -.855E-03 -.800E-02 -.225E-01
   -.201E+02 0.167E+03 0.692E+02   0.207E+02 -.167E+03 -.695E+02   -.627E+00 -.327E+00 0.302E+00   -.166E-02 -.364E-01 0.196E-01
   0.102E+03 0.366E+03 0.134E+03   -.102E+03 -.366E+03 -.134E+03   0.103E+00 -.436E-01 0.275E+00   0.714E-02 -.491E-02 0.126E-01
   -.804E+02 -.671E+02 0.823E+02   0.802E+02 0.677E+02 -.818E+02   0.163E+00 -.579E+00 -.490E+00   -.228E-02 -.128E-01 0.367E-02
   -.971E+02 -.395E+03 -.661E+02   0.965E+02 0.395E+03 0.660E+02   0.554E+00 0.948E-01 0.693E-01   -.334E-02 0.509E-02 0.158E-01
   -.526E+02 -.725E+02 0.126E+03   0.519E+02 0.726E+02 -.126E+03   0.726E+00 -.884E-01 -.634E-01   -.644E-03 -.223E-01 -.118E-01
   -.168E+02 0.213E+03 0.151E+03   0.162E+02 -.213E+03 -.152E+03   0.518E+00 0.263E+00 0.429E+00   0.221E-02 0.302E-01 0.210E-01
   0.309E+02 -.361E+03 0.563E+02   -.309E+02 0.361E+03 -.569E+02   0.137E-01 0.861E-01 0.572E+00   -.757E-03 -.193E-03 -.403E-01
   -.288E+02 -.153E+03 0.450E+02   0.282E+02 0.153E+03 -.446E+02   0.638E+00 -.999E-01 -.365E+00   -.820E-04 -.395E-03 0.882E-02
   0.508E+02 -.197E+02 -.194E+02   -.500E+02 0.198E+02 0.200E+02   -.738E+00 -.710E-01 -.620E+00   0.289E-02 0.111E-01 0.117E-01
   -.803E+01 0.135E+03 0.113E+02   0.903E+01 -.135E+03 -.111E+02   -.101E+01 0.402E+00 -.143E+00   -.419E-03 -.158E-02 0.286E-02
   -.134E+01 0.207E+02 0.963E+01   0.222E+01 -.208E+02 -.942E+01   -.888E+00 0.651E-01 -.193E+00   -.829E-03 0.455E-02 -.745E-02
   -.109E+02 -.176E+03 -.121E+02   0.106E+02 0.177E+03 0.114E+02   0.214E+00 -.425E+00 0.693E+00   0.712E-03 -.109E-02 -.162E-01
   -.555E+01 0.197E+02 0.175E+02   0.484E+01 -.198E+02 -.176E+02   0.711E+00 0.721E-01 0.147E+00   0.551E-03 0.332E-02 -.627E-02
   -.330E+02 -.101E+03 0.248E+01   0.326E+02 0.101E+03 -.301E+01   0.462E+00 0.210E+00 0.539E+00   -.409E-03 0.101E-01 -.678E-02
 -----------------------------------------------------------------------------------------------
   -.251E+00 0.329E-01 -.210E+00   -.128E-12 0.711E-13 0.119E-12   0.252E+00 0.676E-01 0.251E+00   -.137E-02 -.103E+00 -.383E-01
 
 
 POSITION                                       TOTAL-FORCE (eV/Angst)
 -----------------------------------------------------------------------------------
      6.95017     10.07203      3.35234        -0.004585      0.004757     -0.001608
      3.50141     10.12836      3.54755        -0.003935     -0.002957      0.007333
      5.19017      8.53465      1.90649        -0.000480     -0.001121      0.002881
      3.61424      3.54906      3.54790        -0.002322      0.002366      0.003856
      1.91698      5.17378      8.59821         0.000924     -0.001301     -0.003966
      6.83226      3.63391      3.32876         0.000737     -0.003269     -0.003048
      0.16868      3.49816      6.95083         0.002814     -0.001504      0.004384
      1.77808      8.55582      5.00066         0.005017     -0.001587      0.001460
      3.44311      3.39798     10.14849         0.001954      0.002013     -0.003818
      1.69989      1.76869      8.49056         0.001495     -0.000921     -0.001109
      1.61122      1.73615      4.98871        -0.000502     -0.002746      0.002620
      1.87189      5.19291      1.73161        -0.001921     -0.001344      0.006072
      0.12176      3.47848     10.20150        -0.004872      0.004531     -0.001100
      6.81354      6.79937      0.13070        -0.002425      0.000189      0.001469
      1.84100      8.44710      1.75006        -0.002082     -0.000956      0.006304
      3.31040      0.05002      6.75653        -0.003302      0.001412     -0.001931
      5.31346      8.55604      5.20573         0.002570     -0.006103     -0.002076
      0.26452      6.83365      6.78710         0.002759      0.004601     -0.000989
      1.96877      8.38974      8.68336        -0.000573     -0.001131     -0.003380
      1.74865      1.76844      1.90031         0.003693      0.004550     -0.004288
      6.95721      0.00146      0.09620         0.000536     -0.000746     -0.001747
      5.38361      1.67417      5.14637         0.003452      0.001366     -0.000437
      5.37303      1.74246      8.43173         0.004575      0.003756     -0.000156
      3.56376      0.11797     10.23184        -0.000304     -0.004283     -0.000020
      5.12359      1.81541      1.83428        -0.008776     -0.000162     -0.000346
      5.23176      5.10211      8.46396         0.004243      0.002604     -0.001667
      3.42408      3.39940      6.79633         0.001239     -0.001679     -0.002645
      5.25951      8.56081      8.38593         0.005565     -0.002690      0.003993
      1.72344      5.06081      4.96684         0.003933     -0.002684     -0.004221
      5.12131      5.11136      1.81526        -0.002940      0.002583      0.001007
      3.76465      6.81740      0.13900         0.002083     -0.002667     -0.003529
      0.29439     10.18682      6.87582         0.002151      0.000528      0.002556
      3.63066      6.86395      3.50082        -0.003419     -0.000556     -0.000027
      5.28599      5.20848      5.11724        -0.000472      0.001071     -0.001511
      6.89307      6.84692      3.41604        -0.002980      0.001020     -0.001182
      3.41420      6.76269      6.68853        -0.003849      0.003060      0.000867
 -----------------------------------------------------------------------------------
    total drift:                               -0.000855     -0.002469      0.001957


--------------------------------------------------------------------------------------------------------



  FREE ENERGIE OF THE ION-ELECTRON SYSTEM (eV)
  ---------------------------------------------------
  free  energy   TOTEN  =      -356.53786209 eV

  energy  without entropy=     -356.55722743  energy(sigma->0) =     -356.54431721
 
 d Force = 0.4310070E-04[ 0.357E-04, 0.505E-04]  d Energy = 0.9095095E-04-0.479E-04
 d Force = 0.1226314E+00[ 0.122E+00, 0.123E+00]  d Ewald  =-0.3344969E+01 0.347E+01


--------------------------------------------------------------------------------------------------------


    POTLOK:  cpu time    0.0384: real time    0.0385


--------------------------------------------------------------------------------------------------------


 Conjugate gradient step on ions:
 trial-energy change:   -0.000091  1 .order   -0.000082   -0.000134   -0.000030
  (g-gl).g = 0.317E-06      g.g   = 0.597E-04  gl.gl    = 0.775E-04
 g(Force)  = 0.224E-04   g(Stress)= 0.373E-04 ortho     = 0.445E-05
 gamma     =   0.00409
 trial     =   2.25340
 opt step  =   2.90442  (harmonic =   2.90442) maximal distance =0.00041383
 next E    =  -356.537858   (d E  =  -0.00009)


--------------------------------------------------------------------------------------------------------


  
 reached required accuracy - stopping structural energy minimisation
     LOOP+:  cpu time    7.0922: real time    7.6739
    4ORBIT:  cpu time    0.0000: real time    0.0000

 total amount of memory used by VASP on root node    68938. kBytes
========================================================================

   base      :      30000. kBytes
   nonlr-proj:      10341. kBytes
   fftplans  :       2814. kBytes
   grid      :       5360. kBytes
   one-center:        124. kBytes
   wavefun   :      20299. kBytes
 
  
  
 General timing and accounting informations for this job:
 ========================================================
  
                  Total CPU time used (sec):      144.757
                            User time (sec):      144.035
                          System time (sec):        0.722
                         Elapsed time (sec):      155.162
  
                   Maximum memory used (kb):      261776.
                   Average memory used (kb):           0.
  
                          Minor page faults:        97258
                          Major page faults:           38
                 Voluntary context switches:         6394
