  32  32   0   0
  0.1719663E+02  0.8277008E-09  0.8094403E-09  0.8213717E-09  0.1500000E-15
  1.000000000000000E-004
  CAR 
 automatically generated by mexm         
     18.18339935     -1.77314971  301      8.98127375      1.00000000
     -1.773  0.0000E+00  0.0000E+00
     -1.707  0.0000E+00  0.0000E+00
     -1.640  0.0000E+00  0.0000E+00
     -1.574  0.0000E+00  0.0000E+00
     -1.507 -0.3525E-31 -0.2345E-32
     -1.441 -0.4036E-28 -0.2687E-29
     -1.374 -0.3110E-25 -0.2071E-26
     -1.307 -0.1611E-22 -0.1074E-23
     -1.241 -0.5605E-20 -0.3739E-21
     -1.174 -0.1309E-17 -0.8746E-19
     -1.108 -0.1985E-15 -0.1329E-16
     -1.041 -0.2071E-13 -0.1391E-14
     -0.975 -0.1442E-11 -0.9731E-13
     -0.908 -0.6680E-10 -0.4541E-11
     -0.842 -0.2050E-08 -0.1409E-09
     -0.775 -0.4136E-07 -0.2893E-08
     -0.709 -0.5424E-06 -0.3898E-07
     -0.642 -0.4524E-05 -0.3399E-06
     -0.576 -0.2293E-04 -0.1865E-05
     -0.509 -0.6208E-04 -0.5995E-05
     -0.443 -0.3614E-04 -0.8399E-05
     -0.376  0.2873E-03  0.1071E-04
     -0.310  0.9130E-03  0.7145E-04
     -0.243  0.1186E-02  0.1503E-03
     -0.177  0.6133E-03  0.1911E-03
     -0.110  0.2855E-03  0.2101E-03
     -0.044  0.2247E-02  0.3596E-03
      0.023  0.6088E-02  0.7646E-03
      0.089  0.7553E-02  0.1267E-02
      0.156  0.4629E-02  0.1575E-02
      0.223  0.2600E-02  0.1748E-02
      0.289  0.7152E-02  0.2224E-02
      0.356  0.1429E-01  0.3174E-02
      0.422  0.1444E-01  0.4134E-02
      0.489  0.7885E-02  0.4659E-02
      0.555  0.4733E-02  0.4974E-02
      0.622  0.7975E-02  0.5504E-02
      0.688  0.9912E-02  0.6164E-02
      0.755  0.6217E-02  0.6577E-02
      0.821  0.2159E-02  0.6721E-02
      0.888  0.2834E-02  0.6909E-02
      0.954  0.5714E-02  0.7290E-02
      1.021  0.5961E-02  0.7686E-02
      1.087  0.6330E-02  0.8107E-02
      1.154  0.1417E-01  0.9050E-02
      1.220  0.2609E-01  0.1079E-01
      1.287  0.3078E-01  0.1283E-01
      1.353  0.2944E-01  0.1479E-01
      1.420  0.3009E-01  0.1679E-01
      1.486  0.2808E-01  0.1866E-01
      1.553  0.1736E-01  0.1982E-01
      1.619  0.4946E-02  0.2014E-01
      1.686 -0.1594E-02  0.2004E-01
      1.753 -0.3313E-02  0.1982E-01
      1.819 -0.7960E-03  0.1977E-01
      1.886  0.1151E-01  0.2053E-01
      1.952  0.3309E-01  0.2273E-01
      2.019  0.4778E-01  0.2591E-01
      2.085  0.4309E-01  0.2878E-01
      2.152  0.2764E-01  0.3062E-01
      2.218  0.1751E-01  0.3178E-01
      2.285  0.2390E-01  0.3337E-01
      2.351  0.4968E-01  0.3668E-01
      2.418  0.8253E-01  0.4217E-01
      2.484  0.1006E+00  0.4886E-01
      2.551  0.9381E-01  0.5510E-01
      2.617  0.7734E-01  0.6024E-01
      2.684  0.7630E-01  0.6532E-01
      2.750  0.1008E+00  0.7202E-01
      2.817  0.1398E+00  0.8133E-01
      2.883  0.1703E+00  0.9265E-01
      2.950  0.1782E+00  0.1045E+00
      3.016  0.1721E+00  0.1160E+00
      3.083  0.1655E+00  0.1270E+00
      3.149  0.1626E+00  0.1378E+00
      3.216  0.1666E+00  0.1489E+00
      3.283  0.1824E+00  0.1610E+00
      3.349  0.2033E+00  0.1745E+00
      3.416  0.2111E+00  0.1886E+00
      3.482  0.1953E+00  0.2016E+00
      3.549  0.1612E+00  0.2123E+00
      3.615  0.1271E+00  0.2207E+00
      3.682  0.1183E+00  0.2286E+00
      3.748  0.1445E+00  0.2382E+00
      3.815  0.1836E+00  0.2504E+00
      3.881  0.2036E+00  0.2640E+00
      3.948  0.1912E+00  0.2767E+00
      4.014  0.1529E+00  0.2869E+00
      4.081  0.1157E+00  0.2946E+00
      4.147  0.1134E+00  0.3021E+00
      4.214  0.1516E+00  0.3122E+00
      4.280  0.2016E+00  0.3256E+00
      4.347  0.2291E+00  0.3408E+00
      4.413  0.2233E+00  0.3557E+00
      4.480  0.2042E+00  0.3693E+00
      4.546  0.1982E+00  0.3825E+00
      4.613  0.2088E+00  0.3963E+00
      4.679  0.2218E+00  0.4111E+00
      4.746  0.2273E+00  0.4262E+00
      4.813  0.2247E+00  0.4412E+00
      4.879  0.2175E+00  0.4556E+00
      4.946  0.2130E+00  0.4698E+00
      5.012  0.2211E+00  0.4845E+00
      5.079  0.2425E+00  0.5006E+00
      5.145  0.2625E+00  0.5181E+00
      5.212  0.2663E+00  0.5358E+00
      5.278  0.2550E+00  0.5528E+00
      5.345  0.2383E+00  0.5686E+00
      5.411  0.2243E+00  0.5836E+00
      5.478  0.2160E+00  0.5979E+00
      5.544  0.2112E+00  0.6120E+00
      5.611  0.2089E+00  0.6259E+00
      5.677  0.2086E+00  0.6398E+00
      5.744  0.2071E+00  0.6535E+00
      5.810  0.1999E+00  0.6668E+00
      5.877  0.1888E+00  0.6794E+00
      5.943  0.1852E+00  0.6917E+00
      6.010  0.1954E+00  0.7047E+00
      6.076  0.2079E+00  0.7185E+00
      6.143  0.2097E+00  0.7325E+00
      6.209  0.2022E+00  0.7459E+00
      6.276  0.1936E+00  0.7588E+00
      6.343  0.1864E+00  0.7712E+00
      6.409  0.1774E+00  0.7830E+00
      6.476  0.1676E+00  0.7942E+00
      6.542  0.1655E+00  0.8052E+00
      6.609  0.1740E+00  0.8168E+00
      6.675  0.1835E+00  0.8290E+00
      6.742  0.1860E+00  0.8413E+00
      6.808  0.1875E+00  0.8538E+00
      6.875  0.1924E+00  0.8666E+00
      6.941  0.1900E+00  0.8792E+00
      7.008  0.1724E+00  0.8907E+00
      7.074  0.1512E+00  0.9008E+00
      7.141  0.1411E+00  0.9102E+00
      7.207  0.1426E+00  0.9196E+00
      7.274  0.1486E+00  0.9295E+00
      7.340  0.1525E+00  0.9397E+00
      7.407  0.1496E+00  0.9496E+00
      7.473  0.1416E+00  0.9590E+00
      7.540  0.1338E+00  0.9679E+00
      7.606  0.1299E+00  0.9766E+00
      7.673  0.1290E+00  0.9852E+00
      7.739  0.1292E+00  0.9938E+00
      7.806  0.1319E+00  0.1003E+01
      7.873  0.1359E+00  0.1012E+01
      7.939  0.1374E+00  0.1021E+01
      8.006  0.1364E+00  0.1030E+01
      8.072  0.1354E+00  0.1039E+01
      8.139  0.1366E+00  0.1048E+01
      8.205  0.1418E+00  0.1057E+01
      8.272  0.1485E+00  0.1067E+01
      8.338  0.1502E+00  0.1077E+01
      8.405  0.1430E+00  0.1087E+01
      8.471  0.1294E+00  0.1095E+01
      8.538  0.1150E+00  0.1103E+01
      8.604  0.1026E+00  0.1110E+01
      8.671  0.9247E-01  0.1116E+01
      8.737  0.8588E-01  0.1122E+01
      8.804  0.8526E-01  0.1127E+01
      8.870  0.8996E-01  0.1133E+01
      8.937  0.9286E-01  0.1139E+01
      9.003  0.8377E-01  0.1145E+01
      9.070  0.5977E-01  0.1149E+01
      9.136  0.3145E-01  0.1151E+01
      9.203  0.1441E-01  0.1152E+01
      9.269  0.1329E-01  0.1153E+01
      9.336  0.1806E-01  0.1154E+01
      9.403  0.1697E-01  0.1155E+01
      9.469  0.9805E-02  0.1156E+01
      9.536  0.6088E-02  0.1156E+01
      9.602  0.1334E-01  0.1157E+01
      9.669  0.2953E-01  0.1159E+01
      9.735  0.4683E-01  0.1162E+01
      9.802  0.6063E-01  0.1166E+01
      9.868  0.6782E-01  0.1171E+01
      9.935  0.6363E-01  0.1175E+01
     10.001  0.5062E-01  0.1178E+01
     10.068  0.3776E-01  0.1181E+01
     10.134  0.2930E-01  0.1183E+01
     10.201  0.2422E-01  0.1185E+01
     10.267  0.2134E-01  0.1186E+01
     10.334  0.2169E-01  0.1187E+01
     10.400  0.2668E-01  0.1189E+01
     10.467  0.3191E-01  0.1191E+01
     10.533  0.2938E-01  0.1193E+01
     10.600  0.1880E-01  0.1194E+01
     10.666  0.7899E-02  0.1195E+01
     10.733  0.5500E-02  0.1195E+01
     10.799  0.1872E-01  0.1197E+01
     10.866  0.4416E-01  0.1200E+01
     10.933  0.6382E-01  0.1204E+01
     10.999  0.6790E-01  0.1208E+01
     11.066  0.6613E-01  0.1213E+01
     11.132  0.6323E-01  0.1217E+01
     11.199  0.5357E-01  0.1221E+01
     11.265  0.3834E-01  0.1223E+01
     11.332  0.2271E-01  0.1225E+01
     11.398  0.9205E-02  0.1225E+01
     11.465  0.2027E-02  0.1225E+01
     11.531  0.3852E-02  0.1226E+01
     11.598  0.1112E-01  0.1226E+01
     11.664  0.1853E-01  0.1228E+01
     11.731  0.2242E-01  0.1229E+01
     11.797  0.2076E-01  0.1230E+01
     11.864  0.1695E-01  0.1232E+01
     11.930  0.1776E-01  0.1233E+01
     11.997  0.2494E-01  0.1234E+01
     12.063  0.3500E-01  0.1237E+01
     12.130  0.4313E-01  0.1240E+01
     12.196  0.4540E-01  0.1243E+01
     12.263  0.4058E-01  0.1245E+01
     12.329  0.3139E-01  0.1247E+01
     12.396  0.2245E-01  0.1249E+01
     12.463  0.1617E-01  0.1250E+01
     12.529  0.1429E-01  0.1251E+01
     12.596  0.2190E-01  0.1252E+01
     12.662  0.4132E-01  0.1255E+01
     12.729  0.6202E-01  0.1259E+01
     12.795  0.6682E-01  0.1264E+01
     12.862  0.5248E-01  0.1267E+01
     12.928  0.3459E-01  0.1269E+01
     12.995  0.2771E-01  0.1271E+01
     13.061  0.3015E-01  0.1273E+01
     13.128  0.3203E-01  0.1275E+01
     13.194  0.2882E-01  0.1277E+01
     13.261  0.2256E-01  0.1279E+01
     13.327  0.1703E-01  0.1280E+01
     13.394  0.1348E-01  0.1281E+01
     13.460  0.1026E-01  0.1282E+01
     13.527  0.7845E-02  0.1282E+01
     13.593  0.1227E-01  0.1283E+01
     13.660  0.2901E-01  0.1285E+01
     13.726  0.5672E-01  0.1289E+01
     13.793  0.8594E-01  0.1294E+01
     13.859  0.9712E-01  0.1301E+01
     13.926  0.7675E-01  0.1306E+01
     13.993  0.3949E-01  0.1309E+01
     14.059  0.1144E-01  0.1309E+01
     14.126  0.6607E-03  0.1309E+01
     14.192  0.1839E-02  0.1309E+01
     14.259  0.1175E-01  0.1310E+01
     14.325  0.2625E-01  0.1312E+01
     14.392  0.3738E-01  0.1314E+01
     14.458  0.4526E-01  0.1317E+01
     14.525  0.5727E-01  0.1321E+01
     14.591  0.7213E-01  0.1326E+01
     14.658  0.8088E-01  0.1331E+01
     14.724  0.7837E-01  0.1337E+01
     14.791  0.6571E-01  0.1341E+01
     14.857  0.4687E-01  0.1344E+01
     14.924  0.2668E-01  0.1346E+01
     14.990  0.1127E-01  0.1347E+01
     15.057  0.3794E-02  0.1347E+01
     15.123  0.1659E-02  0.1347E+01
     15.190  0.2331E-02  0.1347E+01
     15.256  0.5648E-02  0.1348E+01
     15.323  0.8950E-02  0.1348E+01
     15.389  0.9148E-02  0.1349E+01
     15.456  0.1006E-01  0.1349E+01
     15.523  0.1745E-01  0.1351E+01
     15.589  0.2658E-01  0.1352E+01
     15.656  0.2630E-01  0.1354E+01
     15.722  0.1685E-01  0.1355E+01
     15.789  0.1252E-01  0.1356E+01
     15.855  0.2406E-01  0.1358E+01
     15.922  0.4454E-01  0.1361E+01
     15.988  0.5781E-01  0.1365E+01
     16.055  0.5637E-01  0.1368E+01
     16.121  0.4349E-01  0.1371E+01
     16.188  0.2747E-01  0.1373E+01
     16.254  0.1789E-01  0.1374E+01
     16.321  0.1838E-01  0.1375E+01
     16.387  0.2579E-01  0.1377E+01
     16.454  0.3428E-01  0.1379E+01
     16.520  0.3683E-01  0.1382E+01
     16.587  0.3143E-01  0.1384E+01
     16.653  0.2267E-01  0.1385E+01
     16.720  0.1377E-01  0.1386E+01
     16.786  0.5654E-02  0.1387E+01
     16.853  0.5577E-03  0.1387E+01
     16.919 -0.8303E-03  0.1387E+01
     16.986 -0.5164E-03  0.1387E+01
     17.053 -0.1504E-03  0.1387E+01
     17.119 -0.2595E-04  0.1387E+01
     17.186 -0.2830E-05  0.1387E+01
     17.252 -0.2004E-06  0.1387E+01
     17.319 -0.9353E-08  0.1387E+01
     17.385 -0.2898E-09  0.1387E+01
     17.452 -0.5992E-11  0.1387E+01
     17.518 -0.8294E-13  0.1387E+01
     17.585 -0.7681E-15  0.1387E+01
     17.651 -0.4945E-17  0.1387E+01
     17.718  0.0000E+00  0.1387E+01
     17.784  0.0000E+00  0.1387E+01
     17.851  0.0000E+00  0.1387E+01
     17.917  0.0000E+00  0.1387E+01
     17.984  0.0000E+00  0.1387E+01
     18.050  0.0000E+00  0.1387E+01
     18.117  0.0000E+00  0.1387E+01
     18.183  0.0000E+00  0.1387E+01
