<?xml version="1.0" encoding="ISO-8859-1"?>
<modeling>
 <generator>
  <i name="program" type="string">vasp </i>
  <i name="version" type="string">5.4.1  </i>
  <i name="subversion" type="string">05Feb16 (build Jan 29 2020 16:04:39) complex                          parallel </i>
  <i name="platform" type="string">IFC91_ompi </i>
  <i name="date" type="string">2020 03 04 </i>
  <i name="time" type="string">04:52:58 </i>
 </generator>
 <incar>
  <i type="string" name="SYSTEM"> automatically generated by mexm</i>
  <i type="int" name="ISTART">     0</i>
  <i type="string" name="PREC">accurate               ! avoid wrap aro</i>
  <i type="string" name="ALGO"> Fast                   ! blocked Davids</i>
  <i type="int" name="ISPIN">     1</i>
  <i type="int" name="ICHARG">     2</i>
  <i type="int" name="NELM">    70</i>
  <i type="int" name="IBRION">     2</i>
  <i name="EDIFF">      0.00001000</i>
  <i name="EDIFFG">     -0.01000000</i>
  <i type="int" name="NSW">   300</i>
  <i type="int" name="ISIF">     3</i>
  <i type="int" name="ISYM">     1</i>
  <i name="ENCUT">    300.00000000</i>
  <i name="POTIM">      0.15000000</i>
  <i type="string" name="LREAL"> Auto                  ! unpublished met</i>
  <i type="int" name="ISMEAR">     1</i>
  <i name="SIGMA">      0.15000000</i>
  <i type="logical" name="LWAVE"> F  </i>
  <i type="logical" name="LCHARG"> F  </i>
  <i type="logical" name="LVTOT"> F  </i>
  <v type="int" name="KPOINT_BSE">    -1     0     0     0</v>
  <i type="int" name="NELM">    70</i>
 </incar>
 <kpoints>
  <generation param="Gamma">
   <v type="int" name="divisions">       3        3        3 </v>
   <v name="usershift">      0.00000000       0.00000000       0.00000000 </v>
   <v name="genvec1">      0.33333333       0.00000000       0.00000000 </v>
   <v name="genvec2">      0.00000000       0.33333333      -0.00000000 </v>
   <v name="genvec3">     -0.00000000       0.00000000       0.33333333 </v>
   <v name="shift">      0.00000000       0.00000000       0.00000000 </v>
  </generation>
  <varray name="kpointlist" >
   <v>       0.00000000       0.00000000       0.00000000 </v>
   <v>       0.33333333      -0.00000000      -0.00000000 </v>
   <v>      -0.00000000       0.33333333       0.00000000 </v>
   <v>       0.33333333       0.33333333       0.00000000 </v>
   <v>      -0.33333333       0.33333333       0.00000000 </v>
   <v>       0.00000000       0.00000000       0.33333333 </v>
   <v>       0.33333333       0.00000000       0.33333333 </v>
   <v>      -0.33333333       0.00000000       0.33333333 </v>
   <v>      -0.00000000       0.33333333       0.33333333 </v>
   <v>       0.33333333       0.33333333       0.33333333 </v>
   <v>      -0.33333333       0.33333333       0.33333333 </v>
   <v>       0.00000000      -0.33333333       0.33333333 </v>
   <v>       0.33333333      -0.33333333       0.33333333 </v>
   <v>      -0.33333333      -0.33333333       0.33333333 </v>
  </varray>
  <varray name="weights" >
   <v>       0.03703704 </v>
   <v>       0.07407407 </v>
   <v>       0.07407407 </v>
   <v>       0.07407407 </v>
   <v>       0.07407407 </v>
   <v>       0.07407407 </v>
   <v>       0.07407407 </v>
   <v>       0.07407407 </v>
   <v>       0.07407407 </v>
   <v>       0.07407407 </v>
   <v>       0.07407407 </v>
   <v>       0.07407407 </v>
   <v>       0.07407407 </v>
   <v>       0.07407407 </v>
  </varray>
 </kpoints>
 <parameters>
  <separator name="general" >
   <i type="string" name="SYSTEM">automatically generated by mexm</i>
   <i type="logical" name="LCOMPAT"> F  </i>
  </separator>
  <separator name="electronic" >
   <i type="string" name="PREC">accura</i>
   <i name="ENMAX">    300.00000000</i>
   <i name="ENAUG">    358.96600000</i>
   <i name="EDIFF">      0.00001000</i>
   <i type="int" name="IALGO">    68</i>
   <i type="int" name="IWAVPR">    11</i>
   <i type="int" name="NBANDS">   208</i>
   <i name="NELECT">    343.00000000</i>
   <i type="int" name="TURBO">     0</i>
   <i type="int" name="IRESTART">     0</i>
   <i type="int" name="NREBOOT">     0</i>
   <i type="int" name="NMIN">     0</i>
   <i name="EREF">      0.00000000</i>
   <separator name="electronic smearing" >
    <i type="int" name="ISMEAR">     1</i>
    <i name="SIGMA">      0.15000000</i>
    <i name="KSPACING">      0.50000000</i>
    <i type="logical" name="KGAMMA"> T  </i>
   </separator>
   <separator name="electronic projectors" >
    <i type="logical" name="LREAL"> T  </i>
    <v name="ROPT">     -0.00025000     -0.00025000</v>
    <i type="int" name="LMAXPAW">  -100</i>
    <i type="int" name="LMAXMIX">     2</i>
    <i type="logical" name="NLSPLINE"> F  </i>
   </separator>
   <separator name="electronic startup" >
    <i type="int" name="ISTART">     0</i>
    <i type="int" name="ICHARG">     2</i>
    <i type="int" name="INIWAV">     1</i>
   </separator>
   <separator name="electronic spin" >
    <i type="int" name="ISPIN">     1</i>
    <i type="logical" name="LNONCOLLINEAR"> F  </i>
    <v name="MAGMOM">      1.00000000      1.00000000      1.00000000      1.00000000      1.00000000      1.00000000      1.00000000      1.00000000      1.00000000      1.00000000      1.00000000      1.00000000      1.00000000      1.00000000      1.00000000      1.00000000      1.00000000      1.00000000      1.00000000      1.00000000
      1.00000000      1.00000000      1.00000000      1.00000000      1.00000000      1.00000000      1.00000000      1.00000000      1.00000000      1.00000000      1.00000000      1.00000000</v>
    <i name="NUPDOWN">     -1.00000000</i>
    <i type="logical" name="LSORBIT"> F  </i>
    <v name="SAXIS">      0.00000000      0.00000000      1.00000000</v>
    <i type="logical" name="LSPIRAL"> F  </i>
    <v name="QSPIRAL">      0.00000000      0.00000000      0.00000000</v>
    <i type="logical" name="LZEROZ"> F  </i>
   </separator>
   <separator name="electronic exchange-correlation" >
    <i type="logical" name="LASPH"> F  </i>
    <i type="logical" name="LMETAGGA"> F  </i>
   </separator>
   <separator name="electronic convergence" >
    <i type="int" name="NELM">    70</i>
    <i type="int" name="NELMDL">    -5</i>
    <i type="int" name="NELMIN">     2</i>
    <i name="ENINI">    300.00000000</i>
    <separator name="electronic convergence detail" >
     <i type="logical" name="LDIAG"> T  </i>
     <i type="logical" name="LSUBROT"> F  </i>
     <i name="WEIMIN">      0.00100000</i>
     <i name="EBREAK">      0.00000001</i>
     <i name="DEPER">      0.30000000</i>
     <i type="int" name="NRMM">     4</i>
     <i name="TIME">      0.40000000</i>
    </separator>
   </separator>
   <separator name="electronic mixer" >
    <i name="AMIX">      0.40000000</i>
    <i name="BMIX">      1.00000000</i>
    <i name="AMIN">      0.10000000</i>
    <i name="AMIX_MAG">      1.60000000</i>
    <i name="BMIX_MAG">      1.00000000</i>
    <separator name="electronic mixer details" >
     <i type="int" name="IMIX">     4</i>
     <i type="logical" name="MIXFIRST"> F  </i>
     <i type="int" name="MAXMIX">   -45</i>
     <i name="WC">    100.00000000</i>
     <i type="int" name="INIMIX">     1</i>
     <i type="int" name="MIXPRE">     1</i>
     <i type="int" name="MREMOVE">     5</i>
    </separator>
   </separator>
   <separator name="electronic dipolcorrection" >
    <i type="logical" name="LDIPOL"> F  </i>
    <i type="logical" name="LMONO"> F  </i>
    <i type="int" name="IDIPOL">     0</i>
    <i name="EPSILON">      1.00000000</i>
    <v name="DIPOL">   -100.00000000   -100.00000000   -100.00000000</v>
    <i name="EFIELD">      0.00000000</i>
   </separator>
  </separator>
  <separator name="grids" >
   <i type="int" name="NGX">    48</i>
   <i type="int" name="NGY">    48</i>
   <i type="int" name="NGZ">    48</i>
   <i type="int" name="NGXF">    96</i>
   <i type="int" name="NGYF">    96</i>
   <i type="int" name="NGZF">    96</i>
   <i type="logical" name="ADDGRID"> F  </i>
  </separator>
  <separator name="ionic" >
   <i type="int" name="NSW">   300</i>
   <i type="int" name="IBRION">     2</i>
   <i type="int" name="ISIF">     3</i>
   <i name="PSTRESS">      0.00000000</i>
   <i name="EDIFFG">     -0.01000000</i>
   <i type="int" name="NFREE">     1</i>
   <i name="POTIM">      0.15000000</i>
   <i name="SMASS">     -3.00000000</i>
   <i name="SCALEE">      1.00000000</i>
  </separator>
  <separator name="ionic md" >
   <i name="TEBEG">      0.00010000</i>
   <i name="TEEND">      0.00010000</i>
   <i type="int" name="NBLOCK">     1</i>
   <i type="int" name="KBLOCK">   300</i>
   <i type="int" name="NPACO">   256</i>
   <i name="APACO">     16.00000000</i>
  </separator>
  <separator name="symmetry" >
   <i type="int" name="ISYM">     1</i>
   <i name="SYMPREC">      0.00001000</i>
  </separator>
  <separator name="dos" >
   <i type="logical" name="LORBIT"> F  </i>
   <v name="RWIGS">     -1.00000000     -1.00000000</v>
   <i type="int" name="NEDOS">   301</i>
   <i name="EMIN">     10.00000000</i>
   <i name="EMAX">    -10.00000000</i>
   <i name="EFERMI">      0.00000000</i>
  </separator>
  <separator name="writing" >
   <i type="int" name="NWRITE">     2</i>
   <i type="logical" name="LWAVE"> F  </i>
   <i type="logical" name="LCHARG"> F  </i>
   <i type="logical" name="LPARD"> F  </i>
   <i type="logical" name="LVTOT"> F  </i>
   <i type="logical" name="LVHAR"> F  </i>
   <i type="logical" name="LELF"> F  </i>
   <i type="logical" name="LOPTICS"> F  </i>
   <v name="STM">      0.00000000      0.00000000      0.00000000      0.00000000      0.00000000      0.00000000      0.00000000</v>
  </separator>
  <separator name="performance" >
   <i type="int" name="NPAR">     4</i>
   <i type="int" name="NSIM">     4</i>
   <i type="int" name="NBLK">    -1</i>
   <i type="logical" name="LPLANE"> T  </i>
   <i type="logical" name="LSCALAPACK"> T  </i>
   <i type="logical" name="LSCAAWARE"> F  </i>
   <i type="logical" name="LSCALU"> F  </i>
   <i type="logical" name="LASYNC"> F  </i>
   <i type="logical" name="LORBITALREAL"> F  </i>
  </separator>
  <separator name="miscellaneous" >
   <i type="int" name="IDIOT">     3</i>
   <i type="logical" name="LMUSIC"> F  </i>
   <v name="POMASS">    196.96600000    195.08000000</v>
   <v name="DARWINR">      0.00000000      0.00000000</v>
   <v name="DARWINV">      1.00000000      1.00000000</v>
   <i type="logical" name="LCORR"> T  </i>
  </separator>
  <i type="logical" name="GGA_COMPAT"> T  </i>
  <i type="logical" name="LBERRY"> F  </i>
  <i type="int" name="ICORELEVEL">     0</i>
  <i type="logical" name="LDAU"> F  </i>
  <i type="int" name="I_CONSTRAINED_M">     0</i>
  <separator name="electronic exchange-correlation" >
   <i type="string" name="GGA">--</i>
   <i type="int" name="VOSKOWN">     0</i>
   <i type="logical" name="LHFCALC"> F  </i>
   <i type="string" name="PRECFOCK"></i>
   <i type="logical" name="LSYMGRAD"> F  </i>
   <i type="logical" name="LHFONE"> F  </i>
   <i type="logical" name="LRHFCALC"> F  </i>
   <i type="logical" name="LTHOMAS"> F  </i>
   <i type="logical" name="LMODELHF"> F  </i>
   <i name="ENCUT4O">     -1.00000000</i>
   <i type="int" name="EXXOEP">     0</i>
   <i type="int" name="FOURORBIT">     0</i>
   <i name="AEXX">      0.00000000</i>
   <i name="HFALPHA">      0.00000000</i>
   <i name="MCALPHA">      0.00000000</i>
   <i name="ALDAX">      1.00000000</i>
   <i name="AGGAX">      1.00000000</i>
   <i name="ALDAC">      1.00000000</i>
   <i name="AGGAC">      1.00000000</i>
   <i type="int" name="NKREDX">     1</i>
   <i type="int" name="NKREDY">     1</i>
   <i type="int" name="NKREDZ">     1</i>
   <i type="logical" name="SHIFTRED"> F  </i>
   <i type="logical" name="ODDONLY"> F  </i>
   <i type="logical" name="EVENONLY"> F  </i>
   <i type="int" name="LMAXFOCK">     0</i>
   <i type="int" name="NMAXFOCKAE">     0</i>
   <i type="logical" name="LFOCKAEDFT"> F  </i>
   <i name="HFSCREEN">      0.00000000</i>
   <i name="HFSCREENC">      0.00000000</i>
   <i type="int" name="NBANDSGWLOW">     0</i>
  </separator>
  <separator name="vdW DFT" >
   <i type="logical" name="LUSE_VDW"> F  </i>
   <i name="Zab_VDW">     -0.84910000</i>
   <i name="PARAM1">      0.12340000</i>
   <i name="PARAM2">      1.00000000</i>
   <i name="PARAM3">      0.00000000</i>
  </separator>
  <separator name="model GW" >
   <i type="int" name="MODEL_GW">     0</i>
   <i name="MODEL_EPS0">     10.31797952</i>
   <i name="MODEL_ALPHA">      1.00000000</i>
  </separator>
  <separator name="linear response parameters" >
   <i type="logical" name="LEPSILON"> F  </i>
   <i type="logical" name="LRPA"> F  </i>
   <i type="logical" name="LNABLA"> F  </i>
   <i type="logical" name="LVEL"> F  </i>
   <i type="int" name="KINTER">     0</i>
   <i name="CSHIFT">      0.10000000</i>
   <i name="OMEGAMAX">     -1.00000000</i>
   <i name="DEG_THRESHOLD">      0.00200000</i>
  </separator>
  <separator name="orbital magnetization" >
   <i type="logical" name="NUCIND"> F  </i>
   <v name="MAGPOS">      0.00000000      0.00000000      0.00000000</v>
   <i type="logical" name="LNICSALL"> T  </i>
   <i type="logical" name="ORBITALMAG"> F  </i>
   <i type="logical" name="LMAGBLOCH"> F  </i>
   <i type="logical" name="LCHIMAG"> F  </i>
   <i type="logical" name="LGAUGE"> T  </i>
   <i type="int" name="MAGATOM">     0</i>
   <v name="MAGDIPOL">      0.00000000      0.00000000      0.00000000</v>
   <v name="AVECCONST">      0.00000000      0.00000000      0.00000000</v>
  </separator>
  <separator name="response functions" >
   <i type="logical" name="LADDER"> F  </i>
   <i type="logical" name="LFXC"> F  </i>
   <i type="logical" name="LHARTREE"> T  </i>
   <i type="int" name="IBSE">     0</i>
   <v type="int" name="KPOINT">    -1     0     0     0</v>
   <i type="logical" name="LTCTE"> F  </i>
   <i type="logical" name="LTETE"> F  </i>
   <i type="logical" name="LTRIPLET"> F  </i>
   <i type="logical" name="LFXCEPS"> F  </i>
   <i type="logical" name="LFXHEG"> F  </i>
   <i type="int" name="NATURALO">     0</i>
   <i type="logical" name="L2ORDER"> F  </i>
   <i type="logical" name="LUSEW"> F  </i>
   <i name="ENCUTGW">     -2.00000000</i>
   <i name="ENCUTGWSOFT">     -2.00000000</i>
   <i name="ENCUTLF">     -1.00000000</i>
   <i type="int" name="LMAXMP2">    -1</i>
   <i name="SCISSOR">      0.00000000</i>
   <i type="int" name="NOMEGA">     0</i>
   <i type="int" name="NOMEGAR">     0</i>
   <i type="int" name="NBANDSGW">    -1</i>
   <i type="int" name="NBANDSO">    -1</i>
   <i type="int" name="NBANDSV">    -1</i>
   <i type="int" name="NELM">    70</i>
   <i type="int" name="NELMHF">     1</i>
   <i type="int" name="DIM">     3</i>
   <i type="int" name="ANTIRES">     0</i>
   <i name="OMEGAMAX">    -30.00000000</i>
   <i name="OMEGAMIN">    -30.00000000</i>
   <i name="OMEGATL">   -200.00000000</i>
   <i type="int" name="OMEGAGRID">     0</i>
   <i name="CSHIFT">     -0.10000000</i>
   <i type="logical" name="SELFENERGY"> F  </i>
   <i type="logical" name="LSPECTRAL"> F  </i>
   <i type="logical" name="LSPECTRALGW"> F  </i>
   <i type="logical" name="LSINGLES"> F  </i>
   <i type="logical" name="LFERMIGW"> F  </i>
   <i type="logical" name="ODDONLYGW"> F  </i>
   <i type="logical" name="EVENONLYGW"> F  </i>
   <i type="int" name="NKREDLFX">     1</i>
   <i type="int" name="NKREDLFY">     1</i>
   <i type="int" name="NKREDLFZ">     1</i>
   <i type="int" name="MAXMEM">  1800</i>
   <i type="int" name="TELESCOPE">     0</i>
   <i type="int" name="TAUPAR">     1</i>
   <i type="int" name="OMEGAPAR">    -1</i>
   <i name="LAMBDA">      1.00000000</i>
  </separator>
  <separator name="External order field" >
   <i name="OFIELD_KAPPA">      0.00000000</i>
   <v name="OFIELD_K">      0.00000000      0.00000000      0.00000000</v>
   <i name="OFIELD_Q6_NEAR">      0.00000000</i>
   <i name="OFIELD_Q6_FAR">      0.00000000</i>
   <i name="OFIELD_A">      0.00000000</i>
  </separator>
 </parameters>
 <atominfo>
  <atoms>      32 </atoms>
  <types>       2 </types>
  <array name="atoms" >
   <dimension dim="1">ion</dimension>
   <field type="string">element</field>
   <field type="int">atomtype</field>
   <set>
    <rc><c>Au</c><c>   1</c></rc>
    <rc><c>Au</c><c>   1</c></rc>
    <rc><c>Au</c><c>   1</c></rc>
    <rc><c>Au</c><c>   1</c></rc>
    <rc><c>Au</c><c>   1</c></rc>
    <rc><c>Au</c><c>   1</c></rc>
    <rc><c>Au</c><c>   1</c></rc>
    <rc><c>Au</c><c>   1</c></rc>
    <rc><c>Au</c><c>   1</c></rc>
    <rc><c>Au</c><c>   1</c></rc>
    <rc><c>Au</c><c>   1</c></rc>
    <rc><c>Au</c><c>   1</c></rc>
    <rc><c>Au</c><c>   1</c></rc>
    <rc><c>Au</c><c>   1</c></rc>
    <rc><c>Au</c><c>   1</c></rc>
    <rc><c>Au</c><c>   1</c></rc>
    <rc><c>Au</c><c>   1</c></rc>
    <rc><c>Au</c><c>   1</c></rc>
    <rc><c>Au</c><c>   1</c></rc>
    <rc><c>Au</c><c>   1</c></rc>
    <rc><c>Au</c><c>   1</c></rc>
    <rc><c>Au</c><c>   1</c></rc>
    <rc><c>Au</c><c>   1</c></rc>
    <rc><c>Pt</c><c>   2</c></rc>
    <rc><c>Pt</c><c>   2</c></rc>
    <rc><c>Pt</c><c>   2</c></rc>
    <rc><c>Pt</c><c>   2</c></rc>
    <rc><c>Pt</c><c>   2</c></rc>
    <rc><c>Pt</c><c>   2</c></rc>
    <rc><c>Pt</c><c>   2</c></rc>
    <rc><c>Pt</c><c>   2</c></rc>
    <rc><c>Pt</c><c>   2</c></rc>
   </set>
  </array>
  <array name="atomtypes" >
   <dimension dim="1">type</dimension>
   <field type="int">atomspertype</field>
   <field type="string">element</field>
   <field>mass</field>
   <field>valence</field>
   <field type="string">pseudopotential</field>
   <set>
    <rc><c>  23</c><c>Au</c><c>    196.96600000</c><c>     11.00000000</c><c>  PAW_PBE Au 04Oct2007                  </c></rc>
    <rc><c>   9</c><c>Pt</c><c>    195.08000000</c><c>     10.00000000</c><c>  PAW_PBE Pt 04Feb2005                  </c></rc>
   </set>
  </array>
 </atominfo>
 <structure name="initialpos" >
  <crystal>
   <varray name="basis" >
    <v>       8.27698800       0.00518600       0.01743000 </v>
    <v>       0.00535800       8.09440100      -0.00302900 </v>
    <v>       0.01830300      -0.00294800       8.21369600 </v>
   </varray>
   <i name="volume">    550.29224103 </i>
   <varray name="rec_basis" >
    <v>       0.12081751      -0.00008007      -0.00026925 </v>
    <v>      -0.00007750       0.12354225       0.00004451 </v>
    <v>      -0.00025641       0.00004573       0.12174846 </v>
   </varray>
  </crystal>
  <varray name="positions" >
   <v>       0.00199000       0.25211900       0.75016200 </v>
   <v>       0.49798800       0.50192500       0.50242000 </v>
   <v>       0.00081200       0.99781200       0.49666500 </v>
   <v>       0.74848000       0.75210000       0.49810900 </v>
   <v>       0.25266200       0.99793400       0.75042900 </v>
   <v>       0.74731200       0.24984100       0.00153400 </v>
   <v>       0.49946000       0.24736100       0.25005400 </v>
   <v>       0.74717300       0.50211700       0.75106900 </v>
   <v>       0.00227200       0.50318500       0.00139900 </v>
   <v>       0.74846500       0.75093600       0.00135700 </v>
   <v>       0.00315200       0.74928100       0.75146100 </v>
   <v>       0.00196500       0.50248100       0.49888300 </v>
   <v>       0.25177100       0.25110800       0.00080100 </v>
   <v>       0.49862800       0.75112200       0.24866800 </v>
   <v>       0.25084700       0.50248500       0.24815100 </v>
   <v>       0.25208100       0.24769300       0.49958200 </v>
   <v>       0.74685800       0.99765600       0.74916900 </v>
   <v>       0.74921000       0.50161300       0.24858300 </v>
   <v>       0.00060500       0.24697100       0.25010200 </v>
   <v>       0.74796600       0.24649200       0.49844900 </v>
   <v>       0.00176600       0.99794900       0.00272000 </v>
   <v>       0.49844500       0.25057300       0.74995200 </v>
   <v>       0.49831700       0.99747800       0.00140900 </v>
   <v>       0.49973400       0.99632800       0.49864900 </v>
   <v>       0.49559100       0.50467300       0.99607400 </v>
   <v>       0.25110800       0.99622000       0.24870800 </v>
   <v>       0.25234700       0.74894900       0.00006900 </v>
   <v>       0.49544700       0.74853200       0.75299700 </v>
   <v>       0.00328900       0.75396700       0.24687500 </v>
   <v>       0.74944900       0.99757700       0.25154200 </v>
   <v>       0.25310600       0.50384300       0.75429800 </v>
   <v>       0.25170000       0.75167600       0.49965800 </v>
  </varray>
 </structure>
 <calculation>
  <scstep>
   <time name="dav">    0.77    0.79</time>
   <time name="total">    0.81    0.82</time>
   <energy>
    <i name="alphaZ">   2051.30171757 </i>
    <i name="ewald"> -29643.30285432 </i>
    <i name="hartreedc">  -3658.01617648 </i>
    <i name="XCdc">    389.17857943 </i>
    <i name="pawpsdc">  26369.35439597 </i>
    <i name="pawaedc"> -25583.79575579 </i>
    <i name="eentropy">      0.00329825 </i>
    <i name="bandstr">   3901.88054052 </i>
    <i name="atom">  27860.63297251 </i>
    <i name="e_fr_energy">   1687.23671765 </i>
    <i name="e_wo_entrp">   1687.23341940 </i>
    <i name="e_0_energy">   1687.23561823 </i>
   </energy>
  </scstep>
  <scstep>
   <time name="dav">    0.78    0.78</time>
   <time name="total">    0.78    0.80</time>
   <energy>
    <i name="e_fr_energy">    -65.57173122 </i>
    <i name="e_wo_entrp">    -65.57105240 </i>
    <i name="e_0_energy">    -65.57150495 </i>
   </energy>
  </scstep>
  <scstep>
   <time name="dav">    0.90    0.91</time>
   <time name="total">    0.94    0.95</time>
   <energy>
    <i name="e_fr_energy">   -137.22190234 </i>
    <i name="e_wo_entrp">   -137.19653799 </i>
    <i name="e_0_energy">   -137.21344756 </i>
   </energy>
  </scstep>
  <scstep>
   <time name="dav">    0.83    0.87</time>
   <time name="total">    0.84    0.88</time>
   <energy>
    <i name="e_fr_energy">   -138.36129222 </i>
    <i name="e_wo_entrp">   -138.33571704 </i>
    <i name="e_0_energy">   -138.35276716 </i>
   </energy>
  </scstep>
  <scstep>
   <time name="dav">    0.81    0.88</time>
   <time name="total">    0.88    0.96</time>
   <energy>
    <i name="e_fr_energy">   -138.38042975 </i>
    <i name="e_wo_entrp">   -138.35484369 </i>
    <i name="e_0_energy">   -138.37190107 </i>
   </energy>
  </scstep>
  <scstep>
   <time name="diag">    0.13    0.14</time>
   <time name="diis">    0.45    0.45</time>
   <time name="orth">    0.01    0.01</time>
   <time name="total">    0.64    0.65</time>
   <energy>
    <i name="e_fr_energy">   -130.39150026 </i>
    <i name="e_wo_entrp">   -130.36713415 </i>
    <i name="e_0_energy">   -130.38337822 </i>
   </energy>
  </scstep>
  <scstep>
   <time name="diag">    0.08    0.08</time>
   <time name="diis">    0.40    0.40</time>
   <time name="orth">    0.01    0.01</time>
   <time name="total">    0.55    0.56</time>
   <energy>
    <i name="e_fr_energy">   -131.14650061 </i>
    <i name="e_wo_entrp">   -131.17245742 </i>
    <i name="e_0_energy">   -131.15515288 </i>
   </energy>
  </scstep>
  <scstep>
   <time name="diag">    0.07    0.07</time>
   <time name="diis">    0.40    0.41</time>
   <time name="orth">    0.01    0.01</time>
   <time name="total">    0.54    0.55</time>
   <energy>
    <i name="e_fr_energy">   -128.39395958 </i>
    <i name="e_wo_entrp">   -128.37298517 </i>
    <i name="e_0_energy">   -128.38696811 </i>
   </energy>
  </scstep>
  <scstep>
   <time name="diag">    0.07    0.07</time>
   <time name="diis">    0.42    0.44</time>
   <time name="orth">    0.01    0.02</time>
   <time name="total">    0.55    0.58</time>
   <energy>
    <i name="e_fr_energy">   -128.53408227 </i>
    <i name="e_wo_entrp">   -128.50116837 </i>
    <i name="e_0_energy">   -128.52311097 </i>
   </energy>
  </scstep>
  <scstep>
   <time name="diag">    0.10    0.11</time>
   <time name="diis">    0.40    0.42</time>
   <time name="orth">    0.01    0.01</time>
   <time name="total">    0.57    0.60</time>
   <energy>
    <i name="e_fr_energy">   -128.29890613 </i>
    <i name="e_wo_entrp">   -128.27830751 </i>
    <i name="e_0_energy">   -128.29203992 </i>
   </energy>
  </scstep>
  <scstep>
   <time name="diag">    0.11    0.11</time>
   <time name="diis">    0.41    0.41</time>
   <time name="orth">    0.01    0.01</time>
   <time name="total">    0.58    0.59</time>
   <energy>
    <i name="e_fr_energy">   -128.26565274 </i>
    <i name="e_wo_entrp">   -128.23516150 </i>
    <i name="e_0_energy">   -128.25548900 </i>
   </energy>
  </scstep>
  <scstep>
   <time name="diag">    0.07    0.07</time>
   <time name="diis">    0.40    0.40</time>
   <time name="orth">    0.01    0.01</time>
   <time name="total">    0.54    0.55</time>
   <energy>
    <i name="e_fr_energy">   -128.25702991 </i>
    <i name="e_wo_entrp">   -128.22603519 </i>
    <i name="e_0_energy">   -128.24669834 </i>
   </energy>
  </scstep>
  <scstep>
   <time name="diag">    0.07    0.07</time>
   <time name="diis">    0.41    0.41</time>
   <time name="orth">    0.01    0.01</time>
   <time name="total">    0.54    0.55</time>
   <energy>
    <i name="e_fr_energy">   -128.25695158 </i>
    <i name="e_wo_entrp">   -128.22514183 </i>
    <i name="e_0_energy">   -128.24634833 </i>
   </energy>
  </scstep>
  <scstep>
   <time name="diag">    0.07    0.07</time>
   <time name="diis">    0.42    0.43</time>
   <time name="orth">    0.01    0.01</time>
   <time name="total">    0.58    0.58</time>
   <energy>
    <i name="e_fr_energy">   -128.25660120 </i>
    <i name="e_wo_entrp">   -128.22500065 </i>
    <i name="e_0_energy">   -128.24606768 </i>
   </energy>
  </scstep>
  <scstep>
   <time name="diag">    0.12    0.12</time>
   <time name="diis">    0.41    0.41</time>
   <time name="orth">    0.01    0.01</time>
   <time name="total">    0.60    0.61</time>
   <energy>
    <i name="e_fr_energy">   -128.25652810 </i>
    <i name="e_wo_entrp">   -128.22488701 </i>
    <i name="e_0_energy">   -128.24598107 </i>
   </energy>
  </scstep>
  <scstep>
   <time name="diag">    0.12    0.12</time>
   <time name="diis">    0.32    0.32</time>
   <time name="orth">    0.01    0.01</time>
   <time name="total">    0.50    0.51</time>
   <energy>
    <i name="e_fr_energy">   -128.25648013 </i>
    <i name="e_wo_entrp">   -128.22505649 </i>
    <i name="e_0_energy">   -128.24600558 </i>
   </energy>
  </scstep>
  <scstep>
   <time name="diag">    0.07    0.07</time>
   <time name="diis">    0.23    0.23</time>
   <time name="orth">    0.01    0.01</time>
   <time name="total">    0.34    0.34</time>
   <energy>
    <i name="alphaZ">   2051.30171757 </i>
    <i name="ewald"> -29643.30285432 </i>
    <i name="hartreedc">  -3316.19706591 </i>
    <i name="XCdc">    374.56037324 </i>
    <i name="pawpsdc">  31766.73318820 </i>
    <i name="pawaedc"> -31061.60055579 </i>
    <i name="eentropy">     -0.03145391 </i>
    <i name="bandstr">   1839.64720329 </i>
    <i name="atom">  27860.63297251 </i>
    <i name="e_fr_energy">   -128.25647512 </i>
    <i name="e_wo_entrp">   -128.22502121 </i>
    <i name="e_0_energy">   -128.24599048 </i>
   </energy>
  </scstep>
  <structure>
   <crystal>
    <varray name="basis" >
     <v>       8.27698800       0.00518600       0.01743000 </v>
     <v>       0.00535800       8.09440100      -0.00302900 </v>
     <v>       0.01830300      -0.00294800       8.21369600 </v>
    </varray>
    <i name="volume">    550.29224103 </i>
    <varray name="rec_basis" >
     <v>       0.12081751      -0.00008007      -0.00026925 </v>
     <v>      -0.00007750       0.12354225       0.00004451 </v>
     <v>      -0.00025641       0.00004573       0.12174846 </v>
    </varray>
   </crystal>
   <varray name="positions" >
    <v>       0.00199000       0.25211900       0.75016200 </v>
    <v>       0.49798800       0.50192500       0.50242000 </v>
    <v>       0.00081200       0.99781200       0.49666500 </v>
    <v>       0.74848000       0.75210000       0.49810900 </v>
    <v>       0.25266200       0.99793400       0.75042900 </v>
    <v>       0.74731200       0.24984100       0.00153400 </v>
    <v>       0.49946000       0.24736100       0.25005400 </v>
    <v>       0.74717300       0.50211700       0.75106900 </v>
    <v>       0.00227200       0.50318500       0.00139900 </v>
    <v>       0.74846500       0.75093600       0.00135700 </v>
    <v>       0.00315200       0.74928100       0.75146100 </v>
    <v>       0.00196500       0.50248100       0.49888300 </v>
    <v>       0.25177100       0.25110800       0.00080100 </v>
    <v>       0.49862800       0.75112200       0.24866800 </v>
    <v>       0.25084700       0.50248500       0.24815100 </v>
    <v>       0.25208100       0.24769300       0.49958200 </v>
    <v>       0.74685800       0.99765600       0.74916900 </v>
    <v>       0.74921000       0.50161300       0.24858300 </v>
    <v>       0.00060500       0.24697100       0.25010200 </v>
    <v>       0.74796600       0.24649200       0.49844900 </v>
    <v>       0.00176600       0.99794900       0.00272000 </v>
    <v>       0.49844500       0.25057300       0.74995200 </v>
    <v>       0.49831700       0.99747800       0.00140900 </v>
    <v>       0.49973400       0.99632800       0.49864900 </v>
    <v>       0.49559100       0.50467300       0.99607400 </v>
    <v>       0.25110800       0.99622000       0.24870800 </v>
    <v>       0.25234700       0.74894900       0.00006900 </v>
    <v>       0.49544700       0.74853200       0.75299700 </v>
    <v>       0.00328900       0.75396700       0.24687500 </v>
    <v>       0.74944900       0.99757700       0.25154200 </v>
    <v>       0.25310600       0.50384300       0.75429800 </v>
    <v>       0.25170000       0.75167600       0.49965800 </v>
   </varray>
  </structure>
  <varray name="forces" >
   <v>       0.00287852      -0.00134433      -0.00008095 </v>
   <v>      -0.11757326       0.11492006      -0.01647750 </v>
   <v>       0.10712257      -0.10618982       0.00986725 </v>
   <v>       0.00760474      -0.00966522       0.00451497 </v>
   <v>      -0.01708633      -0.09549372      -0.11045003 </v>
   <v>       0.01142352       0.00000270       0.00450910 </v>
   <v>      -0.00445639       0.00577545      -0.00563079 </v>
   <v>       0.01048396       0.00211225      -0.01115008 </v>
   <v>       0.00855346       0.00501214      -0.00871021 </v>
   <v>       0.01320938      -0.00539393      -0.00312786 </v>
   <v>       0.09428029       0.00779587      -0.12259649 </v>
   <v>       0.11281727       0.10478695       0.00490233 </v>
   <v>      -0.00634449      -0.00459066       0.00137074 </v>
   <v>      -0.09007637      -0.00253665       0.11806153 </v>
   <v>      -0.00321648       0.09418837       0.12212055 </v>
   <v>      -0.01193810       0.01878790       0.00318694 </v>
   <v>       0.00706430       0.00201891      -0.00661194 </v>
   <v>       0.00463879       0.00238295       0.00243698 </v>
   <v>      -0.00464741       0.00101793       0.01199530 </v>
   <v>       0.01586332       0.01938556      -0.00239467 </v>
   <v>       0.00599608      -0.00096768      -0.00549725 </v>
   <v>      -0.00210965      -0.00046442      -0.01879306 </v>
   <v>      -0.01221727      -0.01310317      -0.00201539 </v>
   <v>      -0.18568497      -0.17536174      -0.00828257 </v>
   <v>      -0.02058537       0.02198040      -0.03907288 </v>
   <v>      -0.00059090      -0.23385824       0.22615063 </v>
   <v>       0.00190587      -0.00487247       0.00160923 </v>
   <v>      -0.20724111      -0.05101636      -0.16384519 </v>
   <v>       0.15494897       0.02911723       0.17428298 </v>
   <v>       0.01417832      -0.00340377       0.01735316 </v>
   <v>       0.04956356       0.19004646      -0.15407240 </v>
   <v>       0.06123519       0.08893105      -0.02355240 </v>
  </varray>
  <varray name="stress" >
   <v>      -6.50735303       0.08994081      -0.59718041 </v>
   <v>       0.08994086      -6.55405081       1.89151529 </v>
   <v>      -0.59718070       1.89151541      -8.34528825 </v>
  </varray>
  <energy>
   <i name="e_fr_energy">   -128.25647512 </i>
   <i name="e_wo_entrp">   -128.24599048 </i>
   <i name="e_0_energy">     -0.03145391 </i>
  </energy>
  <time name="totalsc">   11.96   12.45</time>
 </calculation>
 <calculation>
  <scstep>
   <time name="dav">    0.75    0.76</time>
   <time name="total">    0.83    0.84</time>
   <energy>
    <i name="alphaZ">   2058.13837495 </i>
    <i name="ewald"> -29676.62444525 </i>
    <i name="hartreedc">  -3319.46661095 </i>
    <i name="XCdc">    375.61993208 </i>
    <i name="pawpsdc">  31766.88315244 </i>
    <i name="pawaedc"> -31061.74980116 </i>
    <i name="eentropy">     -0.03170282 </i>
    <i name="bandstr">   1868.28702764 </i>
    <i name="atom">  27860.63297251 </i>
    <i name="e_fr_energy">   -128.31110055 </i>
    <i name="e_wo_entrp">   -128.27939774 </i>
    <i name="e_0_energy">   -128.30053295 </i>
   </energy>
  </scstep>
  <scstep>
   <time name="diag">    0.07    0.07</time>
   <time name="diis">    0.41    0.41</time>
   <time name="orth">    0.01    0.01</time>
   <time name="total">    0.56    0.56</time>
   <energy>
    <i name="e_fr_energy">   -128.27277900 </i>
    <i name="e_wo_entrp">   -128.23994344 </i>
    <i name="e_0_energy">   -128.26183382 </i>
   </energy>
  </scstep>
  <scstep>
   <time name="diag">    0.07    0.07</time>
   <time name="diis">    0.40    0.41</time>
   <time name="orth">    0.01    0.01</time>
   <time name="total">    0.54    0.54</time>
   <energy>
    <i name="e_fr_energy">   -128.27219265 </i>
    <i name="e_wo_entrp">   -128.24240335 </i>
    <i name="e_0_energy">   -128.26226288 </i>
   </energy>
  </scstep>
  <scstep>
   <time name="diag">    0.07    0.07</time>
   <time name="diis">    0.45    0.45</time>
   <time name="orth">    0.01    0.01</time>
   <time name="total">    0.59    0.59</time>
   <energy>
    <i name="e_fr_energy">   -128.26923790 </i>
    <i name="e_wo_entrp">   -128.23750345 </i>
    <i name="e_0_energy">   -128.25865975 </i>
   </energy>
  </scstep>
  <scstep>
   <time name="diag">    0.07    0.07</time>
   <time name="diis">    0.41    0.41</time>
   <time name="orth">    0.01    0.01</time>
   <time name="total">    0.55    0.55</time>
   <energy>
    <i name="e_fr_energy">   -128.26969802 </i>
    <i name="e_wo_entrp">   -128.23871780 </i>
    <i name="e_0_energy">   -128.25937128 </i>
   </energy>
  </scstep>
  <scstep>
   <time name="diag">    0.07    0.07</time>
   <time name="diis">    0.41    0.41</time>
   <time name="orth">    0.01    0.01</time>
   <time name="total">    0.55    0.56</time>
   <energy>
    <i name="e_fr_energy">   -128.26930873 </i>
    <i name="e_wo_entrp">   -128.23755528 </i>
    <i name="e_0_energy">   -128.25872424 </i>
   </energy>
  </scstep>
  <scstep>
   <time name="diag">    0.07    0.07</time>
   <time name="diis">    0.40    0.40</time>
   <time name="orth">    0.02    0.02</time>
   <time name="total">    0.55    0.56</time>
   <energy>
    <i name="e_fr_energy">   -128.26924395 </i>
    <i name="e_wo_entrp">   -128.23780185 </i>
    <i name="e_0_energy">   -128.25876325 </i>
   </energy>
  </scstep>
  <scstep>
   <time name="diag">    0.07    0.07</time>
   <time name="diis">    0.23    0.23</time>
   <time name="orth">    0.01    0.01</time>
   <time name="total">    0.34    0.35</time>
   <energy>
    <i name="alphaZ">   2058.13837495 </i>
    <i name="ewald"> -29676.62444525 </i>
    <i name="hartreedc">  -3302.99947062 </i>
    <i name="XCdc">    374.95379884 </i>
    <i name="pawpsdc">  31836.09920621 </i>
    <i name="pawaedc"> -31131.59078494 </i>
    <i name="eentropy">     -0.03146190 </i>
    <i name="bandstr">   1853.15257007 </i>
    <i name="atom">  27860.63297251 </i>
    <i name="e_fr_energy">   -128.26924013 </i>
    <i name="e_wo_entrp">   -128.23777823 </i>
    <i name="e_0_energy">   -128.25875283 </i>
   </energy>
  </scstep>
  <structure>
   <crystal>
    <varray name="basis" >
     <v>       8.26861961       0.00530148       0.01664110 </v>
     <v>       0.00546596       8.08615919      -0.00064720 </v>
     <v>       0.01752250      -0.00053132       8.20304550 </v>
    </varray>
    <i name="volume">    548.46429809 </i>
    <varray name="rec_basis" >
     <v>       0.12093974      -0.00008177      -0.00025834 </v>
     <v>      -0.00007931       0.12366816       0.00000818 </v>
     <v>      -0.00024535       0.00000992       0.12190647 </v>
    </varray>
   </crystal>
   <varray name="positions" >
    <v>       0.00199504       0.25211659       0.75016185 </v>
    <v>       0.49778235       0.50213060       0.50239148 </v>
    <v>       0.00099940       0.99762202       0.49668192 </v>
    <v>       0.74849329       0.75208271       0.49811692 </v>
    <v>       0.25263266       0.99776321       0.75023438 </v>
    <v>       0.74733196       0.24984099       0.00154190 </v>
    <v>       0.49945222       0.24737133       0.25004410 </v>
    <v>       0.74719137       0.50212076       0.75104932 </v>
    <v>       0.00228698       0.50319395       0.00138362 </v>
    <v>       0.74848812       0.75092634       0.00135144 </v>
    <v>       0.00331732       0.74929475       0.75124464 </v>
    <v>       0.00216213       0.50266824       0.49889129 </v>
    <v>       0.25175991       0.25109980       0.00080344 </v>
    <v>       0.49847004       0.75111764       0.24887636 </v>
    <v>       0.25084079       0.50265349       0.24836626 </v>
    <v>       0.25206009       0.24772661       0.49958767 </v>
    <v>       0.74687038       0.99765960       0.74915732 </v>
    <v>       0.74921810       0.50161726       0.24858728 </v>
    <v>       0.00059683       0.24697283       0.25012315 </v>
    <v>       0.74799372       0.24652664       0.49844473 </v>
    <v>       0.00177651       0.99794726       0.00271029 </v>
    <v>       0.49844138       0.25057216       0.74991889 </v>
    <v>       0.49829566       0.99745458       0.00140549 </v>
    <v>       0.49940955       0.99601466       0.49863498 </v>
    <v>       0.49555513       0.50471230       0.99600524 </v>
    <v>       0.25110636       0.99580201       0.24910633 </v>
    <v>       0.25235033       0.74894029       0.00007183 </v>
    <v>       0.49508532       0.74844091       0.75270903 </v>
    <v>       0.00355923       0.75401900       0.24718154 </v>
    <v>       0.74947373       0.99757091       0.25157252 </v>
    <v>       0.25319305       0.50418265       0.75402646 </v>
    <v>       0.25180706       0.75183493       0.49961633 </v>
   </varray>
  </structure>
  <varray name="forces" >
   <v>       0.00407768      -0.00234931      -0.00259994 </v>
   <v>      -0.09611744       0.09054424      -0.02093422 </v>
   <v>       0.08691685      -0.08326233       0.01733780 </v>
   <v>       0.00915565      -0.01134944       0.00803236 </v>
   <v>      -0.02350985      -0.07340649      -0.09070293 </v>
   <v>       0.01257158      -0.00041007       0.00358472 </v>
   <v>      -0.00746049       0.00758426      -0.00495734 </v>
   <v>       0.01261293       0.00381967      -0.01414478 </v>
   <v>       0.00804253       0.00400415      -0.00788499 </v>
   <v>       0.01191054      -0.00428612      -0.00449282 </v>
   <v>       0.07453041       0.00861002      -0.10564806 </v>
   <v>       0.09862775       0.08798857       0.00693241 </v>
   <v>      -0.00642069      -0.00572130       0.00255213 </v>
   <v>      -0.06546404      -0.00876749       0.09617159 </v>
   <v>      -0.00230250       0.07218894       0.10747675 </v>
   <v>      -0.01222375       0.02259670       0.00278105 </v>
   <v>       0.00582199      -0.00088300      -0.00897752 </v>
   <v>       0.00429596       0.00437708       0.00351372 </v>
   <v>      -0.00038241       0.00255421       0.01253384 </v>
   <v>       0.01463450       0.01869649       0.00101831 </v>
   <v>       0.00738118       0.00140006      -0.00894416 </v>
   <v>      -0.00128183      -0.00081810      -0.02122325 </v>
   <v>      -0.01178076      -0.01238984      -0.00451217 </v>
   <v>      -0.16058808      -0.14978997      -0.00328212 </v>
   <v>      -0.01443437       0.01666967      -0.02896922 </v>
   <v>       0.00102430      -0.20079156       0.20065189 </v>
   <v>      -0.00380710      -0.00049603       0.00269140 </v>
   <v>      -0.17389071      -0.03876019      -0.14644770 </v>
   <v>       0.13158264       0.01825021       0.15639976 </v>
   <v>       0.01149881      -0.00246806       0.01498955 </v>
   <v>       0.03447858       0.16089319      -0.14222082 </v>
   <v>       0.05050014       0.07577185      -0.02072525 </v>
  </varray>
  <varray name="stress" >
   <v>      -1.12707821       0.06154070      -0.63227408 </v>
   <v>       0.06154072      -0.98717970       1.64570397 </v>
   <v>      -0.63227404       1.64570345      -2.78183634 </v>
  </varray>
  <energy>
   <i name="e_fr_energy">   -128.26924013 </i>
   <i name="e_wo_entrp">   -128.25875283 </i>
   <i name="e_0_energy">     -0.03146190 </i>
  </energy>
  <time name="totalsc">    5.66    5.72</time>
 </calculation>
 <calculation>
  <scstep>
   <time name="dav">    0.93    0.93</time>
   <time name="total">    1.01    1.01</time>
   <energy>
    <i name="alphaZ">   2067.31388111 </i>
    <i name="ewald"> -29721.07450778 </i>
    <i name="hartreedc">  -3307.48808829 </i>
    <i name="XCdc">    376.37174055 </i>
    <i name="pawpsdc">  31835.97736100 </i>
    <i name="pawaedc"> -31131.45970719 </i>
    <i name="eentropy">     -0.03194377 </i>
    <i name="bandstr">   1891.40928129 </i>
    <i name="atom">  27860.63297251 </i>
    <i name="e_fr_energy">   -128.34901058 </i>
    <i name="e_wo_entrp">   -128.31706681 </i>
    <i name="e_0_energy">   -128.33836266 </i>
   </energy>
  </scstep>
  <scstep>
   <time name="diag">    0.10    0.10</time>
   <time name="diis">    0.42    0.42</time>
   <time name="orth">    0.01    0.01</time>
   <time name="total">    0.66    0.67</time>
   <energy>
    <i name="e_fr_energy">   -128.28058323 </i>
    <i name="e_wo_entrp">   -128.24731180 </i>
    <i name="e_0_energy">   -128.26949276 </i>
   </energy>
  </scstep>
  <scstep>
   <time name="diag">    0.08    0.08</time>
   <time name="diis">    0.44    0.44</time>
   <time name="orth">    0.01    0.01</time>
   <time name="total">    0.60    0.60</time>
   <energy>
    <i name="e_fr_energy">   -128.27962473 </i>
    <i name="e_wo_entrp">   -128.25056804 </i>
    <i name="e_0_energy">   -128.26993917 </i>
   </energy>
  </scstep>
  <scstep>
   <time name="diag">    0.07    0.07</time>
   <time name="diis">    0.40    0.41</time>
   <time name="orth">    0.01    0.01</time>
   <time name="total">    0.56    0.57</time>
   <energy>
    <i name="e_fr_energy">   -128.27433440 </i>
    <i name="e_wo_entrp">   -128.24249217 </i>
    <i name="e_0_energy">   -128.26372032 </i>
   </energy>
  </scstep>
  <scstep>
   <time name="diag">    0.16    0.16</time>
   <time name="diis">    0.40    0.43</time>
   <time name="orth">    0.02    0.02</time>
   <time name="total">    0.72    0.76</time>
   <energy>
    <i name="e_fr_energy">   -128.27514239 </i>
    <i name="e_wo_entrp">   -128.24439154 </i>
    <i name="e_0_energy">   -128.26489210 </i>
   </energy>
  </scstep>
  <scstep>
   <time name="diag">    0.08    0.09</time>
   <time name="diis">    0.44    0.47</time>
   <time name="orth">    0.01    0.01</time>
   <time name="total">    0.64    0.69</time>
   <energy>
    <i name="e_fr_energy">   -128.27443722 </i>
    <i name="e_wo_entrp">   -128.24258749 </i>
    <i name="e_0_energy">   -128.26382064 </i>
   </energy>
  </scstep>
  <scstep>
   <time name="diag">    0.08    0.09</time>
   <time name="diis">    0.39    0.42</time>
   <time name="orth">    0.01    0.01</time>
   <time name="total">    0.54    0.61</time>
   <energy>
    <i name="e_fr_energy">   -128.27431360 </i>
    <i name="e_wo_entrp">   -128.24288688 </i>
    <i name="e_0_energy">   -128.26383803 </i>
   </energy>
  </scstep>
  <scstep>
   <time name="diag">    0.08    0.08</time>
   <time name="diis">    0.24    0.24</time>
   <time name="orth">    0.01    0.01</time>
   <time name="total">    0.36    0.37</time>
   <energy>
    <i name="alphaZ">   2067.31388111 </i>
    <i name="ewald"> -29721.07450778 </i>
    <i name="hartreedc">  -3285.56372437 </i>
    <i name="XCdc">    375.48505755 </i>
    <i name="pawpsdc">  31928.61783223 </i>
    <i name="pawaedc"> -31224.92441074 </i>
    <i name="eentropy">     -0.03144887 </i>
    <i name="bandstr">   1871.27004171 </i>
    <i name="atom">  27860.63297251 </i>
    <i name="e_fr_energy">   -128.27430664 </i>
    <i name="e_wo_entrp">   -128.24285777 </i>
    <i name="e_0_energy">   -128.26382368 </i>
   </energy>
  </scstep>
  <structure>
   <crystal>
    <varray name="basis" >
     <v>       8.25744738       0.00545566       0.01558788 </v>
     <v>       0.00561008       8.07515595       0.00253263 </v>
     <v>       0.01648050       0.00269507       8.18882656 </v>
    </varray>
    <i name="volume">    546.03001000 </i>
    <varray name="rec_basis" >
     <v>       0.12110332      -0.00008406      -0.00024370 </v>
     <v>      -0.00008174       0.12383669      -0.00004059 </v>
     <v>      -0.00023050      -0.00003814       0.12211810 </v>
    </varray>
   </crystal>
   <varray name="positions" >
    <v>       0.00200176       0.25211338       0.75016164 </v>
    <v>       0.49750750       0.50240538       0.50235325 </v>
    <v>       0.00124984       0.99736811       0.49670463 </v>
    <v>       0.74851105       0.75205961       0.49812752 </v>
    <v>       0.25259344       0.99753503       0.74997428 </v>
    <v>       0.74735863       0.24984098       0.00155247 </v>
    <v>       0.49944183       0.24738513       0.25003086 </v>
    <v>       0.74721592       0.50212579       0.75102300 </v>
    <v>       0.00230701       0.50320591       0.00136307 </v>
    <v>       0.74851901       0.75091343       0.00134400 </v>
    <v>       0.00353824       0.74931322       0.75095542 </v>
    <v>       0.00242557       0.50291845       0.49890232 </v>
    <v>       0.25174508       0.25108884       0.00080669 </v>
    <v>       0.49825896       0.75111174       0.24915488 </v>
    <v>       0.25083252       0.50287858       0.24865394 </v>
    <v>       0.25203215       0.24777152       0.49959524 </v>
    <v>       0.74688691       0.99766441       0.74914172 </v>
    <v>       0.74922892       0.50162294       0.24859300 </v>
    <v>       0.00058590       0.24697527       0.25015143 </v>
    <v>       0.74803078       0.24657294       0.49843902 </v>
    <v>       0.00179055       0.99794494       0.00269731 </v>
    <v>       0.49843655       0.25057105       0.74987464 </v>
    <v>       0.49826714       0.99742329       0.00140079 </v>
    <v>       0.49897597       0.99559591       0.49861632 </v>
    <v>       0.49550719       0.50476485       0.99591331 </v>
    <v>       0.25110422       0.99524324       0.24963898 </v>
    <v>       0.25235479       0.74892864       0.00007561 </v>
    <v>       0.49460194       0.74831930       0.75232407 </v>
    <v>       0.00392039       0.75408837       0.24759133 </v>
    <v>       0.74950678       0.99756276       0.25161333 </v>
    <v>       0.25330933       0.50463667       0.75366335 </v>
    <v>       0.25195013       0.75204733       0.49956058 </v>
   </varray>
  </structure>
  <varray name="forces" >
   <v>       0.00343168      -0.00053566      -0.00378024 </v>
   <v>      -0.06848824       0.05777892      -0.02937992 </v>
   <v>       0.05828887      -0.05274162       0.02927905 </v>
   <v>       0.01144797      -0.01597838       0.01338023 </v>
   <v>      -0.03194775      -0.03940944      -0.06109553 </v>
   <v>       0.01530226      -0.00155056       0.00169739 </v>
   <v>      -0.01075678       0.00950750      -0.00456178 </v>
   <v>       0.01676897       0.00339419      -0.01525968 </v>
   <v>       0.00719599       0.00123011      -0.00745201 </v>
   <v>       0.01219783      -0.00610160      -0.00485216 </v>
   <v>       0.04830593       0.01337286      -0.08483552 </v>
   <v>       0.07773262       0.06467685       0.00843794 </v>
   <v>      -0.00883535      -0.00833411       0.00372131 </v>
   <v>      -0.02991666      -0.01943917       0.06511156 </v>
   <v>      -0.00040413       0.04413785       0.08650547 </v>
   <v>      -0.01302204       0.02504633       0.00357649 </v>
   <v>       0.00375713      -0.00391114      -0.00901461 </v>
   <v>       0.00296173       0.00655228       0.00529603 </v>
   <v>       0.00367808       0.00454266       0.01145141 </v>
   <v>       0.00990944       0.02039422       0.00454522 </v>
   <v>       0.00950913       0.00462346      -0.01265213 </v>
   <v>       0.00085041      -0.00296958      -0.02413389 </v>
   <v>      -0.01283950      -0.01143387      -0.00741128 </v>
   <v>      -0.12444037      -0.11282937       0.00280255 </v>
   <v>      -0.00598264       0.00934186      -0.01588219 </v>
   <v>       0.00426232      -0.15198571       0.16341332 </v>
   <v>      -0.01094810       0.00643484       0.00401731 </v>
   <v>      -0.12503710      -0.02214416      -0.12190369 </v>
   <v>       0.09942901       0.00318705       0.13084671 </v>
   <v>       0.00827670      -0.00143978       0.01096269 </v>
   <v>       0.01446897       0.12043213      -0.12609123 </v>
   <v>       0.03484361       0.05615104      -0.01673881 </v>
  </varray>
  <varray name="stress" >
   <v>       6.37224635       0.01506210      -0.66701815 </v>
   <v>       0.01506212       6.74046901       1.32754470 </v>
   <v>      -0.66701825       1.32754485       4.90704640 </v>
  </varray>
  <energy>
   <i name="e_fr_energy">   -128.27430664 </i>
   <i name="e_wo_entrp">   -128.26382368 </i>
   <i name="e_0_energy">     -0.03144887 </i>
  </energy>
  <time name="totalsc">    6.20    6.40</time>
 </calculation>
 <calculation>
  <scstep>
   <time name="dav">    0.74    0.75</time>
   <time name="total">    0.82    0.83</time>
   <energy>
    <i name="alphaZ">   2065.67905944 </i>
    <i name="ewald"> -29713.52336965 </i>
    <i name="hartreedc">  -3284.40256040 </i>
    <i name="XCdc">    375.23861289 </i>
    <i name="pawpsdc">  31928.42263510 </i>
    <i name="pawaedc"> -31224.71658010 </i>
    <i name="eentropy">     -0.03141026 </i>
    <i name="bandstr">   1864.41512717 </i>
    <i name="atom">  27860.63297251 </i>
    <i name="e_fr_energy">   -128.28551331 </i>
    <i name="e_wo_entrp">   -128.25410305 </i>
    <i name="e_0_energy">   -128.27504322 </i>
   </energy>
  </scstep>
  <scstep>
   <time name="diag">    0.07    0.07</time>
   <time name="diis">    0.41    0.41</time>
   <time name="orth">    0.01    0.01</time>
   <time name="total">    0.55    0.56</time>
   <energy>
    <i name="e_fr_energy">   -128.28418166 </i>
    <i name="e_wo_entrp">   -128.25271945 </i>
    <i name="e_0_energy">   -128.27369426 </i>
   </energy>
  </scstep>
  <scstep>
   <time name="diag">    0.07    0.07</time>
   <time name="diis">    0.45    0.46</time>
   <time name="orth">    0.01    0.01</time>
   <time name="total">    0.59    0.60</time>
   <energy>
    <i name="e_fr_energy">   -128.28405646 </i>
    <i name="e_wo_entrp">   -128.25321269 </i>
    <i name="e_0_energy">   -128.27377520 </i>
   </energy>
  </scstep>
  <scstep>
   <time name="diag">    0.07    0.07</time>
   <time name="diis">    0.40    0.41</time>
   <time name="orth">    0.01    0.01</time>
   <time name="total">    0.54    0.54</time>
   <energy>
    <i name="e_fr_energy">   -128.28353158 </i>
    <i name="e_wo_entrp">   -128.25205961 </i>
    <i name="e_0_energy">   -128.27304093 </i>
   </energy>
  </scstep>
  <scstep>
   <time name="diag">    0.07    0.07</time>
   <time name="diis">    0.41    0.41</time>
   <time name="orth">    0.01    0.01</time>
   <time name="total">    0.55    0.55</time>
   <energy>
    <i name="e_fr_energy">   -128.28348755 </i>
    <i name="e_wo_entrp">   -128.25253285 </i>
    <i name="e_0_energy">   -128.27316932 </i>
   </energy>
  </scstep>
  <scstep>
   <time name="diag">    0.07    0.07</time>
   <time name="diis">    0.40    0.40</time>
   <time name="orth">    0.01    0.01</time>
   <time name="total">    0.54    0.56</time>
   <energy>
    <i name="e_fr_energy">   -128.28343016 </i>
    <i name="e_wo_entrp">   -128.25211649 </i>
    <i name="e_0_energy">   -128.27299227 </i>
   </energy>
  </scstep>
  <scstep>
   <time name="diag">    0.07    0.07</time>
   <time name="diis">    0.27    0.27</time>
   <time name="orth">    0.01    0.01</time>
   <time name="total">    0.40    0.42</time>
   <energy>
    <i name="alphaZ">   2065.67905944 </i>
    <i name="ewald"> -29713.52336965 </i>
    <i name="hartreedc">  -3288.35323947 </i>
    <i name="XCdc">    375.39899329 </i>
    <i name="pawpsdc">  31912.13090573 </i>
    <i name="pawaedc"> -31208.25886245 </i>
    <i name="eentropy">     -0.03121396 </i>
    <i name="bandstr">   1868.04132845 </i>
    <i name="atom">  27860.63297251 </i>
    <i name="e_fr_energy">   -128.28342611 </i>
    <i name="e_wo_entrp">   -128.25221214 </i>
    <i name="e_0_energy">   -128.27302145 </i>
   </energy>
  </scstep>
  <structure>
   <crystal>
    <varray name="basis" >
     <v>       8.26087376       0.00558500       0.01388501 </v>
     <v>       0.00572818       8.07904376       0.00657096 </v>
     <v>       0.01479758       0.00679323       8.18796467 </v>
    </varray>
    <i name="volume">    546.46214959 </i>
    <varray name="rec_basis" >
     <v>       0.12105300      -0.00008565      -0.00021870 </v>
     <v>      -0.00008351       0.12377717      -0.00010254 </v>
     <v>      -0.00020521      -0.00009919       0.12213093 </v>
    </varray>
   </crystal>
   <varray name="positions" >
    <v>       0.00201354       0.25211018       0.75015304 </v>
    <v>       0.49718636       0.50270577       0.50226409 </v>
    <v>       0.00153331       0.99709202       0.49678405 </v>
    <v>       0.74854737       0.75200908       0.49816397 </v>
    <v>       0.25249868       0.99730532       0.74967761 </v>
    <v>       0.74740902       0.24983743       0.00156271 </v>
    <v>       0.49941155       0.24741524       0.25001253 </v>
    <v>       0.74726833       0.50213658       0.75097256 </v>
    <v>       0.00233534       0.50321606       0.00133370 </v>
    <v>       0.74856513       0.75089162       0.00132852 </v>
    <v>       0.00378175       0.74935500       0.75058725 </v>
    <v>       0.00276012       0.50321913       0.49892759 </v>
    <v>       0.25171634       0.25106318       0.00081708 </v>
    <v>       0.49806243       0.75106389       0.24947222 </v>
    <v>       0.25082609       0.50311715       0.24902462 </v>
    <v>       0.25198599       0.24785604       0.49960793 </v>
    <v>       0.74690548       0.99765849       0.74911191 </v>
    <v>       0.74924213       0.50164131       0.24860836 </v>
    <v>       0.00058730       0.24698707       0.25019446 </v>
    <v>       0.74807552       0.24664772       0.49844562 </v>
    <v>       0.00182035       0.99795401       0.00266095 </v>
    <v>       0.49843557       0.25056365       0.74979335 </v>
    <v>       0.49822114       0.99737810       0.00138138 </v>
    <v>       0.49843304       0.99508227       0.49861178 </v>
    <v>       0.49546446       0.50481843       0.99582117 </v>
    <v>       0.25111192       0.99455408       0.25033295 </v>
    <v>       0.25233319       0.74893610       0.00008697 </v>
    <v>       0.49402744       0.74819457       0.75181471 </v>
    <v>       0.00436283       0.75413793       0.24813612 </v>
    <v>       0.74954545       0.99755444       0.25166296 </v>
    <v>       0.25341335       0.50518962       0.75315727 </v>
    <v>       0.25211551       0.75230548       0.49948856 </v>
   </varray>
  </structure>
  <varray name="forces" >
   <v>       0.01111022       0.00417748      -0.00485028 </v>
   <v>      -0.03743757       0.02702416      -0.02918266 </v>
   <v>       0.02489450      -0.01972167       0.02997332 </v>
   <v>       0.00963341      -0.01233991       0.01342840 </v>
   <v>      -0.02892962      -0.00769809      -0.02692978 </v>
   <v>       0.01009323      -0.00165511       0.00222630 </v>
   <v>      -0.01575225       0.00032716      -0.00372514 </v>
   <v>       0.01020722       0.00829934      -0.01343247 </v>
   <v>       0.01475180       0.01082554      -0.00499666 </v>
   <v>       0.00665857      -0.00328502      -0.00262579 </v>
   <v>       0.02522969       0.01153726      -0.05441505 </v>
   <v>       0.05704660       0.04076394       0.01004167 </v>
   <v>      -0.00514954      -0.00605281       0.00624329 </v>
   <v>       0.00520122      -0.02253184       0.02340749 </v>
   <v>      -0.00075488       0.02106783       0.05096332 </v>
   <v>      -0.00984193       0.02179610       0.00309765 </v>
   <v>      -0.00733812      -0.01017381      -0.01236293 </v>
   <v>       0.00307943       0.01102585       0.00426284 </v>
   <v>       0.00918432      -0.00069493       0.01075655 </v>
   <v>       0.00065460       0.00851893       0.00186883 </v>
   <v>       0.01318333      -0.00296241      -0.00388367 </v>
   <v>      -0.00375580      -0.00278187      -0.02365532 </v>
   <v>      -0.01520370      -0.01715075      -0.00641317 </v>
   <v>      -0.08069569      -0.07315046       0.00508290 </v>
   <v>      -0.00714823       0.01075705      -0.01437567 </v>
   <v>       0.00700577      -0.10165237       0.11690585 </v>
   <v>      -0.01235459       0.00685492       0.00400844 </v>
   <v>      -0.07911883      -0.00936327      -0.08372689 </v>
   <v>       0.06724216      -0.00527705       0.09413699 </v>
   <v>       0.00526927      -0.00332986       0.01121302 </v>
   <v>       0.00223665       0.08122501      -0.09226766 </v>
   <v>       0.02079872       0.03562065      -0.01077373 </v>
  </varray>
  <varray name="stress" >
   <v>       5.20530122      -0.03015538      -0.63045303 </v>
   <v>      -0.03015542       5.64126544       0.88890968 </v>
   <v>      -0.63045354       0.88890936       3.83698056 </v>
  </varray>
  <energy>
   <i name="e_fr_energy">   -128.28342611 </i>
   <i name="e_wo_entrp">   -128.27302145 </i>
   <i name="e_0_energy">     -0.03121396 </i>
  </energy>
  <time name="totalsc">    5.10    5.18</time>
 </calculation>
 <calculation>
  <scstep>
   <time name="dav">    0.77    0.77</time>
   <time name="total">    0.82    0.83</time>
   <energy>
    <i name="alphaZ">   2062.23644527 </i>
    <i name="ewald"> -29696.73464536 </i>
    <i name="hartreedc">  -3286.72799035 </i>
    <i name="XCdc">    374.88555978 </i>
    <i name="pawpsdc">  31912.17886412 </i>
    <i name="pawaedc"> -31208.31020574 </i>
    <i name="eentropy">     -0.03085586 </i>
    <i name="bandstr">   1853.56969184 </i>
    <i name="atom">  27860.63297251 </i>
    <i name="e_fr_energy">   -128.30016379 </i>
    <i name="e_wo_entrp">   -128.26930793 </i>
    <i name="e_0_energy">   -128.28987850 </i>
   </energy>
  </scstep>
  <scstep>
   <time name="diag">    0.07    0.07</time>
   <time name="diis">    0.43    0.44</time>
   <time name="orth">    0.01    0.01</time>
   <time name="total">    0.57    0.58</time>
   <energy>
    <i name="e_fr_energy">   -128.29430175 </i>
    <i name="e_wo_entrp">   -128.26320721 </i>
    <i name="e_0_energy">   -128.28393691 </i>
   </energy>
  </scstep>
  <scstep>
   <time name="diag">    0.07    0.07</time>
   <time name="diis">    0.41    0.41</time>
   <time name="orth">    0.01    0.01</time>
   <time name="total">    0.55    0.55</time>
   <energy>
    <i name="e_fr_energy">   -128.29376088 </i>
    <i name="e_wo_entrp">   -128.26433360 </i>
    <i name="e_0_energy">   -128.28395178 </i>
   </energy>
  </scstep>
  <scstep>
   <time name="diag">    0.07    0.07</time>
   <time name="diis">    0.41    0.41</time>
   <time name="orth">    0.02    0.02</time>
   <time name="total">    0.55    0.56</time>
   <energy>
    <i name="e_fr_energy">   -128.29140094 </i>
    <i name="e_wo_entrp">   -128.26038012 </i>
    <i name="e_0_energy">   -128.28106067 </i>
   </energy>
  </scstep>
  <scstep>
   <time name="diag">    0.07    0.07</time>
   <time name="diis">    0.42    0.42</time>
   <time name="orth">    0.01    0.01</time>
   <time name="total">    0.56    0.56</time>
   <energy>
    <i name="e_fr_energy">   -128.29122478 </i>
    <i name="e_wo_entrp">   -128.26138074 </i>
    <i name="e_0_energy">   -128.28127677 </i>
   </energy>
  </scstep>
  <scstep>
   <time name="diag">    0.07    0.07</time>
   <time name="diis">    0.42    0.42</time>
   <time name="orth">    0.01    0.01</time>
   <time name="total">    0.56    0.57</time>
   <energy>
    <i name="e_fr_energy">   -128.29098030 </i>
    <i name="e_wo_entrp">   -128.26035222 </i>
    <i name="e_0_energy">   -128.28077094 </i>
   </energy>
  </scstep>
  <scstep>
   <time name="diag">    0.08    0.08</time>
   <time name="diis">    0.39    0.40</time>
   <time name="orth">    0.01    0.01</time>
   <time name="total">    0.54    0.54</time>
   <energy>
    <i name="e_fr_energy">   -128.29096498 </i>
    <i name="e_wo_entrp">   -128.26056371 </i>
    <i name="e_0_energy">   -128.28083123 </i>
   </energy>
  </scstep>
  <scstep>
   <time name="diag">    0.08    0.08</time>
   <time name="diis">    0.29    0.29</time>
   <time name="orth">    0.01    0.01</time>
   <time name="total">    0.45    0.46</time>
   <energy>
    <i name="e_fr_energy">   -128.29094551 </i>
    <i name="e_wo_entrp">   -128.26046564 </i>
    <i name="e_0_energy">   -128.28078555 </i>
   </energy>
  </scstep>
  <scstep>
   <time name="diag">    0.10    0.10</time>
   <time name="diis">    0.27    0.27</time>
   <time name="orth">    0.01    0.01</time>
   <time name="total">    0.41    0.42</time>
   <energy>
    <i name="alphaZ">   2062.23644527 </i>
    <i name="ewald"> -29696.73464536 </i>
    <i name="hartreedc">  -3294.96356759 </i>
    <i name="XCdc">    375.21990303 </i>
    <i name="pawpsdc">  31882.17736305 </i>
    <i name="pawaedc"> -31178.05304503 </i>
    <i name="eentropy">     -0.03043944 </i>
    <i name="bandstr">   1861.22406903 </i>
    <i name="atom">  27860.63297251 </i>
    <i name="e_fr_energy">   -128.29094453 </i>
    <i name="e_wo_entrp">   -128.26050509 </i>
    <i name="e_0_energy">   -128.28079805 </i>
   </energy>
  </scstep>
  <structure>
   <crystal>
    <varray name="basis" >
     <v>       8.26811216       0.00585824       0.01028762 </v>
     <v>       0.00597768       8.08725694       0.01510213 </v>
     <v>       0.01124233       0.01545078       8.18614388 </v>
    </varray>
    <i name="volume">    547.37439141 </i>
    <varray name="rec_basis" >
     <v>       0.12094686      -0.00008909      -0.00016593 </v>
     <v>      -0.00008732       0.12365182      -0.00023326 </v>
     <v>      -0.00015183      -0.00022801       0.12215828 </v>
    </varray>
   </crystal>
   <varray name="positions" >
    <v>       0.00203841       0.25210344       0.75013487 </v>
    <v>       0.49650817       0.50334017       0.50207526 </v>
    <v>       0.00213195       0.99650895       0.49695224 </v>
    <v>       0.74862408       0.75190234       0.49824106 </v>
    <v>       0.25229845       0.99682060       0.74905100 </v>
    <v>       0.74751542       0.24982991       0.00158438 </v>
    <v>       0.49934760       0.24747883       0.24997376 </v>
    <v>       0.74737897       0.50215943       0.75086601 </v>
    <v>       0.00239514       0.50323753       0.00127164 </v>
    <v>       0.74866252       0.75084558       0.00129586 </v>
    <v>       0.00429582       0.74944362       0.74980945 </v>
    <v>       0.00346659       0.50385399       0.49898082 </v>
    <v>       0.25165564       0.25100900       0.00083903 </v>
    <v>       0.49764756       0.75096253       0.25014266 </v>
    <v>       0.25081268       0.50362051       0.24980754 </v>
    <v>       0.25188851       0.24803450       0.49963463 </v>
    <v>       0.74694466       0.99764603       0.74904896 </v>
    <v>       0.74927001       0.50168008       0.24864080 </v>
    <v>       0.00059026       0.24701193       0.25028535 </v>
    <v>       0.74817001       0.24680560       0.49845950 </v>
    <v>       0.00188327       0.99797319       0.00258414 </v>
    <v>       0.49843347       0.25054812       0.74962163 </v>
    <v>       0.49812398       0.99728271       0.00134038 </v>
    <v>       0.49728656       0.99399773       0.49860248 </v>
    <v>       0.49537418       0.50493168       0.99562642 </v>
    <v>       0.25112849       0.99309816       0.25179988 </v>
    <v>       0.25228758       0.74895184       0.00011097 </v>
    <v>       0.49281407       0.74793178       0.75073841 </v>
    <v>       0.00529734       0.75424198       0.24928730 </v>
    <v>       0.74962713       0.99753683       0.25176785 </v>
    <v>       0.25363277       0.50635776       0.75208752 </v>
    <v>       0.25246470       0.75285066       0.49933620 </v>
   </varray>
  </structure>
  <varray name="forces" >
   <v>       0.02229274       0.01602504      -0.00788486 </v>
   <v>       0.03157794      -0.03988018      -0.02834273 </v>
   <v>      -0.04576792       0.04635262       0.02762216 </v>
   <v>       0.00274755      -0.00313750       0.01284452 </v>
   <v>      -0.02619958       0.05608940       0.04285134 </v>
   <v>      -0.00045126      -0.00257427       0.00319805 </v>
   <v>      -0.02357604      -0.01590235      -0.00103629 </v>
   <v>      -0.00340075       0.01634296      -0.00785117 </v>
   <v>       0.03091253       0.02991388       0.00000653 </v>
   <v>      -0.00098098       0.00198646       0.00179098 </v>
   <v>      -0.02435810       0.00731727       0.01555425 </v>
   <v>       0.01039512      -0.00635076       0.01274454 </v>
   <v>       0.00127682      -0.00174077       0.01080136 </v>
   <v>       0.07591494      -0.03066982      -0.06624848 </v>
   <v>      -0.00037146      -0.03006824      -0.02353747 </v>
   <v>      -0.00454051       0.01527115       0.00218720 </v>
   <v>      -0.02763080      -0.02187883      -0.02025797 </v>
   <v>       0.00515598       0.01745967       0.00277892 </v>
   <v>       0.01816168      -0.01264624       0.00725038 </v>
   <v>      -0.01666811      -0.01582227      -0.00319256 </v>
   <v>       0.02162722      -0.01768212       0.01559660 </v>
   <v>      -0.01109745      -0.00218916      -0.02196334 </v>
   <v>      -0.02095825      -0.02727972      -0.00197651 </v>
   <v>       0.01605366       0.01415379       0.00905851 </v>
   <v>      -0.00993014       0.01261378      -0.00937177 </v>
   <v>       0.01389652       0.00859043       0.01136363 </v>
   <v>      -0.01561676       0.00863003       0.00548174 </v>
   <v>       0.02277114       0.01953108       0.00002993 </v>
   <v>      -0.00320554      -0.02068548       0.01307045 </v>
   <v>      -0.00118271      -0.00707493       0.01267095 </v>
   <v>      -0.02549887      -0.00460832      -0.01725664 </v>
   <v>      -0.01134859      -0.01008659       0.00201773 </v>
  </varray>
  <varray name="stress" >
   <v>       2.69072998      -0.11025461      -0.57055602 </v>
   <v>      -0.11025448       3.24037630      -0.04124255 </v>
   <v>      -0.57055635      -0.04124250       1.47645534 </v>
  </varray>
  <energy>
   <i name="e_fr_energy">   -128.29094453 </i>
   <i name="e_wo_entrp">   -128.28079805 </i>
   <i name="e_0_energy">     -0.03043944 </i>
  </energy>
  <time name="totalsc">    6.22    6.31</time>
 </calculation>
 <calculation>
  <scstep>
   <time name="dav">    0.76    0.76</time>
   <time name="total">    0.81    0.82</time>
   <energy>
    <i name="alphaZ">   2058.08760021 </i>
    <i name="ewald"> -29676.89137580 </i>
    <i name="hartreedc">  -3292.67039475 </i>
    <i name="XCdc">    374.57807469 </i>
    <i name="pawpsdc">  31882.35180944 </i>
    <i name="pawaedc"> -31178.23393457 </i>
    <i name="eentropy">     -0.03022232 </i>
    <i name="bandstr">   1843.86722698 </i>
    <i name="atom">  27860.63297251 </i>
    <i name="e_fr_energy">   -128.30824360 </i>
    <i name="e_wo_entrp">   -128.27802128 </i>
    <i name="e_0_energy">   -128.29816949 </i>
   </energy>
  </scstep>
  <scstep>
   <time name="diag">    0.07    0.07</time>
   <time name="diis">    0.40    0.41</time>
   <time name="orth">    0.01    0.01</time>
   <time name="total">    0.54    0.55</time>
   <energy>
    <i name="e_fr_energy">   -128.29418133 </i>
    <i name="e_wo_entrp">   -128.26492305 </i>
    <i name="e_0_energy">   -128.28442857 </i>
   </energy>
  </scstep>
  <scstep>
   <time name="diag">    0.07    0.07</time>
   <time name="diis">    0.41    0.44</time>
   <time name="orth">    0.01    0.01</time>
   <time name="total">    0.54    0.58</time>
   <energy>
    <i name="e_fr_energy">   -128.29385250 </i>
    <i name="e_wo_entrp">   -128.26257069 </i>
    <i name="e_0_energy">   -128.28342523 </i>
   </energy>
  </scstep>
  <scstep>
   <time name="diag">    0.07    0.10</time>
   <time name="diis">    0.41    0.41</time>
   <time name="orth">    0.01    0.01</time>
   <time name="total">    0.55    0.61</time>
   <energy>
    <i name="e_fr_energy">   -128.29270672 </i>
    <i name="e_wo_entrp">   -128.26250635 </i>
    <i name="e_0_energy">   -128.28263993 </i>
   </energy>
  </scstep>
  <scstep>
   <time name="diag">    0.07    0.07</time>
   <time name="diis">    0.40    0.41</time>
   <time name="orth">    0.01    0.01</time>
   <time name="total">    0.54    0.54</time>
   <energy>
    <i name="e_fr_energy">   -128.29284863 </i>
    <i name="e_wo_entrp">   -128.26200999 </i>
    <i name="e_0_energy">   -128.28256908 </i>
   </energy>
  </scstep>
  <scstep>
   <time name="diag">    0.07    0.07</time>
   <time name="diis">    0.43    0.43</time>
   <time name="orth">    0.01    0.01</time>
   <time name="total">    0.58    0.59</time>
   <energy>
    <i name="e_fr_energy">   -128.29265405 </i>
    <i name="e_wo_entrp">   -128.26244385 </i>
    <i name="e_0_energy">   -128.28258398 </i>
   </energy>
  </scstep>
  <scstep>
   <time name="diag">    0.08    0.08</time>
   <time name="diis">    0.29    0.29</time>
   <time name="orth">    0.01    0.01</time>
   <time name="total">    0.45    0.45</time>
   <energy>
    <i name="e_fr_energy">   -128.29262737 </i>
    <i name="e_wo_entrp">   -128.26218069 </i>
    <i name="e_0_energy">   -128.28247847 </i>
   </energy>
  </scstep>
  <scstep>
   <time name="diag">    0.11    0.11</time>
   <time name="diis">    0.23    0.23</time>
   <time name="orth">    0.01    0.01</time>
   <time name="total">    0.38    0.39</time>
   <energy>
    <i name="alphaZ">   2058.08760021 </i>
    <i name="ewald"> -29676.89137580 </i>
    <i name="hartreedc">  -3302.61823923 </i>
    <i name="XCdc">    374.97986227 </i>
    <i name="pawpsdc">  31840.35021718 </i>
    <i name="pawaedc"> -31135.84986194 </i>
    <i name="eentropy">     -0.03043011 </i>
    <i name="bandstr">   1853.04662831 </i>
    <i name="atom">  27860.63297251 </i>
    <i name="e_fr_energy">   -128.29262660 </i>
    <i name="e_wo_entrp">   -128.26219649 </i>
    <i name="e_0_energy">   -128.28248323 </i>
   </energy>
  </scstep>
  <structure>
   <crystal>
    <varray name="basis" >
     <v>       8.27409643       0.00560178       0.00908210 </v>
     <v>       0.00572436       8.09431649       0.01476759 </v>
     <v>       0.01005241       0.01511979       8.18956006 </v>
    </varray>
    <i name="volume">    548.47782916 </i>
    <varray name="rec_basis" >
     <v>       0.12085934      -0.00008520      -0.00014819 </v>
     <v>      -0.00008339       0.12354395      -0.00022799 </v>
     <v>      -0.00013388      -0.00022268       0.12210726 </v>
    </varray>
   </crystal>
   <varray name="positions" >
    <v>       0.00210802       0.25215531       0.75011008 </v>
    <v>       0.49662760       0.50319331       0.50199055 </v>
    <v>       0.00197004       0.99667524       0.49703528 </v>
    <v>       0.74863048       0.75189522       0.49827976 </v>
    <v>       0.25222127       0.99701529       0.74920542 </v>
    <v>       0.74751091       0.24982181       0.00159396 </v>
    <v>       0.49927511       0.24742576       0.24997177 </v>
    <v>       0.74736504       0.50221153       0.75084399 </v>
    <v>       0.00249087       0.50333332       0.00127316 </v>
    <v>       0.74865660       0.75085331       0.00130250 </v>
    <v>       0.00420405       0.74946460       0.74988155 </v>
    <v>       0.00347894       0.50381507       0.49901990 </v>
    <v>       0.25166138       0.25100488       0.00087282 </v>
    <v>       0.49789939       0.75086679       0.24991205 </v>
    <v>       0.25081206       0.50350916       0.24971010 </v>
    <v>       0.25187695       0.24807860       0.49964076 </v>
    <v>       0.74685650       0.99757601       0.74898646 </v>
    <v>       0.74928542       0.50173525       0.24864859 </v>
    <v>       0.00064747       0.24697034       0.25030583 </v>
    <v>       0.74811475       0.24675007       0.49844909 </v>
    <v>       0.00194966       0.99791546       0.00263607 </v>
    <v>       0.49839863       0.25054166       0.74955667 </v>
    <v>       0.49806073       0.99719753       0.00133551 </v>
    <v>       0.49737025       0.99407460       0.49863145 </v>
    <v>       0.49534547       0.50496917       0.99560215 </v>
    <v>       0.25117177       0.99316786       0.25179352 </v>
    <v>       0.25223958       0.74897923       0.00012776 </v>
    <v>       0.49292093       0.74800228       0.75076943 </v>
    <v>       0.00526022       0.75417222       0.24929579 </v>
    <v>       0.74962100       0.99751445       0.25180524 </v>
    <v>       0.25354609       0.50630929       0.75206362 </v>
    <v>       0.25241882       0.75280239       0.49934715 </v>
   </varray>
  </structure>
  <varray name="forces" >
   <v>       0.01383596       0.01383906      -0.00273421 </v>
   <v>       0.01702674      -0.02359191      -0.02132571 </v>
   <v>      -0.03093697       0.03043370       0.02032614 </v>
   <v>       0.00201590      -0.00232763       0.00806318 </v>
   <v>      -0.01994457       0.03699974       0.02835985 </v>
   <v>      -0.00234399      -0.00270670       0.00208611 </v>
   <v>      -0.01745444      -0.01614679      -0.00363455 </v>
   <v>      -0.00555630       0.01158929      -0.00348675 </v>
   <v>       0.02435228       0.02477608       0.00196183 </v>
   <v>       0.00258098       0.00319921       0.00031632 </v>
   <v>      -0.01366275       0.00792365       0.00855866 </v>
   <v>       0.01062001      -0.00087974       0.00811718 </v>
   <v>       0.00250349      -0.00003211       0.00912866 </v>
   <v>       0.05190073      -0.02421342      -0.04447277 </v>
   <v>       0.00263009      -0.01550846      -0.01592853 </v>
   <v>      -0.00061274       0.00932001       0.00099890 </v>
   <v>      -0.02463868      -0.01493164      -0.01299318 </v>
   <v>       0.00928661       0.00905517      -0.00043938 </v>
   <v>       0.01240739      -0.01178485       0.00387991 </v>
   <v>      -0.01287086      -0.01109326      -0.00527875 </v>
   <v>       0.01493877      -0.01566688       0.01706631 </v>
   <v>      -0.00935150       0.00051933      -0.01557865 </v>
   <v>      -0.01630427      -0.02100870      -0.00162512 </v>
   <v>       0.00131686      -0.00016991       0.00391789 </v>
   <v>      -0.01185733       0.01074176      -0.01682620 </v>
   <v>       0.01270268      -0.00893798       0.02248447 </v>
   <v>      -0.00954157       0.00542278       0.00349219 </v>
   <v>       0.00128409       0.01111841      -0.00687117 </v>
   <v>       0.00706170      -0.01072938       0.02045993 </v>
   <v>       0.00080702      -0.00573659       0.00984411 </v>
   <v>      -0.01153121       0.00962332      -0.01706049 </v>
   <v>      -0.00066415       0.00090443      -0.00080621 </v>
  </varray>
  <varray name="stress" >
   <v>      -0.73998460      -0.05043953      -0.44142154 </v>
   <v>      -0.05043976      -0.25767993       0.01077408 </v>
   <v>      -0.44142163       0.01077349      -1.90460517 </v>
  </varray>
  <energy>
   <i name="e_fr_energy">   -128.29262660 </i>
   <i name="e_wo_entrp">   -128.28248323 </i>
   <i name="e_0_energy">     -0.03043011 </i>
  </energy>
  <time name="totalsc">    5.55    5.72</time>
 </calculation>
 <calculation>
  <scstep>
   <time name="dav">    0.78    0.79</time>
   <time name="total">    0.84    0.84</time>
   <energy>
    <i name="alphaZ">   2057.68495130 </i>
    <i name="ewald"> -29674.96292730 </i>
    <i name="hartreedc">  -3302.39967298 </i>
    <i name="XCdc">    374.91764607 </i>
    <i name="pawpsdc">  31840.40927846 </i>
    <i name="pawaedc"> -31135.91491271 </i>
    <i name="eentropy">     -0.03040765 </i>
    <i name="bandstr">   1851.37028411 </i>
    <i name="atom">  27860.63297251 </i>
    <i name="e_fr_energy">   -128.29278819 </i>
    <i name="e_wo_entrp">   -128.26238054 </i>
    <i name="e_0_energy">   -128.28265231 </i>
   </energy>
  </scstep>
  <scstep>
   <time name="diag">    0.07    0.07</time>
   <time name="diis">    0.40    0.41</time>
   <time name="orth">    0.01    0.01</time>
   <time name="total">    0.54    0.55</time>
   <energy>
    <i name="e_fr_energy">   -128.29265922 </i>
    <i name="e_wo_entrp">   -128.26232869 </i>
    <i name="e_0_energy">   -128.28254904 </i>
   </energy>
  </scstep>
  <scstep>
   <time name="diag">    0.07    0.07</time>
   <time name="diis">    0.36    0.36</time>
   <time name="orth">    0.01    0.01</time>
   <time name="total">    0.47    0.48</time>
   <energy>
    <i name="alphaZ">   2057.68495130 </i>
    <i name="ewald"> -29674.96292730 </i>
    <i name="hartreedc">  -3303.33054788 </i>
    <i name="XCdc">    374.95550966 </i>
    <i name="pawpsdc">  31837.54247257 </i>
    <i name="pawaedc"> -31133.01214492 </i>
    <i name="eentropy">     -0.03051322 </i>
    <i name="bandstr">   1852.22757226 </i>
    <i name="atom">  27860.63297251 </i>
    <i name="e_fr_energy">   -128.29265502 </i>
    <i name="e_wo_entrp">   -128.26214181 </i>
    <i name="e_0_energy">   -128.28248395 </i>
   </energy>
  </scstep>
  <structure>
   <crystal>
    <varray name="basis" >
     <v>       8.27467808       0.00557685       0.00896493 </v>
     <v>       0.00569974       8.09500267       0.01473508 </v>
     <v>       0.00993675       0.01508762       8.18989210 </v>
    </varray>
    <i name="volume">    548.58515560 </i>
    <varray name="rec_basis" >
     <v>       0.12085084      -0.00008483      -0.00014647 </v>
     <v>      -0.00008301       0.12353348      -0.00022748 </v>
     <v>      -0.00013214      -0.00022217       0.12210230 </v>
    </varray>
   </crystal>
   <varray name="positions" >
    <v>       0.00211478       0.25216035       0.75010768 </v>
    <v>       0.49663920       0.50317905       0.50198232 </v>
    <v>       0.00195431       0.99669139       0.49704334 </v>
    <v>       0.74863110       0.75189453       0.49828352 </v>
    <v>       0.25221378       0.99703420       0.74922042 </v>
    <v>       0.74751048       0.24982102       0.00159489 </v>
    <v>       0.49926807       0.24742061       0.24997157 </v>
    <v>       0.74736369       0.50221659       0.75084185 </v>
    <v>       0.00250017       0.50334262       0.00127331 </v>
    <v>       0.74865603       0.75085406       0.00130315 </v>
    <v>       0.00419514       0.74946664       0.74988855 </v>
    <v>       0.00348014       0.50381129       0.49902370 </v>
    <v>       0.25166194       0.25100448       0.00087610 </v>
    <v>       0.49792385       0.75085749       0.24988965 </v>
    <v>       0.25081200       0.50349834       0.24970063 </v>
    <v>       0.25187583       0.24808288       0.49964136 </v>
[...]
       <r>    7.9635    1.0000 </r>
       <r>    8.0039    1.0000 </r>
       <r>    8.0533    1.0000 </r>
       <r>    8.1284    1.0000 </r>
       <r>    8.1633    1.0000 </r>
       <r>    8.1992    1.0000 </r>
       <r>    8.2633    1.0000 </r>
       <r>    8.2878    1.0000 </r>
       <r>    8.3331    1.0000 </r>
       <r>    8.3866    1.0000 </r>
       <r>    8.4144    1.0000 </r>
       <r>    8.4920    1.0000 </r>
       <r>    8.5420    1.0001 </r>
       <r>    8.5731    1.0004 </r>
       <r>    8.6395    1.0029 </r>
       <r>    8.7482    1.0252 </r>
       <r>    8.9033    0.8807 </r>
       <r>    8.9982    0.4053 </r>
       <r>    9.0997    0.0126 </r>
       <r>    9.8376   -0.0000 </r>
       <r>    9.8616   -0.0000 </r>
       <r>    9.9210   -0.0000 </r>
       <r>    9.9734   -0.0000 </r>
       <r>   10.0380   -0.0000 </r>
       <r>   10.0722   -0.0000 </r>
       <r>   10.4390   -0.0000 </r>
       <r>   10.4864   -0.0000 </r>
       <r>   10.5626   -0.0000 </r>
       <r>   10.8973   -0.0000 </r>
       <r>   10.9884   -0.0000 </r>
       <r>   11.0322   -0.0000 </r>
       <r>   12.0340   -0.0000 </r>
       <r>   12.0614   -0.0000 </r>
       <r>   12.1803   -0.0000 </r>
       <r>   12.1921   -0.0000 </r>
       <r>   12.2400   -0.0000 </r>
       <r>   12.3575   -0.0000 </r>
       <r>   12.4523   -0.0000 </r>
       <r>   12.6336   -0.0000 </r>
       <r>   12.7689   -0.0000 </r>
       <r>   13.1684    0.0000 </r>
       <r>   13.3106    0.0000 </r>
       <r>   13.4539    0.0000 </r>
       <r>   13.7821    0.0000 </r>
       <r>   13.8278    0.0000 </r>
       <r>   13.9349    0.0000 </r>
       <r>   14.5047    0.0000 </r>
       <r>   14.6260    0.0000 </r>
       <r>   14.6758    0.0000 </r>
       <r>   14.7286    0.0000 </r>
       <r>   14.7902    0.0000 </r>
       <r>   14.8582    0.0000 </r>
       <r>   15.8635    0.0000 </r>
       <r>   15.9275    0.0000 </r>
       <r>   16.0042    0.0000 </r>
       <r>   16.0703    0.0000 </r>
      </set>
     </set>
    </set>
   </array>
  </eigenvalues>
  <separator name="orbital magnetization" >
   <v name="MAGDIPOLOUT">      0.00000000      0.00000000      0.00000000</v>
  </separator>
  <dos>
   <i name="efermi">      8.98127375 </i>
   <total>
    <array>
     <dimension dim="1">gridpoints</dimension>
     <dimension dim="2">spin</dimension>
     <field>energy</field>
     <field>total</field>
     <field>integrated</field>
     <set>
      <set comment="spin 1">
       <r>    -1.7731     0.0000     0.0000 </r>
       <r>    -1.7066     0.0000     0.0000 </r>
       <r>    -1.6401     0.0000     0.0000 </r>
       <r>    -1.5736     0.0000     0.0000 </r>
       <r>    -1.5071    -0.0000    -0.0000 </r>
       <r>    -1.4405    -0.0000    -0.0000 </r>
       <r>    -1.3740    -0.0000    -0.0000 </r>
       <r>    -1.3075    -0.0000    -0.0000 </r>
       <r>    -1.2410    -0.0000    -0.0000 </r>
       <r>    -1.1745    -0.0000    -0.0000 </r>
       <r>    -1.1079    -0.0000    -0.0000 </r>
       <r>    -1.0414    -0.0000    -0.0000 </r>
       <r>    -0.9749    -0.0000    -0.0000 </r>
       <r>    -0.9084    -0.0000    -0.0000 </r>
       <r>    -0.8418    -0.0000    -0.0000 </r>
       <r>    -0.7753    -0.0000    -0.0000 </r>
       <r>    -0.7088    -0.0002    -0.0000 </r>
       <r>    -0.6423    -0.0014    -0.0001 </r>
       <r>    -0.5758    -0.0069    -0.0006 </r>
       <r>    -0.5092    -0.0186    -0.0018 </r>
       <r>    -0.4427    -0.0108    -0.0025 </r>
       <r>    -0.3762     0.0862     0.0032 </r>
       <r>    -0.3097     0.2739     0.0214 </r>
       <r>    -0.2431     0.3558     0.0451 </r>
       <r>    -0.1766     0.1840     0.0573 </r>
       <r>    -0.1101     0.0857     0.0630 </r>
       <r>    -0.0436     0.6740     0.1079 </r>
       <r>     0.0229     1.8263     0.2294 </r>
       <r>     0.0895     2.2659     0.3801 </r>
       <r>     0.1560     1.3887     0.4725 </r>
       <r>     0.2225     0.7800     0.5244 </r>
       <r>     0.2890     2.1455     0.6671 </r>
       <r>     0.3555     4.2869     0.9523 </r>
       <r>     0.4221     4.3307     1.2403 </r>
       <r>     0.4886     2.3654     1.3977 </r>
       <r>     0.5551     1.4199     1.4921 </r>
       <r>     0.6216     2.3924     1.6513 </r>
       <r>     0.6882     2.9735     1.8491 </r>
       <r>     0.7547     1.8650     1.9732 </r>
       <r>     0.8212     0.6477     2.0162 </r>
       <r>     0.8877     0.8503     2.0728 </r>
       <r>     0.9542     1.7143     2.1869 </r>
       <r>     1.0208     1.7884     2.3058 </r>
       <r>     1.0873     1.8989     2.4321 </r>
       <r>     1.1538     4.2521     2.7150 </r>
       <r>     1.2203     7.8275     3.2357 </r>
       <r>     1.2869     9.2332     3.8499 </r>
       <r>     1.3534     8.8309     4.4374 </r>
       <r>     1.4199     9.0279     5.0379 </r>
       <r>     1.4864     8.4230     5.5982 </r>
       <r>     1.5529     5.2088     5.9447 </r>
       <r>     1.6195     1.4839     6.0434 </r>
       <r>     1.6860    -0.4782     6.0116 </r>
       <r>     1.7525    -0.9938     5.9455 </r>
       <r>     1.8190    -0.2388     5.9296 </r>
       <r>     1.8856     3.4541     6.1594 </r>
       <r>     1.9521     9.9279     6.8198 </r>
       <r>     2.0186    14.3326     7.7733 </r>
       <r>     2.0851    12.9279     8.6332 </r>
       <r>     2.1516     8.2925     9.1849 </r>
       <r>     2.2182     5.2544     9.5344 </r>
       <r>     2.2847     7.1705    10.0114 </r>
       <r>     2.3512    14.9040    11.0028 </r>
       <r>     2.4177    24.7576    12.6498 </r>
       <r>     2.4842    30.1790    14.6573 </r>
       <r>     2.5508    28.1435    16.5295 </r>
       <r>     2.6173    23.2022    18.0729 </r>
       <r>     2.6838    22.8894    19.5956 </r>
       <r>     2.7503    30.2368    21.6070 </r>
       <r>     2.8169    41.9510    24.3976 </r>
       <r>     2.8834    51.0825    27.7957 </r>
       <r>     2.9499    53.4668    31.3524 </r>
       <r>     3.0164    51.6365    34.7874 </r>
       <r>     3.0829    49.6523    38.0904 </r>
       <r>     3.1495    48.7761    41.3350 </r>
       <r>     3.2160    49.9709    44.6592 </r>
       <r>     3.2825    54.7187    48.2992 </r>
       <r>     3.3490    60.9799    52.3557 </r>
       <r>     3.4156    63.3282    56.5684 </r>
       <r>     3.4821    58.5965    60.4663 </r>
       <r>     3.5486    48.3469    63.6825 </r>
       <r>     3.6151    38.1264    66.2187 </r>
       <r>     3.6816    35.4752    68.5786 </r>
       <r>     3.7482    43.3447    71.4619 </r>
       <r>     3.8147    55.0693    75.1252 </r>
       <r>     3.8812    61.0881    79.1889 </r>
       <r>     3.9477    57.3570    83.0044 </r>
       <r>     4.0142    45.8746    86.0561 </r>
       <r>     4.0808    34.7158    88.3655 </r>
       <r>     4.1473    34.0126    90.6280 </r>
       <r>     4.2138    45.4878    93.6540 </r>
       <r>     4.2803    60.4657    97.6763 </r>
       <r>     4.3469    68.7238   102.2479 </r>
       <r>     4.4134    66.9993   106.7048 </r>
       <r>     4.4799    61.2661   110.7803 </r>
       <r>     4.5464    59.4722   114.7365 </r>
       <r>     4.6129    62.6513   118.9042 </r>
       <r>     4.6795    66.5410   123.3306 </r>
       <r>     4.7460    68.1803   127.8661 </r>
       <r>     4.8125    67.4051   132.3500 </r>
       <r>     4.8790    65.2466   136.6904 </r>
       <r>     4.9456    63.9115   140.9419 </r>
       <r>     5.0121    66.3321   145.3544 </r>
       <r>     5.0786    72.7568   150.1943 </r>
       <r>     5.1451    78.7427   155.4324 </r>
       <r>     5.2116    79.8912   160.7469 </r>
       <r>     5.2782    76.5139   165.8368 </r>
       <r>     5.3447    71.4954   170.5928 </r>
       <r>     5.4112    67.2972   175.0695 </r>
       <r>     5.4777    64.7872   179.3793 </r>
       <r>     5.5443    63.3627   183.5943 </r>
       <r>     5.6108    62.6657   187.7629 </r>
       <r>     5.6773    62.5849   191.9262 </r>
       <r>     5.7438    62.1288   196.0591 </r>
       <r>     5.8103    59.9735   200.0487 </r>
       <r>     5.8769    56.6296   203.8158 </r>
       <r>     5.9434    55.5498   207.5110 </r>
       <r>     6.0099    58.6261   211.4110 </r>
       <r>     6.0764    62.3821   215.5607 </r>
       <r>     6.1429    62.9066   219.7454 </r>
       <r>     6.2095    60.6574   223.7804 </r>
       <r>     6.2760    58.0814   227.6441 </r>
       <r>     6.3425    55.9191   231.3640 </r>
       <r>     6.4090    53.2338   234.9052 </r>
       <r>     6.4756    50.2873   238.2504 </r>
       <r>     6.5421    49.6399   241.5525 </r>
       <r>     6.6086    52.2142   245.0259 </r>
       <r>     6.6751    55.0353   248.6869 </r>
       <r>     6.7416    55.8059   252.3992 </r>
       <r>     6.8082    56.2640   256.1420 </r>
       <r>     6.8747    57.7243   259.9820 </r>
       <r>     6.9412    56.9915   263.7731 </r>
       <r>     7.0077    51.7168   267.2134 </r>
       <r>     7.0743    45.3699   270.2315 </r>
       <r>     7.1408    42.3270   273.0472 </r>
       <r>     7.2073    42.7669   275.8921 </r>
       <r>     7.2738    44.5844   278.8580 </r>
       <r>     7.3403    45.7501   281.9013 </r>
       <r>     7.4069    44.8892   284.8875 </r>
       <r>     7.4734    42.4655   287.7123 </r>
       <r>     7.5399    40.1537   290.3834 </r>
       <r>     7.6064    38.9815   292.9766 </r>
       <r>     7.6730    38.6876   295.5501 </r>
       <r>     7.7395    38.7732   298.1294 </r>
       <r>     7.8060    39.5582   300.7609 </r>
       <r>     7.8725    40.7571   303.4721 </r>
       <r>     7.9390    41.2294   306.2148 </r>
       <r>     8.0056    40.9334   308.9377 </r>
       <r>     8.0721    40.6236   311.6401 </r>
       <r>     8.1386    40.9905   314.3669 </r>
       <r>     8.2051    42.5379   317.1966 </r>
       <r>     8.2716    44.5455   320.1598 </r>
       <r>     8.3382    45.0743   323.1582 </r>
       <r>     8.4047    42.8980   326.0119 </r>
       <r>     8.4712    38.8057   328.5933 </r>
       <r>     8.5377    34.4857   330.8874 </r>
       <r>     8.6043    30.7776   332.9347 </r>
       <r>     8.6708    27.7407   334.7801 </r>
       <r>     8.7373    25.7635   336.4939 </r>
       <r>     8.8038    25.5775   338.1954 </r>
       <r>     8.8703    26.9876   339.9907 </r>
       <r>     8.9369    27.8566   341.8437 </r>
       <r>     9.0034    25.1297   343.5154 </r>
       <r>     9.0699    17.9296   344.7081 </r>
       <r>     9.1364     9.4364   345.3358 </r>
       <r>     9.2030     4.3225   345.6234 </r>
       <r>     9.2695     3.9874   345.8886 </r>
       <r>     9.3360     5.4192   346.2491 </r>
       <r>     9.4025     5.0902   346.5877 </r>
       <r>     9.4690     2.9414   346.7834 </r>
       <r>     9.5356     1.8265   346.9049 </r>
       <r>     9.6021     4.0031   347.1712 </r>
       <r>     9.6686     8.8594   347.7605 </r>
       <r>     9.7351    14.0499   348.6952 </r>
       <r>     9.8016    18.1898   349.9052 </r>
       <r>     9.8682    20.3457   351.2586 </r>
       <r>     9.9347    19.0894   352.5285 </r>
       <r>    10.0012    15.1846   353.5386 </r>
       <r>    10.0677    11.3268   354.2921 </r>
       <r>    10.1343     8.7893   354.8767 </r>
       <r>    10.2008     7.2671   355.3602 </r>
       <r>    10.2673     6.4021   355.7860 </r>
       <r>    10.3338     6.5068   356.2189 </r>
       <r>    10.4003     8.0043   356.7513 </r>
       <r>    10.4669     9.5738   357.3882 </r>
       <r>    10.5334     8.8146   357.9746 </r>
       <r>    10.5999     5.6411   358.3498 </r>
       <r>    10.6664     2.3697   358.5075 </r>
       <r>    10.7330     1.6500   358.6172 </r>
       <r>    10.7995     5.6148   358.9907 </r>
       <r>    10.8660    13.2472   359.8720 </r>
       <r>    10.9325    19.1466   361.1456 </r>
       <r>    10.9990    20.3710   362.5007 </r>
       <r>    11.0656    19.8377   363.8204 </r>
       <r>    11.1321    18.9692   365.0822 </r>
       <r>    11.1986    16.0700   366.1513 </r>
       <r>    11.2651    11.5031   366.9165 </r>
       <r>    11.3317     6.8141   367.3697 </r>
       <r>    11.3982     2.7616   367.5535 </r>
       <r>    11.4647     0.6081   367.5939 </r>
       <r>    11.5312     1.1557   367.6708 </r>
       <r>    11.5977     3.3367   367.8927 </r>
       <r>    11.6643     5.5588   368.2625 </r>
       <r>    11.7308     6.7248   368.7099 </r>
       <r>    11.7973     6.2272   369.1241 </r>
       <r>    11.8638     5.0858   369.4624 </r>
       <r>    11.9303     5.3267   369.8168 </r>
       <r>    11.9969     7.4818   370.3145 </r>
       <r>    12.0634    10.5015   371.0130 </r>
       <r>    12.1299    12.9401   371.8738 </r>
       <r>    12.1964    13.6187   372.7798 </r>
       <r>    12.2630    12.1735   373.5896 </r>
       <r>    12.3295     9.4183   374.2161 </r>
       <r>    12.3960     6.7363   374.6642 </r>
       <r>    12.4625     4.8497   374.9868 </r>
       <r>    12.5290     4.2883   375.2721 </r>
       <r>    12.5956     6.5688   375.7091 </r>
       <r>    12.6621    12.3950   376.5336 </r>
       <r>    12.7286    18.6052   377.7713 </r>
       <r>    12.7951    20.0463   379.1048 </r>
       <r>    12.8617    15.7445   380.1521 </r>
       <r>    12.9282    10.3758   380.8423 </r>
       <r>    12.9947     8.3140   381.3954 </r>
       <r>    13.0612     9.0451   381.9971 </r>
       <r>    13.1277     9.6097   382.6364 </r>
       <r>    13.1943     8.6468   383.2116 </r>
       <r>    13.2608     6.7695   383.6619 </r>
       <r>    13.3273     5.1084   384.0017 </r>
       <r>    13.3938     4.0435   384.2707 </r>
       <r>    13.4603     3.0795   384.4755 </r>
       <r>    13.5269     2.3536   384.6321 </r>
       <r>    13.5934     3.6815   384.8770 </r>
       <r>    13.6599     8.7034   385.4560 </r>
       <r>    13.7264    17.0171   386.5880 </r>
       <r>    13.7930    25.7815   388.3030 </r>
       <r>    13.8595    29.1348   390.2411 </r>
       <r>    13.9260    23.0246   391.7727 </r>
       <r>    13.9925    11.8476   392.5609 </r>
       <r>    14.0590     3.4311   392.7891 </r>
       <r>    14.1256     0.1982   392.8023 </r>
       <r>    14.1921     0.5517   392.8390 </r>
       <r>    14.2586     3.5255   393.0735 </r>
       <r>    14.3251     7.8736   393.5973 </r>
       <r>    14.3917    11.2126   394.3432 </r>
       <r>    14.4582    13.5771   395.2463 </r>
       <r>    14.5247    17.1813   396.3893 </r>
       <r>    14.5912    21.6398   397.8288 </r>
       <r>    14.6577    24.2643   399.4429 </r>
       <r>    14.7243    23.5110   401.0069 </r>
       <r>    14.7908    19.7144   402.3183 </r>
       <r>    14.8573    14.0608   403.2537 </r>
       <r>    14.9238     8.0053   403.7862 </r>
       <r>    14.9904     3.3797   404.0110 </r>
       <r>    15.0569     1.1381   404.0867 </r>
       <r>    15.1234     0.4977   404.1198 </r>
       <r>    15.1899     0.6992   404.1663 </r>
       <r>    15.2564     1.6944   404.2791 </r>
       <r>    15.3230     2.6850   404.4577 </r>
       <r>    15.3895     2.7445   404.6402 </r>
       <r>    15.4560     3.0183   404.8410 </r>
       <r>    15.5225     5.2360   405.1893 </r>
       <r>    15.5890     7.9741   405.7198 </r>
       <r>    15.6556     7.8891   406.2446 </r>
       <r>    15.7221     5.0550   406.5808 </r>
       <r>    15.7886     3.7568   406.8308 </r>
       <r>    15.8551     7.2171   407.3109 </r>
       <r>    15.9217    13.3623   408.1997 </r>
       <r>    15.9882    17.3416   409.3533 </r>
       <r>    16.0547    16.9110   410.4783 </r>
       <r>    16.1212    13.0483   411.3463 </r>
       <r>    16.1877     8.2422   411.8946 </r>
       <r>    16.2543     5.3679   412.2516 </r>
       <r>    16.3208     5.5126   412.6184 </r>
       <r>    16.3873     7.7367   413.1330 </r>
       <r>    16.4538    10.2830   413.8171 </r>
       <r>    16.5204    11.0491   414.5521 </r>
       <r>    16.5869     9.4291   415.1793 </r>
       <r>    16.6534     6.8013   415.6317 </r>
       <r>    16.7199     4.1302   415.9065 </r>
       <r>    16.7864     1.6961   416.0193 </r>
       <r>    16.8530     0.1673   416.0305 </r>
       <r>    16.9195    -0.2491   416.0139 </r>
       <r>    16.9860    -0.1549   416.0036 </r>
       <r>    17.0525    -0.0451   416.0006 </r>
       <r>    17.1191    -0.0078   416.0001 </r>
       <r>    17.1856    -0.0008   416.0000 </r>
       <r>    17.2521    -0.0001   416.0000 </r>
       <r>    17.3186    -0.0000   416.0000 </r>
       <r>    17.3851    -0.0000   416.0000 </r>
       <r>    17.4517    -0.0000   416.0000 </r>
       <r>    17.5182    -0.0000   416.0000 </r>
       <r>    17.5847    -0.0000   416.0000 </r>
       <r>    17.6512    -0.0000   416.0000 </r>
       <r>    17.7177     0.0000   416.0000 </r>
       <r>    17.7843     0.0000   416.0000 </r>
       <r>    17.8508     0.0000   416.0000 </r>
       <r>    17.9173     0.0000   416.0000 </r>
       <r>    17.9838     0.0000   416.0000 </r>
       <r>    18.0504     0.0000   416.0000 </r>
       <r>    18.1169     0.0000   416.0000 </r>
       <r>    18.1834     0.0000   416.0000 </r>
      </set>
     </set>
    </array>
   </total>
  </dos>
 </calculation>
 <structure name="finalpos" >
  <crystal>
   <varray name="basis" >
    <v>       8.27105929       0.00649614       0.00285618 </v>
    <v>       0.00656518       8.13009440       0.01302173 </v>
    <v>       0.00391300       0.01349186       8.14981027 </v>
   </varray>
   <i name="volume">    548.02796719 </i>
   <varray name="rec_basis" >
    <v>       0.12090359      -0.00009754      -0.00005789 </v>
    <v>      -0.00009653       0.12300021      -0.00020358 </v>
    <v>      -0.00004222      -0.00019649       0.12270259 </v>
   </varray>
  </crystal>
  <varray name="positions" >
   <v>       0.00183845       0.25298067       0.75069141 </v>
   <v>       0.49721848       0.50262453       0.50091887 </v>
   <v>       0.00105989       0.99775138       0.49809039 </v>
   <v>       0.74866905       0.75158607       0.49850530 </v>
   <v>       0.25140656       0.99806906       0.74982973 </v>
   <v>       0.74755772       0.24946021       0.00156404 </v>
   <v>       0.49905593       0.24666582       0.24943113 </v>
   <v>       0.74719216       0.50235733       0.75076476 </v>
   <v>       0.00330856       0.50424842       0.00128141 </v>
   <v>       0.74921665       0.75087592       0.00102872 </v>
   <v>       0.00375448       0.75033753       0.75000988 </v>
   <v>       0.00368727       0.50380039       0.49929487 </v>
   <v>       0.25170287       0.25109947       0.00109036 </v>
   <v>       0.49924327       0.74974195       0.24886552 </v>
   <v>       0.25136681       0.50335322       0.24926208 </v>
   <v>       0.25178585       0.24842906       0.49953628 </v>
   <v>       0.74572148       0.99756572       0.74910403 </v>
   <v>       0.75023598       0.50127257       0.24813508 </v>
   <v>       0.00108468       0.24668214       0.25054653 </v>
   <v>       0.74756908       0.24651047       0.49825450 </v>
   <v>       0.00211190       0.99763662       0.00364417 </v>
   <v>       0.49782440       0.25071539       0.74924190 </v>
   <v>       0.49756544       0.99652827       0.00123297 </v>
   <v>       0.49707872       0.99358876       0.49852899 </v>
   <v>       0.49528314       0.50505531       0.99466087 </v>
   <v>       0.25169053       0.99238649       0.25281175 </v>
   <v>       0.25204450       0.74930060       0.00014203 </v>
   <v>       0.49239979       0.74821120       0.75018103 </v>
   <v>       0.00579704       0.75405368       0.25066949 </v>
   <v>       0.74959483       0.99706653       0.25207792 </v>
   <v>       0.25332773       0.50702076       0.75124302 </v>
   <v>       0.25260278       0.75302146       0.49935897 </v>
  </varray>
 </structure>
</modeling>
