  32  32   0   0
  0.1685425E+02  0.8066328E-09  0.8184621E-09  0.8169392E-09  0.5000000E-15
  1.000000000000000E-004
  CAR 
 automatically generated by mexm         
     39.85006880    -20.21315623  301      9.88103272      1.00000000
    -20.213  0.0000E+00  0.0000E+00
    -20.013  0.0000E+00  0.0000E+00
    -19.813  0.0000E+00  0.0000E+00
    -19.613  0.0000E+00  0.0000E+00
    -19.412  0.0000E+00  0.0000E+00
    -19.212  0.0000E+00  0.0000E+00
    -19.012  0.0000E+00  0.0000E+00
    -18.812  0.0000E+00  0.0000E+00
    -18.611  0.0000E+00  0.0000E+00
    -18.411  0.0000E+00  0.0000E+00
    -18.211  0.0000E+00  0.0000E+00
    -18.011  0.0000E+00  0.0000E+00
    -17.811  0.0000E+00  0.0000E+00
    -17.610  0.0000E+00  0.0000E+00
    -17.410  0.0000E+00  0.0000E+00
    -17.210  0.0000E+00  0.0000E+00
    -17.010  0.0000E+00  0.0000E+00
    -16.810  0.0000E+00  0.0000E+00
    -16.609  0.0000E+00  0.0000E+00
    -16.409  0.0000E+00  0.0000E+00
    -16.209  0.0000E+00  0.0000E+00
    -16.009  0.0000E+00  0.0000E+00
    -15.809  0.0000E+00  0.0000E+00
    -15.608  0.0000E+00  0.0000E+00
    -15.408  0.0000E+00  0.0000E+00
    -15.208  0.0000E+00  0.0000E+00
    -15.008  0.0000E+00  0.0000E+00
    -14.807  0.0000E+00  0.0000E+00
    -14.607  0.0000E+00  0.0000E+00
    -14.407  0.0000E+00  0.0000E+00
    -14.207  0.0000E+00  0.0000E+00
    -14.007  0.0000E+00  0.0000E+00
    -13.806  0.0000E+00  0.0000E+00
    -13.606  0.0000E+00  0.0000E+00
    -13.406  0.0000E+00  0.0000E+00
    -13.206  0.0000E+00  0.0000E+00
    -13.006  0.0000E+00  0.0000E+00
    -12.805  0.0000E+00  0.0000E+00
    -12.605  0.0000E+00  0.0000E+00
    -12.405  0.0000E+00  0.0000E+00
    -12.205  0.0000E+00  0.0000E+00
    -12.005  0.2054E-16  0.4112E-17
    -11.804  0.2054E-16  0.8224E-17
    -11.604  0.2259E-15  0.5346E-16
    -11.404  0.9037E-15  0.2344E-15
    -11.204  0.2156E-14  0.6661E-15
    -11.003  0.7106E-14  0.2089E-14
    -10.803  0.2148E-13  0.6390E-14
    -10.603  0.6336E-13  0.1908E-13
    -10.403  0.1843E-12  0.5598E-13
    -10.203  0.5237E-12  0.1608E-12
    -10.002  0.1462E-11  0.4535E-12
     -9.802  0.4001E-11  0.1255E-11
     -9.602  0.1074E-10  0.3406E-11
     -9.402  0.2830E-10  0.9071E-11
     -9.202  0.7311E-10  0.2371E-10
     -9.001  0.1853E-09  0.6080E-10
     -8.801  0.4606E-09  0.1530E-09
     -8.601  0.1123E-08  0.3779E-09
     -8.401  0.2687E-08  0.9160E-09
     -8.201  0.6308E-08  0.2179E-08
     -8.000  0.1452E-07  0.5087E-08
     -7.800  0.3281E-07  0.1166E-07
     -7.600  0.7273E-07  0.2622E-07
     -7.400  0.1582E-06  0.5788E-07
     -7.199  0.3375E-06  0.1255E-06
     -6.999  0.7067E-06  0.2669E-06
     -6.799  0.1452E-05  0.5576E-06
     -6.599  0.2928E-05  0.1144E-05
     -6.399  0.5794E-05  0.2304E-05
     -6.198  0.1125E-04  0.4557E-05
     -5.998  0.2145E-04  0.8851E-05
     -5.798  0.4014E-04  0.1689E-04
     -5.598  0.7375E-04  0.3165E-04
     -5.398  0.1330E-03  0.5829E-04
     -5.197  0.2356E-03  0.1055E-03
     -4.997  0.4098E-03  0.1875E-03
     -4.797  0.7001E-03  0.3277E-03
     -4.597  0.1175E-02  0.5629E-03
     -4.397  0.1938E-02  0.9509E-03
     -4.196  0.3141E-02  0.1580E-02
     -3.996  0.5003E-02  0.2581E-02
     -3.796  0.7838E-02  0.4151E-02
     -3.596  0.1208E-01  0.6569E-02
     -3.395  0.1831E-01  0.1024E-01
     -3.195  0.2733E-01  0.1571E-01
     -2.995  0.4017E-01  0.2375E-01
     -2.795  0.5818E-01  0.3540E-01
     -2.595  0.8307E-01  0.5203E-01
     -2.394  0.1170E+00  0.7545E-01
     -2.194  0.1627E+00  0.1080E+00
     -1.994  0.2234E+00  0.1527E+00
     -1.794  0.3033E+00  0.2135E+00
     -1.594  0.4073E+00  0.2950E+00
     -1.393  0.5414E+00  0.4034E+00
     -1.193  0.7130E+00  0.5461E+00
     -0.993  0.9307E+00  0.7325E+00
     -0.793  0.1205E+01  0.9737E+00
     -0.593  0.1547E+01  0.1283E+01
     -0.392  0.1972E+01  0.1678E+01
     -0.192  0.2495E+01  0.2178E+01
      0.008  0.3133E+01  0.2805E+01
      0.208  0.3904E+01  0.3587E+01
      0.409  0.4827E+01  0.4553E+01
      0.609  0.5920E+01  0.5738E+01
      0.809  0.7199E+01  0.7180E+01
      1.009  0.8679E+01  0.8917E+01
      1.209  0.1037E+02  0.1099E+02
      1.410  0.1227E+02  0.1345E+02
      1.610  0.1439E+02  0.1633E+02
      1.810  0.1670E+02  0.1967E+02
      2.010  0.1920E+02  0.2352E+02
      2.210  0.2185E+02  0.2789E+02
      2.411  0.2464E+02  0.3283E+02
      2.611  0.2751E+02  0.3833E+02
      2.811  0.3043E+02  0.4442E+02
      3.011  0.3335E+02  0.5110E+02
      3.212  0.3624E+02  0.5836E+02
      3.412  0.3904E+02  0.6617E+02
      3.612  0.4172E+02  0.7453E+02
      3.812  0.4423E+02  0.8338E+02
      4.012  0.4655E+02  0.9270E+02
      4.213  0.4863E+02  0.1024E+03
      4.413  0.5047E+02  0.1125E+03
      4.613  0.5204E+02  0.1230E+03
      4.813  0.5332E+02  0.1336E+03
      5.013  0.5431E+02  0.1445E+03
      5.214  0.5500E+02  0.1555E+03
      5.414  0.5539E+02  0.1666E+03
      5.614  0.5549E+02  0.1777E+03
      5.814  0.5531E+02  0.1888E+03
      6.014  0.5485E+02  0.1998E+03
      6.215  0.5413E+02  0.2106E+03
      6.415  0.5316E+02  0.2213E+03
      6.615  0.5196E+02  0.2317E+03
      6.815  0.5055E+02  0.2418E+03
      7.016  0.4894E+02  0.2516E+03
      7.216  0.4715E+02  0.2610E+03
      7.416  0.4519E+02  0.2701E+03
      7.616  0.4309E+02  0.2787E+03
      7.816  0.4086E+02  0.2869E+03
      8.017  0.3854E+02  0.2946E+03
      8.217  0.3614E+02  0.3018E+03
      8.417  0.3371E+02  0.3086E+03
      8.617  0.3127E+02  0.3148E+03
      8.817  0.2886E+02  0.3206E+03
      9.018  0.2651E+02  0.3259E+03
      9.218  0.2426E+02  0.3308E+03
      9.418  0.2213E+02  0.3352E+03
      9.618  0.2016E+02  0.3392E+03
      9.818  0.1836E+02  0.3429E+03
     10.019  0.1674E+02  0.3463E+03
     10.219  0.1531E+02  0.3493E+03
     10.419  0.1407E+02  0.3522E+03
     10.619  0.1302E+02  0.3548E+03
     10.820  0.1213E+02  0.3572E+03
     11.020  0.1141E+02  0.3595E+03
     11.220  0.1083E+02  0.3616E+03
     11.420  0.1038E+02  0.3637E+03
     11.620  0.1004E+02  0.3657E+03
     11.821  0.9795E+01  0.3677E+03
     12.021  0.9629E+01  0.3696E+03
     12.221  0.9529E+01  0.3715E+03
     12.421  0.9483E+01  0.3734E+03
     12.621  0.9478E+01  0.3753E+03
     12.822  0.9506E+01  0.3772E+03
     13.022  0.9556E+01  0.3791E+03
     13.222  0.9621E+01  0.3811E+03
     13.422  0.9694E+01  0.3830E+03
     13.622  0.9769E+01  0.3850E+03
     13.823  0.9840E+01  0.3869E+03
     14.023  0.9905E+01  0.3889E+03
     14.223  0.9962E+01  0.3909E+03
     14.423  0.1001E+02  0.3929E+03
     14.624  0.1005E+02  0.3949E+03
     14.824  0.1008E+02  0.3969E+03
     15.024  0.1011E+02  0.3990E+03
     15.224  0.1013E+02  0.4010E+03
     15.424  0.1016E+02  0.4030E+03
     15.625  0.1018E+02  0.4051E+03
     15.825  0.1021E+02  0.4071E+03
     16.025  0.1024E+02  0.4092E+03
     16.225  0.1026E+02  0.4112E+03
     16.425  0.1028E+02  0.4133E+03
     16.626  0.1028E+02  0.4153E+03
     16.826  0.1027E+02  0.4174E+03
     17.026  0.1023E+02  0.4194E+03
     17.226  0.1016E+02  0.4215E+03
     17.426  0.1005E+02  0.4235E+03
     17.627  0.9900E+01  0.4255E+03
     17.827  0.9699E+01  0.4274E+03
     18.027  0.9447E+01  0.4293E+03
     18.227  0.9141E+01  0.4311E+03
     18.428  0.8781E+01  0.4329E+03
     18.628  0.8370E+01  0.4346E+03
     18.828  0.7913E+01  0.4361E+03
     19.028  0.7414E+01  0.4376E+03
     19.228  0.6882E+01  0.4390E+03
     19.429  0.6325E+01  0.4403E+03
     19.629  0.5752E+01  0.4414E+03
     19.829  0.5175E+01  0.4425E+03
     20.029  0.4604E+01  0.4434E+03
     20.229  0.4047E+01  0.4442E+03
     20.430  0.3514E+01  0.4449E+03
     20.630  0.3012E+01  0.4455E+03
     20.830  0.2549E+01  0.4460E+03
     21.030  0.2127E+01  0.4464E+03
     21.230  0.1751E+01  0.4468E+03
     21.431  0.1420E+01  0.4471E+03
     21.631  0.1135E+01  0.4473E+03
     21.831  0.8934E+00  0.4475E+03
     22.031  0.6923E+00  0.4476E+03
     22.232  0.5279E+00  0.4477E+03
     22.432  0.3961E+00  0.4478E+03
     22.632  0.2923E+00  0.4479E+03
     22.832  0.2120E+00  0.4479E+03
     23.032  0.1512E+00  0.4479E+03
     23.233  0.1060E+00  0.4480E+03
     23.433  0.7296E-01  0.4480E+03
     23.633  0.4934E-01  0.4480E+03
     23.833  0.3277E-01  0.4480E+03
     24.033  0.2137E-01  0.4480E+03
     24.234  0.1368E-01  0.4480E+03
     24.434  0.8594E-02  0.4480E+03
     24.634  0.5300E-02  0.4480E+03
     24.834  0.3207E-02  0.4480E+03
     25.034  0.1904E-02  0.4480E+03
     25.235  0.1109E-02  0.4480E+03
     25.435  0.6341E-03  0.4480E+03
     25.635  0.3555E-03  0.4480E+03
     25.835  0.1955E-03  0.4480E+03
     26.036  0.1054E-03  0.4480E+03
     26.236  0.5577E-04  0.4480E+03
     26.436  0.2893E-04  0.4480E+03
     26.636  0.1472E-04  0.4480E+03
     26.836  0.7344E-05  0.4480E+03
     27.037  0.3593E-05  0.4480E+03
     27.237  0.1723E-05  0.4480E+03
     27.437  0.8106E-06  0.4480E+03
     27.637  0.3738E-06  0.4480E+03
     27.837  0.1690E-06  0.4480E+03
     28.038  0.7495E-07  0.4480E+03
     28.238  0.3258E-07  0.4480E+03
     28.438  0.1388E-07  0.4480E+03
     28.638  0.5801E-08  0.4480E+03
     28.838  0.2376E-08  0.4480E+03
     29.039  0.9543E-09  0.4480E+03
     29.239  0.3757E-09  0.4480E+03
     29.439  0.1450E-09  0.4480E+03
     29.639  0.5488E-10  0.4480E+03
     29.840  0.2036E-10  0.4480E+03
     30.040  0.7404E-11  0.4480E+03
     30.240  0.2639E-11  0.4480E+03
     30.440  0.9222E-12  0.4480E+03
     30.640  0.3156E-12  0.4480E+03
     30.841  0.1053E-12  0.4480E+03
     31.041  0.3508E-13  0.4480E+03
     31.241  0.1158E-13  0.4480E+03
     31.441  0.4518E-14  0.4480E+03
     31.641  0.4929E-15  0.4480E+03
     31.842  0.0000E+00  0.4480E+03
     32.042  0.0000E+00  0.4480E+03
     32.242  0.0000E+00  0.4480E+03
     32.442  0.0000E+00  0.4480E+03
     32.642  0.0000E+00  0.4480E+03
     32.843  0.0000E+00  0.4480E+03
     33.043  0.0000E+00  0.4480E+03
     33.243  0.0000E+00  0.4480E+03
     33.443  0.0000E+00  0.4480E+03
     33.644  0.0000E+00  0.4480E+03
     33.844  0.0000E+00  0.4480E+03
     34.044  0.0000E+00  0.4480E+03
     34.244  0.0000E+00  0.4480E+03
     34.444  0.0000E+00  0.4480E+03
     34.645  0.0000E+00  0.4480E+03
     34.845  0.0000E+00  0.4480E+03
     35.045  0.0000E+00  0.4480E+03
     35.245  0.0000E+00  0.4480E+03
     35.445  0.0000E+00  0.4480E+03
     35.646  0.0000E+00  0.4480E+03
     35.846  0.0000E+00  0.4480E+03
     36.046  0.0000E+00  0.4480E+03
     36.246  0.0000E+00  0.4480E+03
     36.446  0.0000E+00  0.4480E+03
     36.647  0.0000E+00  0.4480E+03
     36.847  0.0000E+00  0.4480E+03
     37.047  0.0000E+00  0.4480E+03
     37.247  0.0000E+00  0.4480E+03
     37.448  0.0000E+00  0.4480E+03
     37.648  0.0000E+00  0.4480E+03
     37.848  0.0000E+00  0.4480E+03
     38.048  0.0000E+00  0.4480E+03
     38.248  0.0000E+00  0.4480E+03
     38.449  0.0000E+00  0.4480E+03
     38.649  0.0000E+00  0.4480E+03
     38.849  0.0000E+00  0.4480E+03
     39.049  0.0000E+00  0.4480E+03
     39.249  0.0000E+00  0.4480E+03
     39.450  0.0000E+00  0.4480E+03
     39.650  0.0000E+00  0.4480E+03
     39.850  0.0000E+00  0.4480E+03
