  32  32   0   0
  0.1685425E+02  0.8066328E-09  0.8184621E-09  0.8169392E-09  0.1500000E-15
  1.000000000000000E-004
  CAR 
 automatically generated by mexm         
     18.09596830     -1.81735501  301      8.92126934      1.00000000
     -1.817  0.0000E+00  0.0000E+00
     -1.751  0.0000E+00  0.0000E+00
     -1.685  0.0000E+00  0.0000E+00
     -1.618  0.0000E+00  0.0000E+00
     -1.552 -0.3318E-31 -0.2202E-32
     -1.485 -0.3756E-28 -0.2495E-29
     -1.419 -0.2866E-25 -0.1905E-26
     -1.353 -0.1473E-22 -0.9794E-24
     -1.286 -0.5092E-20 -0.3390E-21
     -1.220 -0.1184E-17 -0.7893E-19
     -1.154 -0.1790E-15 -0.1196E-16
     -1.087 -0.1866E-13 -0.1251E-14
     -1.021 -0.1301E-11 -0.8759E-13
     -0.954 -0.6042E-10 -0.4098E-11
     -0.888 -0.1863E-08 -0.1277E-09
     -0.822 -0.3784E-07 -0.2639E-08
     -0.755 -0.5007E-06 -0.3587E-07
     -0.689 -0.4226E-05 -0.3164E-06
     -0.623 -0.2178E-04 -0.1762E-05
     -0.556 -0.6063E-04 -0.5786E-05
     -0.490 -0.4154E-04 -0.8544E-05
     -0.423  0.2639E-03  0.8974E-05
     -0.357  0.8833E-03  0.6760E-04
     -0.291  0.1188E-02  0.1465E-03
     -0.224  0.6501E-03  0.1896E-03
     -0.158  0.2855E-03  0.2086E-03
     -0.092  0.2144E-02  0.3509E-03
     -0.025  0.5957E-02  0.7463E-03
      0.041  0.7570E-02  0.1249E-02
      0.108  0.4783E-02  0.1566E-02
      0.174  0.2658E-02  0.1743E-02
      0.240  0.7006E-02  0.2208E-02
      0.307  0.1415E-01  0.3147E-02
      0.373  0.1454E-01  0.4112E-02
      0.439  0.8107E-02  0.4650E-02
      0.506  0.4818E-02  0.4970E-02
      0.572  0.7930E-02  0.5496E-02
      0.639  0.9910E-02  0.6154E-02
      0.705  0.6308E-02  0.6573E-02
      0.771  0.2266E-02  0.6723E-02
      0.838  0.2869E-02  0.6914E-02
      0.904  0.5641E-02  0.7288E-02
      0.971  0.5939E-02  0.7682E-02
      1.037  0.6556E-02  0.8117E-02
      1.103  0.1443E-01  0.9075E-02
      1.170  0.2606E-01  0.1081E-01
      1.236  0.3079E-01  0.1285E-01
      1.302  0.2984E-01  0.1483E-01
      1.369  0.3037E-01  0.1685E-01
      1.435  0.2782E-01  0.1869E-01
      1.502  0.1698E-01  0.1982E-01
      1.568  0.4806E-02  0.2014E-01
      1.634 -0.1615E-02  0.2003E-01
      1.701 -0.3251E-02  0.1982E-01
      1.767 -0.3834E-03  0.1979E-01
      1.833  0.1221E-01  0.2060E-01
      1.900  0.3335E-01  0.2281E-01
      1.966  0.4748E-01  0.2597E-01
      2.033  0.4295E-01  0.2882E-01
      2.099  0.2776E-01  0.3066E-01
      2.165  0.1824E-01  0.3187E-01
      2.232  0.2600E-01  0.3360E-01
      2.298  0.5181E-01  0.3704E-01
      2.364  0.8262E-01  0.4252E-01
      2.431  0.9881E-01  0.4908E-01
      2.497  0.9185E-01  0.5518E-01
      2.564  0.7732E-01  0.6031E-01
      2.630  0.7994E-01  0.6561E-01
      2.696  0.1068E+00  0.7271E-01
      2.763  0.1437E+00  0.8225E-01
      2.829  0.1701E+00  0.9354E-01
      2.895  0.1773E+00  0.1053E+00
      2.962  0.1728E+00  0.1168E+00
      3.028  0.1665E+00  0.1278E+00
      3.095  0.1640E+00  0.1387E+00
      3.161  0.1698E+00  0.1500E+00
      3.227  0.1868E+00  0.1624E+00
      3.294  0.2068E+00  0.1761E+00
      3.360  0.2120E+00  0.1902E+00
      3.426  0.1930E+00  0.2030E+00
      3.493  0.1579E+00  0.2135E+00
      3.559  0.1288E+00  0.2220E+00
      3.626  0.1290E+00  0.2306E+00
      3.692  0.1591E+00  0.2411E+00
      3.758  0.1912E+00  0.2538E+00
      3.825  0.1988E+00  0.2670E+00
      3.891  0.1786E+00  0.2789E+00
      3.958  0.1442E+00  0.2885E+00
      4.024  0.1177E+00  0.2963E+00
      4.090  0.1211E+00  0.3043E+00
      4.157  0.1605E+00  0.3150E+00
      4.223  0.2114E+00  0.3290E+00
      4.289  0.2358E+00  0.3447E+00
      4.356  0.2235E+00  0.3595E+00
      4.422  0.2011E+00  0.3728E+00
      4.489  0.1955E+00  0.3858E+00
      4.555  0.2075E+00  0.3996E+00
      4.621  0.2235E+00  0.4144E+00
      4.688  0.2334E+00  0.4299E+00
      4.754  0.2328E+00  0.4454E+00
      4.820  0.2228E+00  0.4601E+00
      4.887  0.2162E+00  0.4745E+00
      4.953  0.2284E+00  0.4897E+00
      5.020  0.2551E+00  0.5066E+00
      5.086  0.2729E+00  0.5247E+00
      5.152  0.2693E+00  0.5426E+00
      5.219  0.2533E+00  0.5594E+00
      5.285  0.2376E+00  0.5752E+00
      5.351  0.2268E+00  0.5902E+00
      5.418  0.2199E+00  0.6048E+00
      5.484  0.2134E+00  0.6190E+00
      5.551  0.2047E+00  0.6326E+00
      5.617  0.1968E+00  0.6456E+00
      5.683  0.1967E+00  0.6587E+00
      5.750  0.2014E+00  0.6721E+00
      5.816  0.1994E+00  0.6853E+00
      5.882  0.1935E+00  0.6981E+00
      5.949  0.1962E+00  0.7112E+00
      6.015  0.2047E+00  0.7248E+00
      6.082  0.2076E+00  0.7385E+00
      6.148  0.2039E+00  0.7521E+00
      6.214  0.1971E+00  0.7651E+00
      6.281  0.1864E+00  0.7775E+00
      6.347  0.1718E+00  0.7889E+00
      6.413  0.1611E+00  0.7996E+00
      6.480  0.1623E+00  0.8104E+00
      6.546  0.1721E+00  0.8218E+00
      6.613  0.1827E+00  0.8339E+00
      6.679  0.1901E+00  0.8466E+00
      6.745  0.1939E+00  0.8594E+00
      6.812  0.1939E+00  0.8723E+00
      6.878  0.1868E+00  0.8847E+00
      6.945  0.1698E+00  0.8960E+00
      7.011  0.1496E+00  0.9059E+00
      7.077  0.1384E+00  0.9151E+00
      7.144  0.1415E+00  0.9245E+00
      7.210  0.1521E+00  0.9346E+00
      7.276  0.1589E+00  0.9451E+00
      7.343  0.1565E+00  0.9555E+00
      7.409  0.1479E+00  0.9653E+00
      7.476  0.1392E+00  0.9746E+00
      7.542  0.1343E+00  0.9835E+00
      7.608  0.1318E+00  0.9922E+00
      7.675  0.1300E+00  0.1001E+01
      7.741  0.1306E+00  0.1010E+01
      7.807  0.1345E+00  0.1018E+01
      7.874  0.1405E+00  0.1028E+01
      7.940  0.1458E+00  0.1037E+01
      8.007  0.1482E+00  0.1047E+01
      8.073  0.1465E+00  0.1057E+01
      8.139  0.1433E+00  0.1067E+01
      8.206  0.1423E+00  0.1076E+01
      8.272  0.1428E+00  0.1085E+01
      8.338  0.1387E+00  0.1095E+01
      8.405  0.1238E+00  0.1103E+01
      8.471  0.9980E-01  0.1110E+01
      8.538  0.8030E-01  0.1115E+01
      8.604  0.7618E-01  0.1120E+01
      8.670  0.8167E-01  0.1125E+01
      8.737  0.8657E-01  0.1131E+01
      8.803  0.8945E-01  0.1137E+01
      8.869  0.8764E-01  0.1143E+01
      8.936  0.7149E-01  0.1148E+01
      9.002  0.4285E-01  0.1150E+01
      9.069  0.1941E-01  0.1152E+01
      9.135  0.1187E-01  0.1152E+01
      9.201  0.1434E-01  0.1153E+01
      9.268  0.1698E-01  0.1155E+01
      9.334  0.1665E-01  0.1156E+01
      9.400  0.1577E-01  0.1157E+01
      9.467  0.1682E-01  0.1158E+01
      9.533  0.2252E-01  0.1159E+01
      9.600  0.3580E-01  0.1162E+01
      9.666  0.5216E-01  0.1165E+01
      9.732  0.6161E-01  0.1169E+01
      9.799  0.6095E-01  0.1173E+01
      9.865  0.5427E-01  0.1177E+01
      9.932  0.4550E-01  0.1180E+01
      9.998  0.3627E-01  0.1182E+01
     10.064  0.2685E-01  0.1184E+01
     10.131  0.1896E-01  0.1185E+01
     10.197  0.1769E-01  0.1187E+01
     10.263  0.2551E-01  0.1188E+01
     10.330  0.3496E-01  0.1191E+01
     10.396  0.3506E-01  0.1193E+01
     10.463  0.2417E-01  0.1194E+01
     10.529  0.1050E-01  0.1195E+01
     10.595  0.3784E-02  0.1195E+01
     10.662  0.1014E-01  0.1196E+01
     10.728  0.3008E-01  0.1198E+01
     10.794  0.5435E-01  0.1202E+01
     10.861  0.6866E-01  0.1206E+01
     10.927  0.6963E-01  0.1211E+01
     10.994  0.6475E-01  0.1215E+01
     11.060  0.5793E-01  0.1219E+01
     11.126  0.4735E-01  0.1222E+01
     11.193  0.3149E-01  0.1224E+01
     11.259  0.1405E-01  0.1225E+01
     11.325  0.3295E-02  0.1225E+01
     11.392  0.2450E-02  0.1226E+01
     11.458  0.7605E-02  0.1226E+01
     11.525  0.1488E-01  0.1227E+01
     11.591  0.2087E-01  0.1228E+01
     11.657  0.2164E-01  0.1230E+01
     11.724  0.1794E-01  0.1231E+01
     11.790  0.1600E-01  0.1232E+01
     11.856  0.2153E-01  0.1234E+01
     11.923  0.3337E-01  0.1236E+01
     11.989  0.4318E-01  0.1239E+01
     12.056  0.4411E-01  0.1242E+01
     12.122  0.3836E-01  0.1244E+01
     12.188  0.3241E-01  0.1246E+01
     12.255  0.2757E-01  0.1248E+01
     12.321  0.2140E-01  0.1250E+01
     12.387  0.1544E-01  0.1251E+01
     12.454  0.1782E-01  0.1252E+01
     12.520  0.3474E-01  0.1254E+01
     12.587  0.5749E-01  0.1258E+01
     12.653  0.6690E-01  0.1262E+01
     12.719  0.5608E-01  0.1266E+01
     12.786  0.3907E-01  0.1269E+01
     12.852  0.3034E-01  0.1271E+01
     12.919  0.2975E-01  0.1273E+01
     12.985  0.3175E-01  0.1275E+01
     13.051  0.3227E-01  0.1277E+01
     13.118  0.2763E-01  0.1279E+01
     13.184  0.1830E-01  0.1280E+01
     13.250  0.1029E-01  0.1281E+01
     13.317  0.7833E-02  0.1281E+01
     13.383  0.8965E-02  0.1282E+01
     13.450  0.1287E-01  0.1283E+01
     13.516  0.2427E-01  0.1284E+01
     13.582  0.4559E-01  0.1287E+01
     13.649  0.7179E-01  0.1292E+01
     13.715  0.9020E-01  0.1298E+01
     13.781  0.8502E-01  0.1304E+01
     13.848  0.5578E-01  0.1307E+01
     13.914  0.2372E-01  0.1309E+01
     13.981  0.6360E-02  0.1309E+01
     14.047  0.3246E-02  0.1310E+01
     14.113  0.9566E-02  0.1310E+01
     14.180  0.2178E-01  0.1312E+01
     14.246  0.3422E-01  0.1314E+01
     14.312  0.4480E-01  0.1317E+01
     14.379  0.5501E-01  0.1320E+01
     14.445  0.6186E-01  0.1325E+01
     14.512  0.6450E-01  0.1329E+01
     14.578  0.6897E-01  0.1333E+01
     14.644  0.7188E-01  0.1338E+01
     14.711  0.6143E-01  0.1342E+01
     14.777  0.3951E-01  0.1345E+01
     14.843  0.2004E-01  0.1346E+01
     14.910  0.9641E-02  0.1347E+01
     14.976  0.5593E-02  0.1347E+01
     15.043  0.4546E-02  0.1348E+01
     15.109  0.4481E-02  0.1348E+01
     15.175  0.4516E-02  0.1348E+01
     15.242  0.5809E-02  0.1349E+01
     15.308  0.1022E-01  0.1349E+01
     15.374  0.1827E-01  0.1350E+01
     15.441  0.2608E-01  0.1352E+01
     15.507  0.2620E-01  0.1354E+01
     15.574  0.1803E-01  0.1355E+01
     15.640  0.1270E-01  0.1356E+01
     15.706  0.2068E-01  0.1357E+01
     15.773  0.3854E-01  0.1360E+01
     15.839  0.5276E-01  0.1363E+01
     15.906  0.5510E-01  0.1367E+01
     15.972  0.4722E-01  0.1370E+01
     16.038  0.3340E-01  0.1372E+01
     16.105  0.2075E-01  0.1374E+01
     16.171  0.1787E-01  0.1375E+01
     16.237  0.2410E-01  0.1377E+01
     16.304  0.3079E-01  0.1379E+01
     16.370  0.3361E-01  0.1381E+01
     16.437  0.3295E-01  0.1383E+01
     16.503  0.2763E-01  0.1385E+01
     16.569  0.1794E-01  0.1386E+01
     16.636  0.8301E-02  0.1387E+01
     16.702  0.2235E-02  0.1387E+01
     16.768 -0.2163E-03  0.1387E+01
     16.835 -0.5691E-03  0.1387E+01
     16.901 -0.2883E-03  0.1387E+01
     16.968 -0.8026E-04  0.1387E+01
     17.034 -0.1377E-04  0.1387E+01
     17.100 -0.1513E-05  0.1387E+01
     17.167 -0.1083E-06  0.1387E+01
     17.233 -0.5109E-08  0.1387E+01
     17.299 -0.1600E-09  0.1387E+01
     17.366 -0.3340E-11  0.1387E+01
     17.432 -0.4666E-13  0.1387E+01
     17.499 -0.4378E-15  0.1387E+01
     17.565 -0.1652E-17  0.1387E+01
     17.631  0.0000E+00  0.1387E+01
     17.698  0.0000E+00  0.1387E+01
     17.764  0.0000E+00  0.1387E+01
     17.830  0.0000E+00  0.1387E+01
     17.897  0.0000E+00  0.1387E+01
     17.963  0.0000E+00  0.1387E+01
     18.030  0.0000E+00  0.1387E+01
     18.096  0.0000E+00  0.1387E+01
