   32   32  300    1
  0.1685425E+02  0.8066328E-09  0.8184621E-09  0.8169392E-09  0.1500000E-15
  1.000000000000000E-004
  CAR 
 automatically generated by mexm         
    344     14    208
 
  0.0000000E+00  0.0000000E+00  0.0000000E+00  0.3703704E-01
    1       -0.317355   1.000000
    2        2.024492   1.000000
    3        2.033913   1.000000
    4        2.051626   1.000000
    5        2.101517   1.000000
    6        2.117105   1.000000
    7        2.191444   1.000000
    8        2.232757   1.000000
    9        2.251765   1.000000
   10        2.257751   1.000000
   11        2.292520   1.000000
   12        2.466128   1.000000
   13        2.513533   1.000000
   14        2.547904   1.000000
   15        2.789922   1.000000
   16        2.811435   1.000000
   17        2.851910   1.000000
   18        3.349202   1.000000
   19        3.365237   1.000000
   20        3.367791   1.000000
   21        3.377772   1.000000
   22        3.395454   1.000000
   23        3.406655   1.000000
   24        3.425892   1.000000
   25        3.440144   1.000000
   26        3.485007   1.000000
   27        3.497215   1.000000
   28        3.501305   1.000000
   29        3.511882   1.000000
   30        3.520822   1.000000
   31        3.534436   1.000000
   32        3.549096   1.000000
   33        3.584333   1.000000
   34        3.623971   1.000000
   35        3.696339   1.000000
   36        3.713749   1.000000
   37        3.722743   1.000000
   38        3.794247   1.000000
   39        3.803777   1.000000
   40        3.822391   1.000000
   41        3.843836   1.000000
   42        4.119943   1.000000
   43        4.128514   1.000000
   44        4.154130   1.000000
   45        4.160187   1.000000
   46        4.169202   1.000000
   47        4.200880   1.000000
   48        4.216018   1.000000
   49        4.244333   1.000000
   50        4.256475   1.000000
   51        4.278686   1.000000
   52        4.304700   1.000000
   53        4.317859   1.000000
   54        4.331179   1.000000
   55        4.340887   1.000000
   56        4.360622   1.000000
   57        4.408602   1.000000
   58        4.444183   1.000000
   59        4.453825   1.000000
   60        4.473753   1.000000
   61        4.502231   1.000000
   62        4.516634   1.000000
   63        4.529310   1.000000
   64        4.533480   1.000000
   65        4.545862   1.000000
   66        4.579010   1.000000
   67        4.586219   1.000000
   68        4.594064   1.000000
   69        4.626301   1.000000
   70        4.658545   1.000000
   71        4.688535   1.000000
   72        4.712944   1.000000
   73        4.735105   1.000000
   74        4.745893   1.000000
   75        4.781305   1.000000
   76        4.800636   1.000000
   77        4.819701   1.000000
   78        4.843419   1.000000
   79        4.863036   1.000000
   80        4.895385   1.000000
   81        4.922283   1.000000
   82        4.955589   1.000000
   83        4.991547   1.000000
   84        5.030024   1.000000
   85        5.061699   1.000000
   86        5.105105   1.000000
   87        5.134278   1.000000
   88        5.297572   1.000000
   89        5.376278   1.000000
   90        5.410151   1.000000
   91        5.492339   1.000000
   92        5.495785   1.000000
   93        5.532458   1.000000
   94        5.541266   1.000000
   95        5.548473   1.000000
   96        5.667442   1.000000
   97        5.701444   1.000000
   98        5.727099   1.000000
   99        5.768060   1.000000
  100        5.818571   1.000000
  101        5.841316   1.000000
  102        5.872763   1.000000
  103        5.898001   1.000000
  104        5.918332   1.000000
  105        5.924415   1.000000
  106        5.949255   1.000000
  107        5.966493   1.000000
  108        5.993144   1.000000
  109        5.996519   1.000000
  110        6.046722   1.000000
  111        6.062867   1.000000
  112        6.089922   1.000000
  113        6.129521   1.000000
  114        6.139434   1.000000
  115        6.171461   1.000000
  116        6.200975   1.000000
  117        6.234982   1.000000
  118        6.271946   1.000000
  119        6.290663   1.000000
  120        6.309065   1.000000
  121        6.333730   1.000000
  122        6.352620   1.000000
  123        6.369027   1.000000
  124        6.419181   1.000000
  125        6.444042   1.000000
  126        6.471131   1.000000
  127        6.520315   1.000000
  128        6.579672   1.000000
  129        6.619316   1.000000
  130        6.633147   1.000000
  131        6.654115   1.000000
  132        6.678079   1.000000
  133        6.760438   1.000000
  134        6.825316   1.000000
  135        6.871004   1.000000
  136        6.928941   1.000000
  137        7.026329   1.000000
  138        7.123141   1.000000
  139        7.219805   1.000000
  140        7.265902   1.000000
  141        7.327859   1.000000
  142        7.352667   1.000000
  143        7.386601   1.000000
  144        7.474165   1.000000
  145        7.497326   1.000000
  146        7.548584   1.000000
  147        7.610546   1.000000
  148        7.656240   1.000000
  149        7.728167   1.000000
  150        7.798044   1.000000
  151        7.853483   1.000000
  152        7.968306   1.000000
  153        8.033756   1.000000
  154        8.060633   1.000000
  155        8.102094   1.000000
  156        8.187882   1.000000
  157        8.210223   1.000000
  158        8.276396   1.000000
  159        8.331985   1.000000
  160        8.348085   1.000000
  161        8.400349   1.000005
  162        8.439283   1.000027
  163        8.466524   1.000078
  164        8.500322   1.000265
  165        8.536529   1.000862
  166        8.550270   1.001303
  167        8.589752   1.003827
  168        8.605531   1.005613
  169        8.635071   1.010639
  170        8.673225   1.020609
  171        8.759548   1.031452
  172        9.313250  -0.000688
  173        9.418090  -0.000015
  174        9.499015  -0.000000
  175        9.570425  -0.000000
  176        9.592753  -0.000000
  177        9.606587  -0.000000
  178        9.621510  -0.000000
  179        9.657750  -0.000000
  180        9.716314  -0.000000
  181        9.736456  -0.000000
  182        9.776182  -0.000000
  183        9.835928  -0.000000
  184       10.358980  -0.000000
  185       10.487872  -0.000000
  186       10.741632  -0.000000
  187       12.685666  -0.000000
  188       12.705532  -0.000000
  189       12.734302  -0.000000
  190       12.754620  -0.000000
  191       13.978082   0.000000
  192       14.022596   0.000000
  193       14.223175   0.000000
  194       14.364291   0.000000
  195       14.420242   0.000000
  196       14.621500   0.000000
  197       15.196111   0.000000
  198       15.418887   0.000000
  199       15.598237   0.000000
  200       15.666692   0.000000
  201       15.692076   0.000000
  202       15.707382   0.000000
  203       15.727897   0.000000
  204       15.831919   0.000000
  205       15.881663   0.000000
  206       15.897033   0.000000
  207       15.931876   0.000000
  208       15.952919   0.000000
 
  0.3333333E+00  0.2619350E-19 -0.4235165E-21  0.7407407E-01
    1       -0.003290   1.000000
    2        0.883688   1.000000
    3        2.272749   1.000000
    4        2.311785   1.000000
    5        2.324642   1.000000
    6        2.370333   1.000000
    7        2.404651   1.000000
    8        2.420788   1.000000
    9        2.430028   1.000000
   10        2.459329   1.000000
   11        2.543940   1.000000
   12        2.673273   1.000000
   13        2.707222   1.000000
   14        2.727885   1.000000
   15        2.809792   1.000000
   16        2.829242   1.000000
   17        2.862713   1.000000
   18        2.889909   1.000000
   19        2.902246   1.000000
   20        2.928417   1.000000
   21        2.943603   1.000000
   22        2.985296   1.000000
   23        3.038666   1.000000
   24        3.040757   1.000000
   25        3.078884   1.000000
   26        3.218064   1.000000
   27        3.228111   1.000000
   28        3.306587   1.000000
   29        3.513860   1.000000
   30        3.550788   1.000000
   31        3.651002   1.000000
   32        3.665540   1.000000
   33        3.678448   1.000000
   34        3.691910   1.000000
   35        3.718686   1.000000
   36        3.743519   1.000000
   37        3.765129   1.000000
   38        3.803655   1.000000
   39        3.826186   1.000000
   40        3.875486   1.000000
   41        3.931571   1.000000
   42        3.952967   1.000000
   43        4.021043   1.000000
   44        4.031396   1.000000
   45        4.065919   1.000000
   46        4.076552   1.000000
   47        4.135030   1.000000
   48        4.172104   1.000000
   49        4.212560   1.000000
   50        4.222984   1.000000
   51        4.242131   1.000000
   52        4.245586   1.000000
   53        4.278979   1.000000
   54        4.290088   1.000000
   55        4.311838   1.000000
   56        4.336480   1.000000
   57        4.358934   1.000000
   58        4.382005   1.000000
   59        4.394968   1.000000
   60        4.413947   1.000000
   61        4.452457   1.000000
   62        4.516199   1.000000
   63        4.542250   1.000000
   64        4.572410   1.000000
   65        4.586029   1.000000
   66        4.624571   1.000000
   67        4.654740   1.000000
   68        4.715915   1.000000
   69        4.749152   1.000000
   70        4.784269   1.000000
   71        4.802130   1.000000
   72        4.822092   1.000000
   73        4.859084   1.000000
   74        4.878381   1.000000
   75        4.926056   1.000000
   76        4.964878   1.000000
   77        4.977162   1.000000
   78        4.998382   1.000000
   79        5.020147   1.000000
   80        5.066185   1.000000
   81        5.082653   1.000000
   82        5.141026   1.000000
   83        5.157356   1.000000
   84        5.201829   1.000000
   85        5.242995   1.000000
   86        5.261358   1.000000
   87        5.270600   1.000000
   88        5.329648   1.000000
   89        5.353507   1.000000
   90        5.403867   1.000000
   91        5.436265   1.000000
   92        5.494783   1.000000
   93        5.520327   1.000000
   94        5.582016   1.000000
   95        5.656637   1.000000
   96        5.692389   1.000000
   97        5.711968   1.000000
   98        5.742066   1.000000
   99        5.773154   1.000000
  100        5.786880   1.000000
  101        5.840853   1.000000
  102        5.864142   1.000000
  103        5.879787   1.000000
  104        5.900075   1.000000
  105        5.925921   1.000000
  106        5.963080   1.000000
  107        6.008431   1.000000
  108        6.034419   1.000000
  109        6.084886   1.000000
  110        6.112898   1.000000
  111        6.125968   1.000000
  112        6.156571   1.000000
  113        6.196821   1.000000
  114        6.206746   1.000000
  115        6.264731   1.000000
  116        6.307301   1.000000
  117        6.347179   1.000000
  118        6.383094   1.000000
  119        6.417940   1.000000
  120        6.462568   1.000000
  121        6.509235   1.000000
  122        6.550734   1.000000
  123        6.576848   1.000000
  124        6.607960   1.000000
  125        6.623164   1.000000
  126        6.647278   1.000000
  127        6.677982   1.000000
  128        6.696868   1.000000
  129        6.733495   1.000000
  130        6.773380   1.000000
  131        6.784829   1.000000
  132        6.836967   1.000000
  133        6.858186   1.000000
  134        6.875403   1.000000
  135        6.889661   1.000000
  136        6.955182   1.000000
  137        7.010415   1.000000
  138        7.047534   1.000000
  139        7.102023   1.000000
  140        7.129509   1.000000
  141        7.171154   1.000000
  142        7.215301   1.000000
  143        7.242243   1.000000
  144        7.269381   1.000000
  145        7.300629   1.000000
  146        7.385469   1.000000
  147        7.460901   1.000000
  148        7.517751   1.000000
  149        7.548272   1.000000
  150        7.617412   1.000000
  151        7.703271   1.000000
  152        7.773624   1.000000
  153        7.824733   1.000000
  154        7.858129   1.000000
  155        7.882795   1.000000
  156        7.942365   1.000000
  157        7.985741   1.000000
  158        8.009708   1.000000
  159        8.045255   1.000000
  160        8.082516   1.000000
  161        8.150874   1.000000
  162        8.243867   1.000000
  163        8.277144   1.000000
  164        8.345534   1.000000
  165        8.380897   1.000002
  166        8.419538   1.000012
  167        8.462478   1.000067
  168        8.623635   1.008410
  169        8.689926   1.025733
  170        8.722238   1.034064
  171        8.767669   1.027442
  172        8.853193   0.843705
  173        9.134483  -0.030963
  174        9.161085  -0.023123
  175        9.225156  -0.007346
  176        9.251601  -0.003943
  177        9.625946  -0.000000
  178        9.636892  -0.000000
  179        9.817200  -0.000000
  180        9.847865  -0.000000
  181       10.603895  -0.000000
  182       10.720596  -0.000000
  183       10.861704  -0.000000
  184       10.902456  -0.000000
  185       11.673974  -0.000000
  186       11.902239  -0.000000
  187       12.390433  -0.000000
  188       12.558494  -0.000000
  189       12.639274  -0.000000
  190       12.840622  -0.000000
  191       13.508763   0.000000
  192       13.543935   0.000000
  193       13.609905   0.000000
  194       13.621122   0.000000
  195       13.714000   0.000000
  196       13.909419   0.000000
  197       14.549103   0.000000
  198       14.643104   0.000000
  199       15.099176   0.000000
  200       15.289637   0.000000
  201       15.701136   0.000000
  202       15.788178   0.000000
  203       15.808814   0.000000
  204       15.917951   0.000000
  205       16.303291   0.000000
  206       16.374011   0.000000
  207       16.461772   0.000000
  208       16.480110   0.000000
 
 -0.3300451E-20  0.3333333E+00 -0.1084202E-18  0.7407407E-01
    1        0.011481   1.000000
    2        0.939874   1.000000
    3        2.253629   1.000000
    4        2.266092   1.000000
    5        2.287543   1.000000
    6        2.348437   1.000000
    7        2.394447   1.000000
    8        2.428528   1.000000
    9        2.433996   1.000000
   10        2.462090   1.000000
   11        2.601042   1.000000
   12        2.675859   1.000000
   13        2.729919   1.000000
   14        2.766785   1.000000
   15        2.823588   1.000000
   16        2.831073   1.000000
   17        2.857230   1.000000
   18        2.883936   1.000000
   19        2.926638   1.000000
   20        2.948646   1.000000
   21        2.954048   1.000000
   22        2.983202   1.000000
   23        3.010576   1.000000
   24        3.025486   1.000000
   25        3.066895   1.000000
   26        3.225581   1.000000
   27        3.287345   1.000000
   28        3.326248   1.000000
   29        3.481452   1.000000
   30        3.510186   1.000000
   31        3.648659   1.000000
   32        3.657801   1.000000
   33        3.668177   1.000000
   34        3.692633   1.000000
   35        3.699939   1.000000
   36        3.729580   1.000000
   37        3.752381   1.000000
   38        3.789355   1.000000
   39        3.862749   1.000000
   40        3.888672   1.000000
   41        3.905115   1.000000
   42        3.944046   1.000000
   43        3.973918   1.000000
   44        4.005818   1.000000
   45        4.048378   1.000000
   46        4.074810   1.000000
   47        4.177747   1.000000
   48        4.191330   1.000000
   49        4.206173   1.000000
   50        4.222060   1.000000
   51        4.233399   1.000000
   52        4.250504   1.000000
   53        4.252061   1.000000
   54        4.271501   1.000000
   55        4.285834   1.000000
   56        4.325047   1.000000
   57        4.350796   1.000000
   58        4.371980   1.000000
   59        4.415471   1.000000
   60        4.447612   1.000000
   61        4.476093   1.000000
   62        4.528989   1.000000
   63        4.538871   1.000000
   64        4.558633   1.000000
   65        4.598679   1.000000
   66        4.634075   1.000000
   67        4.683508   1.000000
   68        4.706109   1.000000
   69        4.741588   1.000000
   70        4.754856   1.000000
   71        4.776544   1.000000
   72        4.831105   1.000000
   73        4.861976   1.000000
   74        4.871536   1.000000
   75        4.896341   1.000000
   76        4.930478   1.000000
   77        4.958976   1.000000
   78        4.994133   1.000000
   79        5.007891   1.000000
   80        5.028962   1.000000
   81        5.033686   1.000000
   82        5.073361   1.000000
   83        5.110580   1.000000
   84        5.152389   1.000000
   85        5.198640   1.000000
   86        5.222243   1.000000
   87        5.243707   1.000000
   88        5.284266   1.000000
   89        5.305156   1.000000
   90        5.345028   1.000000
   91        5.373847   1.000000
   92        5.418473   1.000000
   93        5.473918   1.000000
   94        5.526806   1.000000
   95        5.630372   1.000000
   96        5.659069   1.000000
   97        5.717696   1.000000
   98        5.739076   1.000000
   99        5.767520   1.000000
  100        5.878915   1.000000
  101        5.927368   1.000000
  102        5.938268   1.000000
  103        5.966483   1.000000
  104        5.983007   1.000000
  105        5.994078   1.000000
  106        6.018372   1.000000
  107        6.047127   1.000000
  108        6.073873   1.000000
  109        6.113779   1.000000
  110        6.145287   1.000000
  111        6.175247   1.000000
  112        6.208590   1.000000
  113        6.242110   1.000000
  114        6.260787   1.000000
  115        6.282471   1.000000
  116        6.333509   1.000000
  117        6.350183   1.000000
  118        6.386470   1.000000
  119        6.433509   1.000000
  120        6.489623   1.000000
  121        6.510447   1.000000
  122        6.543515   1.000000
  123        6.584728   1.000000
  124        6.614747   1.000000
  125        6.631077   1.000000
  126        6.667873   1.000000
  127        6.688838   1.000000
  128        6.731680   1.000000
  129        6.743072   1.000000
  130        6.800044   1.000000
  131        6.816236   1.000000
  132        6.840713   1.000000
  133        6.854161   1.000000
  134        6.873656   1.000000
  135        6.891833   1.000000
  136        6.933444   1.000000
  137        6.958706   1.000000
  138        7.017231   1.000000
  139        7.071321   1.000000
  140        7.161418   1.000000
  141        7.180377   1.000000
  142        7.205200   1.000000
  143        7.236114   1.000000
  144        7.330310   1.000000
  145        7.388051   1.000000
  146        7.433274   1.000000
  147        7.476757   1.000000
  148        7.537362   1.000000
  149        7.550230   1.000000
  150        7.567592   1.000000
  151        7.673564   1.000000
  152        7.717833   1.000000
  153        7.782094   1.000000
  154        7.855158   1.000000
  155        7.894472   1.000000
  156        7.923116   1.000000
  157        7.972751   1.000000
  158        8.004630   1.000000
  159        8.089124   1.000000
  160        8.136003   1.000000
  161        8.163220   1.000000
  162        8.242532   1.000000
  163        8.257082   1.000000
  164        8.341354   1.000000
  165        8.390947   1.000003
  166        8.426589   1.000016
  167        8.561911   1.001822
  168        8.682221   1.023359
  169        8.721258   1.033895
  170        8.814169   0.964667
  171        8.823076   0.943021
  172        8.868344   0.778987
  173        8.881098   0.717880
  174        9.043706   0.005913
  175        9.242639  -0.004912
  176        9.317467  -0.000602
  177        9.432913  -0.000008
  178        9.589679  -0.000000
  179        9.612472  -0.000000
  180        9.693548  -0.000000
  181       10.808107  -0.000000
  182       10.878537  -0.000000
  183       10.949206  -0.000000
  184       10.983214  -0.000000
  185       11.640973  -0.000000
  186       11.767170  -0.000000
  187       12.674801  -0.000000
  188       12.744367  -0.000000
  189       12.828433  -0.000000
  190       12.948086  -0.000000
  191       13.624506   0.000000
  192       13.647630   0.000000
  193       13.661090   0.000000
  194       13.707200   0.000000
  195       13.770275   0.000000
  196       13.849675   0.000000
  197       14.204757   0.000000
  198       14.420811   0.000000
  199       14.902120   0.000000
  200       15.033561   0.000000
  201       15.946613   0.000000
  202       15.968035   0.000000
  203       16.030968   0.000000
  204       16.079487   0.000000
  205       16.213304   0.000000
  206       16.257721   0.000000
  207       16.306464   0.000000
  208       16.331680   0.000000
 
  0.3333333E+00  0.3333333E+00 -0.3252607E-18  0.7407407E-01
    1        0.310152   1.000000
    2        1.154653   1.000000
    3        1.204460   1.000000
    4        1.904339   1.000000
    5        2.356625   1.000000
    6        2.382337   1.000000
    7        2.401754   1.000000
    8        2.453379   1.000000
    9        2.586702   1.000000
   10        2.615417   1.000000
   11        2.629737   1.000000
   12        2.655528   1.000000
   13        2.722421   1.000000
   14        2.758369   1.000000
   15        2.776597   1.000000
   16        2.823551   1.000000
   17        2.836443   1.000000
   18        2.937634   1.000000
   19        2.989867   1.000000
   20        3.078807   1.000000
   21        3.095309   1.000000
   22        3.175156   1.000000
   23        3.202295   1.000000
   24        3.224488   1.000000
   25        3.254493   1.000000
   26        3.302267   1.000000
   27        3.319510   1.000000
   28        3.341047   1.000000
   29        3.362746   1.000000
   30        3.379366   1.000000
   31        3.394369   1.000000
   32        3.457472   1.000000
   33        3.470453   1.000000
   34        3.534369   1.000000
   35        3.567983   1.000000
   36        3.596538   1.000000
   37        3.620871   1.000000
   38        3.678319   1.000000
   39        3.727741   1.000000
   40        3.777527   1.000000
   41        3.805612   1.000000
   42        3.857854   1.000000
   43        3.876328   1.000000
   44        3.930979   1.000000
   45        3.946790   1.000000
   46        4.022011   1.000000
   47        4.095654   1.000000
   48        4.162471   1.000000
   49        4.192749   1.000000
   50        4.224759   1.000000
   51        4.251885   1.000000
   52        4.279405   1.000000
   53        4.311939   1.000000
   54        4.342034   1.000000
   55        4.418786   1.000000
   56        4.442890   1.000000
   57        4.464327   1.000000
   58        4.516789   1.000000
   59        4.545247   1.000000
   60        4.586634   1.000000
   61        4.608173   1.000000
   62        4.626913   1.000000
   63        4.634755   1.000000
   64        4.677034   1.000000
   65        4.735620   1.000000
   66        4.753837   1.000000
   67        4.774414   1.000000
   68        4.811215   1.000000
   69        4.820716   1.000000
   70        4.851740   1.000000
   71        4.879457   1.000000
   72        4.915083   1.000000
   73        4.951770   1.000000
   74        4.973175   1.000000
   75        5.002292   1.000000
   76        5.029704   1.000000
   77        5.037113   1.000000
   78        5.061295   1.000000
   79        5.084351   1.000000
   80        5.129502   1.000000
   81        5.142739   1.000000
   82        5.154692   1.000000
   83        5.168793   1.000000
   84        5.211730   1.000000
   85        5.243642   1.000000
   86        5.270237   1.000000
   87        5.317680   1.000000
   88        5.344573   1.000000
   89        5.367195   1.000000
   90        5.407989   1.000000
   91        5.427784   1.000000
   92        5.459121   1.000000
   93        5.486103   1.000000
   94        5.505442   1.000000
   95        5.538593   1.000000
   96        5.562907   1.000000
   97        5.595350   1.000000
   98        5.633998   1.000000
   99        5.654371   1.000000
  100        5.669509   1.000000
  101        5.705711   1.000000
  102        5.736006   1.000000
  103        5.769998   1.000000
  104        5.810175   1.000000
  105        5.839255   1.000000
  106        5.883703   1.000000
  107        5.909773   1.000000
  108        5.969199   1.000000
  109        6.007045   1.000000
  110        6.028539   1.000000
  111        6.058786   1.000000
  112        6.078055   1.000000
  113        6.135097   1.000000
  114        6.164410   1.000000
  115        6.221923   1.000000
  116        6.271783   1.000000
  117        6.311713   1.000000
  118        6.388423   1.000000
  119        6.443406   1.000000
  120        6.463029   1.000000
  121        6.508913   1.000000
  122        6.532870   1.000000
  123        6.575122   1.000000
  124        6.615727   1.000000
  125        6.651304   1.000000
  126        6.671317   1.000000
  127        6.706911   1.000000
  128        6.735381   1.000000
  129        6.777317   1.000000
  130        6.810462   1.000000
  131        6.837877   1.000000
  132        6.860199   1.000000
  133        6.890022   1.000000
  134        6.941092   1.000000
  135        6.980104   1.000000
  136        7.037419   1.000000
  137        7.066707   1.000000
  138        7.122729   1.000000
  139        7.154934   1.000000
  140        7.189022   1.000000
  141        7.229889   1.000000
  142        7.286153   1.000000
  143        7.322082   1.000000
  144        7.372185   1.000000
  145        7.401480   1.000000
  146        7.443617   1.000000
  147        7.491258   1.000000
  148        7.527990   1.000000
  149        7.578266   1.000000
  150        7.593580   1.000000
  151        7.646844   1.000000
  152        7.701725   1.000000
  153        7.780586   1.000000
  154        7.803296   1.000000
  155        7.840292   1.000000
  156        7.909126   1.000000
  157        7.928937   1.000000
  158        7.983689   1.000000
  159        8.025933   1.000000
  160        8.065311   1.000000
  161        8.110640   1.000000
  162        8.156845   1.000000
  163        8.163001   1.000000
  164        8.233433   1.000000
  165        8.281050   1.000000
  166        8.331021   1.000000
  167        8.390507   1.000003
  168        8.485966   1.000160
  169        8.583849   1.003293
  170        8.638084   1.011289
  171        8.706525   1.030560
  172        8.792793   1.003125
  173        8.840953   0.888940
  174        8.870459   0.769245
  175        9.638461  -0.000000
  176        9.818870  -0.000000
  177       10.071356  -0.000000
  178       10.268016  -0.000000
  179       10.748459  -0.000000
  180       10.803345  -0.000000
  181       10.923526  -0.000000
  182       11.004192  -0.000000
  183       11.134351  -0.000000
  184       11.176777  -0.000000
  185       11.539560  -0.000000
  186       11.708021  -0.000000
  187       12.072874  -0.000000
  188       12.607412  -0.000000
  189       12.638332  -0.000000
  190       12.681197  -0.000000
  191       12.869077  -0.000000
  192       12.929656  -0.000000
  193       13.557942   0.000000
  194       13.686753   0.000000
  195       13.726258   0.000000
  196       13.801142   0.000000
  197       14.147947   0.000000
  198       14.234829   0.000000
  199       14.387411   0.000000
  200       14.435595   0.000000
  201       14.489249   0.000000
  202       14.547640   0.000000
  203       14.680933   0.000000
  204       15.423639   0.000000
  205       15.499063   0.000000
  206       16.019841   0.000000
  207       16.283001   0.000000
  208       16.486469   0.000000
 
 -0.3333333E+00  0.3333333E+00 -0.1084202E-18  0.7407407E-01
    1        0.312355   1.000000
    2        1.153220   1.000000
    3        1.198073   1.000000
    4        1.911597   1.000000
    5        2.355931   1.000000
    6        2.383299   1.000000
    7        2.413685   1.000000
    8        2.461622   1.000000
    9        2.581550   1.000000
   10        2.603726   1.000000
   11        2.631597   1.000000
   12        2.665951   1.000000
   13        2.728847   1.000000
   14        2.731366   1.000000
   15        2.780262   1.000000
   16        2.820916   1.000000
   17        2.843727   1.000000
   18        2.938259   1.000000
   19        2.988634   1.000000
   20        3.054725   1.000000
   21        3.117987   1.000000
   22        3.154258   1.000000
   23        3.221387   1.000000
   24        3.242273   1.000000
   25        3.249230   1.000000
   26        3.293945   1.000000
   27        3.309048   1.000000
   28        3.342118   1.000000
   29        3.359016   1.000000
   30        3.389963   1.000000
   31        3.402151   1.000000
   32        3.434695   1.000000
   33        3.488195   1.000000
   34        3.546173   1.000000
   35        3.565666   1.000000
   36        3.582157   1.000000
   37        3.627885   1.000000
   38        3.702872   1.000000
   39        3.726460   1.000000
   40        3.770288   1.000000
   41        3.772629   1.000000
   42        3.821059   1.000000
   43        3.860791   1.000000
   44        3.938895   1.000000
   45        3.972821   1.000000
   46        4.020809   1.000000
   47        4.094300   1.000000
   48        4.131383   1.000000
   49        4.225642   1.000000
   50        4.259833   1.000000
   51        4.261465   1.000000
   52        4.283230   1.000000
   53        4.296823   1.000000
   54        4.353251   1.000000
   55        4.396149   1.000000
   56        4.452564   1.000000
   57        4.483647   1.000000
   58        4.505575   1.000000
   59        4.553300   1.000000
   60        4.580891   1.000000
   61        4.594771   1.000000