 vasp.5.4.1 05Feb16 (build Jan 29 2020 16:04:39) complex                        
  
 executed on           IFC91_ompi date 2020.02.29  23:01:29
 running on  224 total cores
 distrk:  each k-point on  224 cores,    1 groups
 distr:  one band on NCORES_PER_BAND=   1 cores,  224 groups


--------------------------------------------------------------------------------------------------------


 INCAR:
 POTCAR:    PAW_PBE Au 04Oct2007                  
 POTCAR:    PAW_PBE Pt 04Feb2005                  

 ----------------------------------------------------------------------------- 
|                                                                             |
|           W    W    AA    RRRRR   N    N  II  N    N   GGGG   !!!           |
|           W    W   A  A   R    R  NN   N  II  NN   N  G    G  !!!           |
|           W    W  A    A  R    R  N N  N  II  N N  N  G       !!!           |
|           W WW W  AAAAAA  RRRRR   N  N N  II  N  N N  G  GGG   !            |
|           WW  WW  A    A  R   R   N   NN  II  N   NN  G    G                |
|           W    W  A    A  R    R  N    N  II  N    N   GGGG   !!!           |
|                                                                             |
|      For optimal performance we recommend to set                            |
|        NCORE= 4 - approx SQRT( number of cores)                             |
|      NCORE specifies how many cores store one orbital (NPAR=cpu/NCORE).     |
|      This setting can  greatly improve the performance of VASP for DFT.     |
|      The default, NPAR=number of cores might be grossly inefficient         |
|      on modern multi-core architectures or massively parallel machines.     |
|      Do your own testing !!!!                                               |
|      Unfortunately you need to use the default for GW and RPA calculations. |
|      (for HF NCORE is supported but not extensively tested yet)             |
|                                                                             |
 ----------------------------------------------------------------------------- 

 POTCAR:    PAW_PBE Au 04Oct2007                  
   VRHFIN =Au: s1d10                                                            
   LEXCH  = PE                                                                  
   EATOM  =   926.0867 eV,   68.0654 Ry                                         
                                                                                
   TITEL  = PAW_PBE Au 04Oct2007                                                
   LULTRA =        F    use ultrasoft PP ?                                      
   IUNSCR =        1    unscreen: 0-lin 1-nonlin 2-no                           
   RPACOR =    2.330    partial core radius                                     
   POMASS =  196.966; ZVAL   =   11.000    mass and valenz                      
   RCORE  =    2.500    outmost cutoff radius                                   
   RWIGS  =    2.840; RWIGS  =    1.503    wigner-seitz radius (au A)           
   ENMAX  =  229.943; ENMIN  =  172.457 eV                                      
   ICORE  =        3    local potential                                         
   LCOR   =        T    correct aug charges                                     
   LPAW   =        T    paw PP                                                  
   EAUG   =  356.670                                                            
   DEXC   =    0.000                                                            
   RMAX   =    2.562    core radius for proj-oper                               
   RAUG   =    1.300    factor for augmentation sphere                          
   RDEP   =    2.598    radius for radial grids                                 
   RDEPT  =    2.193    core radius for aug-charge                              
                                                                                
   Atomic configuration                                                         
   16 entries                                                                   
     n  l   j            E        occ.                                          
     1  0  0.50    -80748.5001   2.0000                                         
     2  0  0.50    -14244.7466   2.0000                                         
     2  1  1.50    -12310.9591   6.0000                                         
     3  0  0.50     -3362.1768   2.0000                                         
     3  1  1.50     -2801.5463   6.0000                                         
     3  2  2.50     -2203.8206  10.0000                                         
     4  0  0.50      -729.8168   2.0000                                         
     4  1  1.50      -546.0527   6.0000                                         
     4  2  2.50      -325.7302  10.0000                                         
     4  3  3.50       -81.1472  14.0000                                         
     5  0  0.50      -108.3201   2.0000                                         
     5  1  1.50       -59.7479   6.0000                                         
     5  2  2.50        -6.8783  10.0000                                         
     6  0  0.50        -5.7602   1.0000                                         
     6  1  1.50        -6.8029   0.0000                                         
     5  3  2.50        -1.3606   0.0000                                         
   Description                                                                  
     l       E           TYP  RCUT    TYP  RCUT                                 
     2     -6.8782861     23  2.500                                             
     2     -8.2388687     23  2.500                                             
     0     -5.7601759     23  2.500                                             
     0     -0.8493231     23  2.500                                             
     1     -2.7211652     23  2.500                                             
     1     27.2116520     23  2.500                                             
     3     -1.3605826     23  2.500                                             
  local pseudopotential read in
  partial core-charges read in
  partial kinetic energy density read in
  atomic valenz-charges read in
  non local Contribution for L=           2  read in
    real space projection operators read in
  non local Contribution for L=           2  read in
    real space projection operators read in
  non local Contribution for L=           0  read in
    real space projection operators read in
  non local Contribution for L=           0  read in
    real space projection operators read in
  non local Contribution for L=           1  read in
    real space projection operators read in
  non local Contribution for L=           1  read in
    real space projection operators read in
    PAW grid and wavefunctions read in
 
   number of l-projection  operators is LMAX  =           6
   number of lm-projection operators is LMMAX =          18
 
 POTCAR:    PAW_PBE Pt 04Feb2005                  
   VRHFIN =Pt: s1d9                                                             
   LEXCH  = PE                                                                  
   EATOM  =   729.1176 eV,   53.5886 Ry                                         
                                                                                
   TITEL  = PAW_PBE Pt 04Feb2005                                                
   LULTRA =        F    use ultrasoft PP ?                                      
   IUNSCR =        1    unscreen: 0-lin 1-nonlin 2-no                           
   RPACOR =    2.330    partial core radius                                     
   POMASS =  195.080; ZVAL   =   10.000    mass and valenz                      
   RCORE  =    2.600    outmost cutoff radius                                   
   RWIGS  =    2.750; RWIGS  =    1.455    wigner-seitz radius (au A)           
   ENMAX  =  230.283; ENMIN  =  172.712 eV                                      
   ICORE  =        3    local potential                                         
   LCOR   =        T    correct aug charges                                     
   LPAW   =        T    paw PP                                                  
   EAUG   =  358.966                                                            
   DEXC   =    0.000                                                            
   RMAX   =    2.658    core radius for proj-oper                               
   RAUG   =    1.300    factor for augmentation sphere                          
   RDEP   =    2.761    radius for radial grids                                 
   RDEPT  =    2.203    core radius for aug-charge                              
                                                                                
   Atomic configuration                                                         
   16 entries                                                                   
     n  l   j            E        occ.                                          
     1  0  0.50    -78401.1885   2.0000                                         
     2  0  0.50    -13770.7750   2.0000                                         
     2  1  1.50    -11931.0468   6.0000                                         
     3  0  0.50     -3234.7234   2.0000                                         
     3  1  1.50     -2699.2216   6.0000                                         
     3  2  2.50     -2119.5714  10.0000                                         
     4  0  0.50      -695.1528   2.0000                                         
     4  1  1.50      -519.6034   6.0000                                         
     4  2  2.50      -306.6786  10.0000                                         
     4  3  3.50       -70.1041  14.0000                                         
     5  0  0.50      -101.7747   2.0000                                         
     5  1  1.50       -55.9873   6.0000                                         
     5  2  2.50        -6.1423   9.0000                                         
     6  0  0.50        -5.6573   1.0000                                         
     6  1  1.50        -6.8029   0.0000                                         
     5  3  2.50        -1.3606   0.0000                                         
   Description                                                                  
     l       E           TYP  RCUT    TYP  RCUT                                 
     2     -6.1423404     23  2.500                                             
     2     -7.5029230     23  2.500                                             
     0     -5.6573207     23  2.500                                             
     0      0.7416693     23  2.500                                             
     1     -2.7211652     23  2.600                                             
     1     20.4087390     23  2.600                                             
     3     -1.3605826     23  2.500                                             
  local pseudopotential read in
  partial core-charges read in
  partial kinetic energy density read in
  atomic valenz-charges read in
  non local Contribution for L=           2  read in
    real space projection operators read in
  non local Contribution for L=           2  read in
    real space projection operators read in
  non local Contribution for L=           0  read in
    real space projection operators read in
  non local Contribution for L=           0  read in
    real space projection operators read in
  non local Contribution for L=           1  read in
    real space projection operators read in
  non local Contribution for L=           1  read in
    real space projection operators read in
    PAW grid and wavefunctions read in
 
   number of l-projection  operators is LMAX  =           6
   number of lm-projection operators is LMMAX =          18
 

 ----------------------------------------------------------------------------- 
|                                                                             |
|  ADVICE TO THIS USER RUNNING 'VASP/VAMP'   (HEAR YOUR MASTER'S VOICE ...):  |
|                                                                             |
|      You have a (more or less) 'large supercell' and for larger cells       |
|      it might be more efficient to use real space projection opertators     |
|      So try LREAL= Auto  in the INCAR   file.                               |
|      Mind: At the moment your POTCAR file does not contain real space       |
|       projectors, and has to be modified,  BUT if you                       |
|      want to do an extremely  accurate calculation you might also keep the  |
|      reciprocal projection scheme          (i.e. LREAL=.FALSE.)             |
|                                                                             |
 ----------------------------------------------------------------------------- 

  PAW_PBE Au 04Oct2007                  :
 energy of atom  1       EATOM= -926.0867
 kinetic energy error for atom=    0.0062 (will be added to EATOM!!)
  PAW_PBE Pt 04Feb2005                  :
 energy of atom  2       EATOM= -729.1176
 kinetic energy error for atom=    0.0056 (will be added to EATOM!!)
 
 
 POSCAR: AuPt                                    
  positions in direct lattice
  No initial velocities read in
 exchange correlation table for  LEXCH =        8
   RHO(1)=    0.500       N(1)  =     2000
   RHO(2)=  100.500       N(2)  =     4000
 


--------------------------------------------------------------------------------------------------------


 ion  position               nearest neighbor table
   1  0.250  0.750  0.492-  30 2.81  15 2.82  27 2.83  16 2.86  25 2.87  13 2.88   3 2.88   4 2.88
                            29 2.92  12 2.92   6 2.94  32 2.95
   2  1.000  0.253  0.755-   7 2.82   9 2.82  10 2.82  14 2.84  32 2.85  18 2.85   6 2.87  22 2.88
                            21 2.88  17 2.89  13 2.91   4 2.93
   3  0.500  0.498  0.499-  21 2.86   8 2.87   5 2.87  15 2.87  32 2.88  17 2.88   1 2.88  16 2.89
                            29 2.89  23 2.91  19 2.92   9 2.93
   4  0.000  0.001  0.499-  27 2.83  17 2.85   6 2.86  31 2.86  21 2.87   1 2.88  18 2.90   5 2.90
                            12 2.91  30 2.92   2 2.93  20 2.93
   5  0.750  0.748  0.499-  29 2.86  12 2.86  13 2.87   3 2.87  15 2.89  30 2.89  25 2.90   4 2.90
                            19 2.90  31 2.91  18 2.96   9 2.98
   6  0.250  0.004  0.748-  25 2.85   4 2.86  23 2.87   2 2.87  17 2.87  22 2.88  24 2.88  14 2.91
                            29 2.91  12 2.91   1 2.94  28 2.95
   7  0.753  0.253  0.999-   9 2.79  10 2.81   2 2.82  19 2.83  26 2.84  18 2.84  23 2.84  20 2.87
                            22 2.87   8 2.90  24 2.90  31 2.92
   8  0.498  0.251  0.249-  26 2.85  14 2.85  16 2.86  24 2.86   3 2.87  17 2.88  27 2.89  19 2.90
                             7 2.90  25 2.90  21 2.91  31 2.91
   9  0.749  0.494  0.759-   7 2.79  23 2.82   2 2.82  26 2.82  10 2.83  11 2.87  21 2.88  29 2.89
                            12 2.89   3 2.93  13 2.93   5 2.98
  10  0.999  0.496  0.002-  19 2.79   7 2.81  20 2.81  14 2.82   2 2.82   9 2.83  16 2.84  30 2.86
                            11 2.89  32 2.89  28 2.89  12 2.93
  11  0.750  0.749  0.001-  19 2.85  12 2.87  29 2.87   9 2.87  15 2.88  31 2.88  30 2.88  26 2.88
                            10 2.89  24 2.90  22 2.90  18 2.94
  12  0.998  0.749  0.749-   5 2.86  11 2.87  13 2.88  32 2.89   9 2.89  28 2.90  22 2.91   4 2.91
                            18 2.91   6 2.91   1 2.92  10 2.93
  13  0.000  0.499  0.499-  17 2.84  21 2.84   5 2.87  20 2.87  30 2.87  16 2.87   1 2.88  32 2.88
                            12 2.88  19 2.89   2 2.91   9 2.93
  14  0.248  0.254  0.002-  20 2.80  10 2.82  16 2.84   2 2.84  26 2.85   8 2.85  23 2.85  22 2.86
                            32 2.87  24 2.88   6 2.91  27 2.93
  15  0.497  0.744  0.249-   1 2.82  16 2.83  28 2.84  26 2.85   3 2.87  19 2.87  11 2.88   5 2.89
                            27 2.89  24 2.93  25 2.93  31 2.94
  16  0.249  0.500  0.247-  20 2.81  30 2.82  15 2.83  14 2.84  10 2.84   1 2.86  28 2.86  26 2.86
                             8 2.86  13 2.87   3 2.89  17 2.91
  17  0.246  0.251  0.499-  20 2.84  13 2.84   4 2.85   6 2.87   8 2.88  32 2.88   3 2.88  27 2.88
                            25 2.88   2 2.89  16 2.91  23 2.93
  18  0.749  0.008  0.752-   7 2.84  23 2.84   2 2.85  24 2.87  22 2.87  21 2.88  25 2.89   4 2.90
                            29 2.91  12 2.91  11 2.94   5 2.96
  19  0.753  0.500  0.243-  10 2.79  26 2.83   7 2.83  30 2.85  11 2.85  20 2.86  15 2.87  13 2.89
                             8 2.90   5 2.90   3 2.92  21 2.93
  20  0.006  0.254  0.246-  14 2.80  16 2.81  10 2.81  17 2.84  27 2.86  19 2.86  13 2.87   7 2.87
                            22 2.87  31 2.92  21 2.92   4 2.93
  21  0.752  0.253  0.501-  13 2.84   3 2.86   4 2.87  18 2.88   9 2.88   2 2.88  25 2.90   8 2.91
                            23 2.91  31 2.91  20 2.92  19 2.93
  22  0.001  0.002  0.001-  31 2.85  27 2.85  14 2.86  18 2.87  20 2.87   7 2.87   2 2.88   6 2.88
                            28 2.89  11 2.90  12 2.91  30 2.93
  23  0.500  0.253  0.756-   9 2.82  26 2.82  32 2.84   7 2.84  18 2.84  14 2.85   6 2.87  24 2.88
                            21 2.91   3 2.91  17 2.93  25 2.94
  24  0.499  0.002  0.001-   8 2.86  18 2.87  23 2.88  31 2.88  14 2.88  27 2.88   6 2.88  28 2.89
                            11 2.90   7 2.90  29 2.92  15 2.93
  25  0.498  0.001  0.500-   6 2.85  27 2.86   1 2.87  17 2.88  18 2.89  31 2.90   5 2.90  21 2.90
                             8 2.90  29 2.91  15 2.93  23 2.94
  26  0.502  0.496  0.002-  23 2.82   9 2.82  19 2.83   7 2.84   8 2.85  14 2.85  15 2.85  16 2.86
                            11 2.88  28 2.89  32 2.89  29 2.93
  27  0.247  0.998  0.252-   1 2.83   4 2.83  22 2.85  30 2.86  20 2.86  25 2.86  17 2.88  24 2.88
                             8 2.89  15 2.89  28 2.90  14 2.93
  28  0.250  0.747  0.001-  15 2.84  30 2.84  16 2.86  32 2.88  26 2.89  29 2.89  10 2.89  24 2.89
                            22 2.89  12 2.90  27 2.90   6 2.95
  29  0.502  0.749  0.749-   5 2.86  11 2.87  32 2.89   3 2.89  28 2.89   9 2.89  25 2.91  18 2.91
                             6 2.91  24 2.92   1 2.92  26 2.93
  30  0.003  0.745  0.249-   1 2.81  16 2.82  28 2.84  19 2.85  27 2.86  10 2.86  13 2.87  11 2.88
                             5 2.89  31 2.91   4 2.92  22 2.93
  31  0.752  1.000  0.249-  22 2.85   4 2.86  24 2.88  11 2.88  25 2.90  30 2.91   5 2.91   8 2.91
                            21 2.91   7 2.92  20 2.92  15 2.94
  32  0.250  0.498  0.750-  23 2.84   2 2.85  14 2.87   3 2.88  17 2.88  13 2.88  28 2.88  26 2.89
                            29 2.89  12 2.89  10 2.89   1 2.95
 
  LATTYP: Found a triclinic cell.
 ALAT       =    11.4936877798
 B/A-ratio  =     0.7018050525
 C/A-ratio  =     1.0037642504
 COS(alpha) =     0.0002601742
 COS(beta)  =     0.5030037716
 COS(gamma) =     0.7020811536
  
  Lattice vectors:
  
 A1 = (  -8.0678940000,  -8.1861820000,   0.0192210000)
 A2 = (  -8.0663280000,  -0.0015840000,   0.0000820000)
 A3 = (  -0.0014810000,  -8.1654770000,  -8.1502310000)


Analysis of symmetry for initial positions (statically):
=====================================================================
 Subroutine PRICEL returns:
 Original cell was already a primitive cell.
 

 Routine SETGRP: Setting up the symmetry group for a 
 triclinic supercell.


 Subroutine GETGRP returns: Found  1 space group operations
 (whereof  1 operations were pure point group operations)
 out of a pool of  2 trial point group operations.


The static configuration has the point symmetry C_1 .


Analysis of symmetry for dynamics (positions and initial velocities):
=====================================================================
 Subroutine PRICEL returns:
 Original cell was already a primitive cell.
 

 Routine SETGRP: Setting up the symmetry group for a 
 triclinic supercell.


 Subroutine GETGRP returns: Found  1 space group operations
 (whereof  1 operations were pure point group operations)
 out of a pool of  2 trial point group operations.


The dynamic configuration has the point symmetry C_1 .


 Subroutine INISYM returns: Found  1 space group operations
 (whereof  1 operations are pure point group operations),
 and found     1 'primitive' translations

 
 
 KPOINTS: k-points                                

Automatic generation of k-mesh.
Space group operators:
 irot       det(A)        alpha          n_x          n_y          n_z        tau_x        tau_y        tau_z
    1     1.000000     0.000001     1.000000     0.000000     0.000000     0.000000     0.000000     0.000000
 
 Subroutine IBZKPT returns following result:
 ===========================================
 
 Found     14 irreducible k-points:
 
 Following reciprocal coordinates:
            Coordinates               Weight
  0.000000  0.000000  0.000000      1.000000
  0.333333  0.000000 -0.000000      2.000000
 -0.000000  0.333333 -0.000000      2.000000
  0.333333  0.333333 -0.000000      2.000000
 -0.333333  0.333333 -0.000000      2.000000
  0.000000  0.000000  0.333333      2.000000
  0.333333 -0.000000  0.333333      2.000000
 -0.333333  0.000000  0.333333      2.000000
 -0.000000  0.333333  0.333333      2.000000
  0.333333  0.333333  0.333333      2.000000
 -0.333333  0.333333  0.333333      2.000000
  0.000000 -0.333333  0.333333      2.000000
  0.333333 -0.333333  0.333333      2.000000
 -0.333333 -0.333333  0.333333      2.000000
 
 Following cartesian coordinates:
            Coordinates               Weight
  0.000000  0.000000  0.000000      1.000000
  0.041324 -0.000008  0.000000      2.000000
 -0.000008  0.040727  0.000095      2.000000
  0.041316  0.040719  0.000096      2.000000
 -0.041332  0.040735  0.000095      2.000000
  0.000000  0.000095  0.040803      2.000000
  0.041324  0.000088  0.040803      2.000000
 -0.041324  0.000103  0.040803      2.000000
 -0.000008  0.040823  0.040898      2.000000
  0.041316  0.040815  0.040899      2.000000
 -0.041332  0.040830  0.040898      2.000000
  0.000008 -0.040632  0.040708      2.000000
  0.041332 -0.040640  0.040708      2.000000
 -0.041316 -0.040624  0.040707      2.000000
 


--------------------------------------------------------------------------------------------------------




 Dimension of arrays:
   k-points           NKPTS =     14   k-points in BZ     NKDIM =     14   number of bands    NBANDS=    224
   number of dos      NEDOS =    301   number of ions     NIONS =     32
   non local maximal  LDIM  =      6   non local SUM 2l+1 LMDIM =     18
   total plane-waves  NPLWV = 157464
   max r-space proj   IRMAX =      1   max aug-charges    IRDMAX=   5060
   dimension x,y,z NGX =    54 NGY =   54 NGZ =   54
   dimension x,y,z NGXF=    70 NGYF=   70 NGZF=   70
   support grid    NGXF=    70 NGYF=   70 NGZF=   70
   ions per type =              24   8
 NGX,Y,Z   is equivalent  to a cutoff of  11.13, 10.97, 10.99 a.u.
 NGXF,Y,Z  is equivalent  to a cutoff of  14.43, 14.22, 14.24 a.u.


 I would recommend the setting:
   dimension x,y,z NGX =    53 NGY =   53 NGZ =   53
 SYSTEM =  automatically generated by mexm         
 POSCAR =  AuPt                                    

 Startparameter for this run:
   NWRITE =      2    write-flag & timer
   PREC   = high      normal or accurate (medium, high low for compatibility)
   ISTART =      0    job   : 0-new  1-cont  2-samecut
   ICHARG =      2    charge: 1-file 2-atom 10-const
   ISPIN  =      1    spin polarized calculation?
   LNONCOLLINEAR =      F non collinear calculations
   LSORBIT =      F    spin-orbit coupling
   INIWAV =      1    electr: 0-lowe 1-rand  2-diag
   LASPH  =      F    aspherical Exc in radial PAW
   METAGGA=      F    non-selfconsistent MetaGGA calc.

 Electronic Relaxation 1
   ENCUT  =  400.0 eV  29.40 Ry    5.42 a.u.  13.15 13.35 13.32*2*pi/ulx,y,z
   ENINI  =  400.0     initial cutoff
   ENAUG  =  359.0 eV  augmentation charge cutoff
   NELM   =     40;   NELMIN=  2; NELMDL= -5     # of ELM steps 
   EDIFF  = 0.1E-05   stopping-criterion for ELM
   LREAL  =      F    real-space projection
   NLSPLINE    = F    spline interpolate recip. space projectors
   LCOMPAT=      F    compatible to vasp.4.4
   GGA_COMPAT  = T    GGA compatible to vasp.4.4-vasp.4.6
   LMAXPAW     = -100 max onsite density
   LMAXMIX     =    2 max onsite mixed and CHGCAR
   VOSKOWN=      0    Vosko Wilk Nusair interpolation
   ROPT   =    0.00000   0.00000
 Ionic relaxation
   EDIFFG = 0.1E-04   stopping-criterion for IOM
   NSW    =      0    number of steps for IOM
   NBLOCK =      1;   KBLOCK =      1    inner block; outer block 
   IBRION =     -1    ionic relax: 0-MD 1-quasi-New 2-CG
   NFREE  =      0    steps in history (QN), initial steepest desc. (CG)
   ISIF   =      2    stress and relaxation
   IWAVPR =     10    prediction:  0-non 1-charg 2-wave 3-comb
   ISYM   =      2    0-nonsym 1-usesym 2-fastsym
   LCORR  =      T    Harris-Foulkes like correction to forces

   POTIM  = 0.5000    time-step for ionic-motion
   TEIN   =    0.0    initial temperature
   TEBEG  =    0.0;   TEEND  =   0.0 temperature during run
   SMASS  =  -3.00    Nose mass-parameter (am)
   estimated Nose-frequenzy (Omega)   =  0.10E-29 period in steps =****** mass=  -0.149E-26a.u.
   SCALEE = 1.0000    scale energy and forces
   NPACO  =    256;   APACO  = 16.0  distance and # of slots for P.C.
   PSTRESS=    0.0 pullay stress

  Mass of Ions in am
   POMASS = 196.97195.08
  Ionic Valenz
   ZVAL   =  11.00 10.00
  Atomic Wigner-Seitz radii
   RWIGS  =  -1.00 -1.00
  virtual crystal weights 
   VCA    =   1.00  1.00
   NELECT =     344.0000    total number of electrons
   NUPDOWN=      -1.0000    fix difference up-down

 DOS related values:
   EMIN   =  10.00;   EMAX   =-10.00  energy-range for DOS
   EFERMI =   0.00
   ISMEAR =     0;   SIGMA  =   2.00  broadening in eV -4-tet -1-fermi 0-gaus

 Electronic relaxation 2 (details)
   IALGO  =     38    algorithm
   LDIAG  =      T    sub-space diagonalisation (order eigenvalues)
   LSUBROT=      F    optimize rotation matrix (better conditioning)
   TURBO    =      0    0=normal 1=particle mesh
   IRESTART =      0    0=no restart 2=restart with 2 vectors
   NREBOOT  =      0    no. of reboots
   NMIN     =      0    reboot dimension
   EREF     =   0.00    reference energy to select bands
   IMIX   =      4    mixing-type and parameters
     AMIX     =   0.40;   BMIX     =  1.00
     AMIX_MAG =   1.60;   BMIX_MAG =  1.00
     AMIN     =   0.10
     WC   =   100.;   INIMIX=   1;  MIXPRE=   1;  MAXMIX= -45

 Intra band minimization:
   WEIMIN = 0.0000     energy-eigenvalue tresh-hold
   EBREAK =  0.11E-08  absolut break condition
   DEPER  =   0.30     relativ break condition  

   TIME   =   0.40     timestep for ELM

  volume/ion in A,a.u.               =      16.85       113.74
  Fermi-wavevector in a.u.,A,eV,Ry     =   1.409206  2.663013 27.019290  1.985862
  Thomas-Fermi vector in A             =   2.531286
 
 Write flags
   LWAVE  =      F    write WAVECAR
   LCHARG =      F    write CHGCAR
   LVTOT  =      F    write LOCPOT, total local potential
   LVHAR  =      F    write LOCPOT, Hartree potential only
   LELF   =      F    write electronic localiz. function (ELF)
   LORBIT =      0    0 simple, 1 ext, 2 COOP (PROOUT)


 Dipole corrections
   LMONO  =      F    monopole corrections only (constant potential shift)
   LDIPOL =      F    correct potential (dipole corrections)
   IDIPOL =      0    1-x, 2-y, 3-z, 4-all directions 
   EPSILON=  1.0000000 bulk dielectric constant

 Exchange correlation treatment:
   GGA     =    --    GGA type
   LEXCH   =     8    internal setting for exchange type
   VOSKOWN=      0    Vosko Wilk Nusair interpolation
   LHFCALC =     F    Hartree Fock is set to
   LHFONE  =     F    Hartree Fock one center treatment
   AEXX    =    0.0000 exact exchange contribution

 Linear response parameters
   LEPSILON=     F    determine dielectric tensor
   LRPA    =     F    only Hartree local field effects (RPA)
   LNABLA  =     F    use nabla operator in PAW spheres
   LVEL    =     F    velocity operator in full k-point grid
   LINTERFAST=   F  fast interpolation
   KINTER  =     0    interpolate to denser k-point grid
   CSHIFT  =0.1000    complex shift for real part using Kramers Kronig
   OMEGAMAX=  -1.0    maximum frequency
   DEG_THRESHOLD= 0.2000000E-02 threshold for treating states as degnerate
   RTIME   =    0.100 relaxation time in fs

 Orbital magnetization related:
   ORBITALMAG=     F  switch on orbital magnetization
   LCHIMAG   =     F  perturbation theory with respect to B field
   DQ        =  0.001000  dq finite difference perturbation B field



--------------------------------------------------------------------------------------------------------


 Static calculation
 charge density and potential will be updated during run
 non-spin polarized calculation
 Variant of blocked Davidson
 Davidson routine will perform the subspace rotation
 perform sub-space diagonalisation
    after iterative eigenvector-optimisation
 modified Broyden-mixing scheme, WC =      100.0
 initial mixing is a Kerker type mixing with AMIX =  0.4000 and BMIX =      1.0000
 Hartree-type preconditioning will be used
 using additional bands           52
 reciprocal scheme for non local part
 use partial core corrections
 calculate Harris-corrections to forces 
   (improved forces if not selfconsistent)
 use gradient corrections 
 use of overlap-Matrix (Vanderbilt PP)
 Gauss-broadening in eV      SIGMA  =   2.00


--------------------------------------------------------------------------------------------------------


  energy-cutoff  :      400.00
  volume of cell :      539.34
      direct lattice vectors                 reciprocal lattice vectors
     8.066328000  0.001584000 -0.000082000     0.123972152 -0.000023717  0.000001234
     0.001566000  8.184598000 -0.019139000    -0.000023990  0.122181384  0.000285974
    -0.000085000 -0.019121000  8.169370000     0.000001188  0.000286243  0.122409130

  length of vectors
     8.066328156  8.184620527  8.169392377     0.123972154  0.122181721  0.122409465


 
 k-points in units of 2pi/SCALE and weight: k-points                                
   0.00000000  0.00000000  0.00000000       0.037
   0.04132405 -0.00000791  0.00000041       0.074
  -0.00000800  0.04072713  0.00009532       0.074
   0.04131605  0.04071922  0.00009574       0.074
  -0.04133205  0.04073503  0.00009491       0.074
   0.00000040  0.00009541  0.04080304       0.074
   0.04132445  0.00008751  0.04080345       0.074
  -0.04132365  0.00010332  0.04080263       0.074
  -0.00000760  0.04082254  0.04089837       0.074
   0.04131645  0.04081464  0.04089878       0.074
  -0.04133165  0.04083045  0.04089796       0.074
   0.00000839 -0.04063171  0.04070772       0.074
   0.04133244 -0.04063962  0.04070813       0.074
  -0.04131566 -0.04062381  0.04070731       0.074
 
 k-points in reciprocal lattice and weights: k-points                                
   0.00000000  0.00000000  0.00000000       0.037
   0.33333333  0.00000000 -0.00000000       0.074
  -0.00000000  0.33333333 -0.00000000       0.074
   0.33333333  0.33333333 -0.00000000       0.074
  -0.33333333  0.33333333 -0.00000000       0.074
   0.00000000  0.00000000  0.33333333       0.074
   0.33333333 -0.00000000  0.33333333       0.074
  -0.33333333  0.00000000  0.33333333       0.074
  -0.00000000  0.33333333  0.33333333       0.074
   0.33333333  0.33333333  0.33333333       0.074
  -0.33333333  0.33333333  0.33333333       0.074
   0.00000000 -0.33333333  0.33333333       0.074
   0.33333333 -0.33333333  0.33333333       0.074
  -0.33333333 -0.33333333  0.33333333       0.074
 
 position of ions in fractional coordinates (direct lattice) 
   0.25004100  0.74971600  0.49241400
   0.99963200  0.25317500  0.75523800
   0.49967900  0.49842100  0.49871500
   0.00047000  0.00131200  0.49928600
   0.74950900  0.74790000  0.49854900
   0.24991900  0.00357100  0.74774000
   0.75260100  0.25320500  0.99907400
   0.49756700  0.25131500  0.24889300
   0.74948500  0.49358400  0.75890000
   0.99866500  0.49553200  0.00244200
   0.74969200  0.74903800  0.00078600
   0.99761000  0.74877300  0.74931800
   0.00013600  0.49928400  0.49886200
   0.24813400  0.25350000  0.00154000
   0.49668900  0.74409800  0.24863800
   0.24881000  0.50012200  0.24699500
   0.24642600  0.25075800  0.49903600
   0.74932300  0.00752300  0.75242800
   0.75280700  0.50000500  0.24327000
   0.00567500  0.25428100  0.24623800
   0.75192400  0.25254200  0.50112200
   0.00132500  0.00195300  0.00071000
   0.49987100  0.25327700  0.75628600
   0.49856800  0.00233500  0.00149300
   0.49849400  0.00118400  0.49952000
   0.50169200  0.49594900  0.00208400
   0.24706900  0.99833200  0.25211400
   0.25028200  0.74723400  0.00116600
   0.50194800  0.74919900  0.74901900
   0.00332300  0.74487800  0.24879900
   0.75240800  0.99976700  0.24885700
   0.25022400  0.49823600  0.75046800
 
 position of ions in cartesian coordinates  (Angst):
   2.01804492  6.12710469  4.00834284
   8.06369187  2.05927811  6.16489117
   4.03131285  4.07063108  4.06460711
   0.00375079  0.00119209  4.07882692
   6.04691427  6.11291531  4.05845573
   2.01587066  0.01532553  6.10847589
   6.07103812  2.05446996  8.15689736
   4.01391103  2.05294131  2.02844829
   6.04630029  4.02646288  6.19022673
   8.05633525  4.05726541  0.01038372
   6.04843450  6.13174740 -0.00797619
   8.04815836  6.11565850  6.10704342
   0.00183650  4.07690030  4.06583245
   2.00192708  2.07515919  0.00770875
   4.00760051  6.08617555  2.01693380
   2.00774527  4.08896884  2.00820131
   1.98810321  2.04320170  4.07199026
   6.04423292  0.04837248  6.14665730
   6.07315051  4.08888080  1.97773131
   0.04615369  2.07648844  2.00674218
   6.06561850  2.05856384  4.08895597
   0.01069088  0.01597304  0.00576277
   4.03245579  2.05930128  6.17349170
   4.02161655  0.01987222  0.01211130
   4.02097550  0.00092886  4.08070017
   4.04758871  4.05989803  0.00749186
   1.99448155  8.16651678  2.04048521
   2.02002677  6.11618405 -0.00479635
   4.04998679  6.11836573  6.10463327
   0.02794974  6.09177497  2.01827459
   6.07071420  8.17912441  2.01380867
   2.01910531  4.06390803  6.12129451
 


--------------------------------------------------------------------------------------------------------


 k-point  1 :   0.0000 0.0000 0.0000  plane waves:    9801
 k-point  2 :   0.3333 0.0000-0.0000  plane waves:    9816
 k-point  3 :  -0.0000 0.3333-0.0000  plane waves:    9806
 k-point  4 :   0.3333 0.3333-0.0000  plane waves:    9809
 k-point  5 :  -0.3333 0.3333-0.0000  plane waves:    9807
 k-point  6 :   0.0000 0.0000 0.3333  plane waves:    9788
 k-point  7 :   0.3333-0.0000 0.3333  plane waves:    9807
 k-point  8 :  -0.3333 0.0000 0.3333  plane waves:    9805
 k-point  9 :  -0.0000 0.3333 0.3333  plane waves:    9757
 k-point 10 :   0.3333 0.3333 0.3333  plane waves:    9795
 k-point 11 :  -0.3333 0.3333 0.3333  plane waves:    9794
 k-point 12 :   0.0000-0.3333 0.3333  plane waves:    9781
 k-point 13 :   0.3333-0.3333 0.3333  plane waves:    9798
 k-point 14 :  -0.3333-0.3333 0.3333  plane waves:    9794

 maximum and minimum number of plane-waves per node :      9816     9757

 maximum number of plane-waves:      9816
 maximum index in each direction: 
   IXMAX=   13   IYMAX=   13   IZMAX=   13
   IXMIN=  -13   IYMIN=  -13   IZMIN=  -13

 NGX is ok and might be reduce to  54
 NGY is ok and might be reduce to  54
 NGZ is ok and might be reduce to  54

 serial   3D FFT for wavefunctions
 parallel 3D FFT for charge:
    minimum data exchange during FFTs selected (reduces bandwidth)


 total amount of memory used by VASP on root node    85138. kBytes
========================================================================

   base      :      30000. kBytes
   nonl-proj :      44785. kBytes
   fftplans  :        873. kBytes
   grid      :       6625. kBytes
   one-center:        497. kBytes
   wavefun   :       2358. kBytes
 
     INWAV:  cpu time    0.0000: real time    0.0000
 Broyden mixing: mesh for mixing (old mesh)
   NGX = 27   NGY = 27   NGZ = 27
  (NGX  = 70   NGY  = 70   NGZ  = 70)
  gives a total of  19683 points

 initial charge density was supplied:
 charge density of overlapping atoms calculated
 number of electron     344.0000000 magnetization 
 keeping initial charge density in first step


--------------------------------------------------------------------------------------------------------


 Maximum index for augmentation-charges          341 (set IRDMAX)


--------------------------------------------------------------------------------------------------------


 First call to EWALD:  gamma=   0.218
 Maximum number of real-space cells 3x 3x 3
 Maximum number of reciprocal cells 3x 3x 3

 FEWALD executed in parallel
    FEWALD:  cpu time    0.0022: real time    0.0022


----------------------------------------- Iteration    1(   1)  ---------------------------------------


    POTLOK:  cpu time    0.0986: real time    0.1196
    SETDIJ:  cpu time    0.0045: real time    0.0045
     EDDAV:  cpu time    8.0343: real time    8.1755
       DOS:  cpu time    0.0027: real time    0.0028
    --------------------------------------------
      LOOP:  cpu time    8.1429: real time    8.3067

 eigenvalue-minimisations  :  6272
 total energy-change (2. order) : 0.1127338E+04  (-0.1655914E+05)
 number of electron     344.0000000 magnetization 
 augmentation part      344.0000000 magnetization 

 Free energy of the ion-electron system (eV)
  ---------------------------------------------------
  alpha Z        PSCENC =      2105.98355701
  Ewald energy   TEWEN  =    -29978.94152044
  -Hartree energ DENC   =     -3656.80707454
  -exchange      EXHF   =         0.00000000
  -V(xc)+E(xc)   XCENC  =       403.89896652
  PAW double counting   =     26547.32836389   -25766.96559563
  entropy T*S    EENTRO =       -30.65781389
  eigenvalues    EBANDS =      3444.67128981
  atomic energy  EATOM  =     28058.82806488
  Solvation  Ediel_sol  =         0.00000000
  ---------------------------------------------------
  free energy    TOTEN  =      1127.33823761 eV

  energy without entropy =     1157.99605150  energy(sigma->0) =     1142.66714456


--------------------------------------------------------------------------------------------------------




----------------------------------------- Iteration    1(   2)  ---------------------------------------


     EDDAV:  cpu time    9.7216: real time    9.7457
       DOS:  cpu time    0.0014: real time    0.0014
    --------------------------------------------
      LOOP:  cpu time    9.7254: real time    9.7661

 eigenvalue-minimisations  :  6720
 total energy-change (2. order) :-0.1272390E+04  (-0.1269580E+04)
 number of electron     344.0000000 magnetization 
 augmentation part      344.0000000 magnetization 

 Free energy of the ion-electron system (eV)
  ---------------------------------------------------
  alpha Z        PSCENC =      2105.98355701
  Ewald energy   TEWEN  =    -29978.94152044
  -Hartree energ DENC   =     -3656.80707454
  -exchange      EXHF   =         0.00000000
  -V(xc)+E(xc)   XCENC  =       403.89896652
  PAW double counting   =     26547.32836389   -25766.96559563
  entropy T*S    EENTRO =       -37.24077866
  eigenvalues    EBANDS =      2178.86416285
  atomic energy  EATOM  =     28058.82806488
  Solvation  Ediel_sol  =         0.00000000
  ---------------------------------------------------
  free energy    TOTEN  =      -145.05185411 eV

  energy without entropy =     -107.81107546  energy(sigma->0) =     -126.43146479


--------------------------------------------------------------------------------------------------------




----------------------------------------- Iteration    1(   3)  ---------------------------------------


     EDDAV:  cpu time   19.5181: real time   19.5679
       DOS:  cpu time    0.0010: real time    0.0010
    --------------------------------------------
      LOOP:  cpu time   19.5201: real time   19.6242

 eigenvalue-minimisations  :  9184
 total energy-change (2. order) :-0.7502498E+01  (-0.7499273E+01)
 number of electron     344.0000000 magnetization 
 augmentation part      344.0000000 magnetization 

 Free energy of the ion-electron system (eV)
  ---------------------------------------------------
  alpha Z        PSCENC =      2105.98355701
  Ewald energy   TEWEN  =    -29978.94152044
  -Hartree energ DENC   =     -3656.80707454
  -exchange      EXHF   =         0.00000000
  -V(xc)+E(xc)   XCENC  =       403.89896652
  PAW double counting   =     26547.32836389   -25766.96559563
  entropy T*S    EENTRO =       -37.47470303
  eigenvalues    EBANDS =      2171.59558882
  atomic energy  EATOM  =     28058.82806488
  Solvation  Ediel_sol  =         0.00000000
  ---------------------------------------------------
  free energy    TOTEN  =      -152.55435252 eV

  energy without entropy =     -115.07964949  energy(sigma->0) =     -133.81700101


--------------------------------------------------------------------------------------------------------




----------------------------------------- Iteration    1(   4)  ---------------------------------------


     EDDAV:  cpu time   28.2869: real time   28.3566
       DOS:  cpu time    0.0010: real time    0.0010
    --------------------------------------------
      LOOP:  cpu time   28.2886: real time   28.3670

 eigenvalue-minimisations  : 10528
 total energy-change (2. order) :-0.6399726E-02  (-0.6399661E-02)
 number of electron     344.0000000 magnetization 
 augmentation part      344.0000000 magnetization 

 Free energy of the ion-electron system (eV)
  ---------------------------------------------------
  alpha Z        PSCENC =      2105.98355701
  Ewald energy   TEWEN  =    -29978.94152044
  -Hartree energ DENC   =     -3656.80707454
  -exchange      EXHF   =         0.00000000
  -V(xc)+E(xc)   XCENC  =       403.89896652
  PAW double counting   =     26547.32836389   -25766.96559563
  entropy T*S    EENTRO =       -37.47513455
  eigenvalues    EBANDS =      2171.58962061
  atomic energy  EATOM  =     28058.82806488
  Solvation  Ediel_sol  =         0.00000000
  ---------------------------------------------------
  free energy    TOTEN  =      -152.56075225 eV

  energy without entropy =     -115.08561770  energy(sigma->0) =     -133.82318497


--------------------------------------------------------------------------------------------------------




----------------------------------------- Iteration    1(   5)  ---------------------------------------


     EDDAV:  cpu time   19.7480: real time   19.7973
       DOS:  cpu time    0.0012: real time    0.0012
    CHARGE:  cpu time    0.0388: real time    0.0390
    MIXING:  cpu time    0.0011: real time    0.0011
    --------------------------------------------
      LOOP:  cpu time   19.7900: real time   19.9044

 eigenvalue-minimisations  :  8736
 total energy-change (2. order) :-0.2613877E-05  (-0.2614132E-05)
 number of electron     344.0000068 magnetization 
 augmentation part      114.8787807 magnetization 

 Broyden mixing:
  rms(total) = 0.59128E+01    rms(broyden)= 0.59128E+01
  rms(prec ) = 0.64228E+01
  weight for this iteration     100.00

 Free energy of the ion-electron system (eV)
  ---------------------------------------------------
  alpha Z        PSCENC =      2105.98355701
  Ewald energy   TEWEN  =    -29978.94152044
  -Hartree energ DENC   =     -3656.80707454
  -exchange      EXHF   =         0.00000000
  -V(xc)+E(xc)   XCENC  =       403.89896652
  PAW double counting   =     26547.32836389   -25766.96559563
  entropy T*S    EENTRO =       -37.47513486
  eigenvalues    EBANDS =      2171.58961831
  atomic energy  EATOM  =     28058.82806488
  Solvation  Ediel_sol  =         0.00000000
  ---------------------------------------------------
  free energy    TOTEN  =      -152.56075486 eV

  energy without entropy =     -115.08562000  energy(sigma->0) =     -133.82318743


--------------------------------------------------------------------------------------------------------




----------------------------------------- Iteration    1(   6)  ---------------------------------------


    POTLOK:  cpu time    0.0167: real time    0.0172
    SETDIJ:  cpu time    0.0035: real time    0.0035
     EDDAV:  cpu time   32.9889: real time   33.0708
       DOS:  cpu time    0.0011: real time    0.0011
    CHARGE:  cpu time    0.0378: real time    0.0379
    MIXING:  cpu time    0.0009: real time    0.0015
    --------------------------------------------
      LOOP:  cpu time   33.0495: real time   33.1481

 eigenvalue-minimisations  : 11648
 total energy-change (2. order) : 0.9446439E+01  (-0.7892647E+01)
 number of electron     344.0000068 magnetization 
 augmentation part      118.8883408 magnetization 

 Broyden mixing:
  rms(total) = 0.40960E+01    rms(broyden)= 0.40959E+01
  rms(prec ) = 0.43948E+01
  weight for this iteration     100.00

 eigenvalues of (default mixing * dielectric matrix)
  average eigenvalue GAMMA=   1.6473
  1.6473

 Free energy of the ion-electron system (eV)
  ---------------------------------------------------
  alpha Z        PSCENC =      2105.98355701
  Ewald energy   TEWEN  =    -29978.94152044
  -Hartree energ DENC   =     -3382.36454203
  -exchange      EXHF   =         0.00000000
  -V(xc)+E(xc)   XCENC  =       392.35585457
  PAW double counting   =     28853.66039355   -28119.76990203
  entropy T*S    EENTRO =       -35.28805847
  eigenvalues    EBANDS =      1962.42183756
  atomic energy  EATOM  =     28058.82806488
  Solvation  Ediel_sol  =         0.00000000
  ---------------------------------------------------
  free energy    TOTEN  =      -143.11431538 eV

  energy without entropy =     -107.82625692  energy(sigma->0) =     -125.47028615


--------------------------------------------------------------------------------------------------------




----------------------------------------- Iteration    1(   7)  ---------------------------------------


    POTLOK:  cpu time    0.0240: real time    0.0243
    SETDIJ:  cpu time    0.0026: real time    0.0026
     EDDAV:  cpu time   29.4936: real time   29.5666
       DOS:  cpu time    0.0012: real time    0.0012
    CHARGE:  cpu time    0.0372: real time    0.0373
    MIXING:  cpu time    0.0004: real time    0.0004
    --------------------------------------------
      LOOP:  cpu time   29.5598: real time   29.6792

 eigenvalue-minimisations  : 10976
 total energy-change (2. order) :-0.1983928E+01  (-0.1000429E+02)
 number of electron     344.0000070 magnetization 
 augmentation part      120.6281924 magnetization 

 Broyden mixing:
  rms(total) = 0.25384E+01    rms(broyden)= 0.25383E+01
  rms(prec ) = 0.33987E+01
  weight for this iteration     100.00

 eigenvalues of (default mixing * dielectric matrix)
  average eigenvalue GAMMA=   1.4059
  2.3332  0.4785

 Free energy of the ion-electron system (eV)
  ---------------------------------------------------
  alpha Z        PSCENC =      2105.98355701
  Ewald energy   TEWEN  =    -29978.94152044
  -Hartree energ DENC   =     -3316.99374421
  -exchange      EXHF   =         0.00000000
  -V(xc)+E(xc)   XCENC  =       389.43343925
  PAW double counting   =     30538.37797736   -29831.10182661
  entropy T*S    EENTRO =       -33.92957040
  eigenvalues    EBANDS =      1923.24537992
  atomic energy  EATOM  =     28058.82806488
  Solvation  Ediel_sol  =         0.00000000
  ---------------------------------------------------
  free energy    TOTEN  =      -145.09824324 eV

  energy without entropy =     -111.16867284  energy(sigma->0) =     -128.13345804


--------------------------------------------------------------------------------------------------------




----------------------------------------- Iteration    1(   8)  ---------------------------------------


    POTLOK:  cpu time    0.0143: real time    0.0149
    SETDIJ:  cpu time    0.0034: real time    0.0034
     EDDAV:  cpu time   24.3241: real time   24.3842
       DOS:  cpu time    0.0012: real time    0.0012
    CHARGE:  cpu time    0.0378: real time    0.0379
    MIXING:  cpu time    0.0004: real time    0.0004
    --------------------------------------------
      LOOP:  cpu time   24.3817: real time   24.4503

 eigenvalue-minimisations  : 10080
 total energy-change (2. order) : 0.4377080E+01  (-0.3920384E+01)
 number of electron     344.0000070 magnetization 
 augmentation part      121.0459277 magnetization 

 Broyden mixing:
  rms(total) = 0.72487E+00    rms(broyden)= 0.72485E+00
  rms(prec ) = 0.78623E+00
  weight for this iteration     100.00

 eigenvalues of (default mixing * dielectric matrix)
  average eigenvalue GAMMA=   1.3643
  2.4715  1.1823  0.4392

 Free energy of the ion-electron system (eV)
  ---------------------------------------------------
  alpha Z        PSCENC =      2105.98355701
  Ewald energy   TEWEN  =    -29978.94152044
  -Hartree energ DENC   =     -3254.51887584
  -exchange      EXHF   =         0.00000000
  -V(xc)+E(xc)   XCENC  =       386.84695168
  PAW double counting   =     32131.64930255   -31445.00359388
  entropy T*S    EENTRO =       -33.78616195
  eigenvalues    EBANDS =      1888.22111262
  atomic energy  EATOM  =     28058.82806488
  Solvation  Ediel_sol  =         0.00000000
  ---------------------------------------------------
  free energy    TOTEN  =      -140.72116336 eV

  energy without entropy =     -106.93500141  energy(sigma->0) =     -123.82808238


--------------------------------------------------------------------------------------------------------




----------------------------------------- Iteration    1(   9)  ---------------------------------------


    POTLOK:  cpu time    0.0243: real time    0.0245
    SETDIJ:  cpu time    0.0025: real time    0.0025
     EDDAV:  cpu time   17.2808: real time   17.3234
       DOS:  cpu time    0.0010: real time    0.0010
    CHARGE:  cpu time    0.0382: real time    0.0383
    MIXING:  cpu time    0.0005: real time    0.0005
    --------------------------------------------
      LOOP:  cpu time   17.3480: real time   17.4373

 eigenvalue-minimisations  :  8736
 total energy-change (2. order) :-0.4634954E-01  (-0.3382658E+00)
 number of electron     344.0000069 magnetization 
 augmentation part      120.5642149 magnetization 

 Broyden mixing:
  rms(total) = 0.37202E+00    rms(broyden)= 0.37201E+00
  rms(prec ) = 0.58635E+00
  weight for this iteration     100.00

 eigenvalues of (default mixing * dielectric matrix)
  average eigenvalue GAMMA=   1.1734
  2.4553  1.2654  0.4864  0.4864

 Free energy of the ion-electron system (eV)
  ---------------------------------------------------
  alpha Z        PSCENC =      2105.98355701
  Ewald energy   TEWEN  =    -29978.94152044
  -Hartree energ DENC   =     -3270.74853656
  -exchange      EXHF   =         0.00000000
  -V(xc)+E(xc)   XCENC  =       387.45056971
  PAW double counting   =     32575.18349433   -31891.73103845
  entropy T*S    EENTRO =       -34.09590416
  eigenvalues    EBANDS =      1907.30380078
  atomic energy  EATOM  =     28058.82806488
  Solvation  Ediel_sol  =         0.00000000
  ---------------------------------------------------
  free energy    TOTEN  =      -140.76751290 eV

  energy without entropy =     -106.67160874  energy(sigma->0) =     -123.71956082


--------------------------------------------------------------------------------------------------------




----------------------------------------- Iteration    1(  10)  ---------------------------------------


    POTLOK:  cpu time    0.0136: real time    0.0139
    SETDIJ:  cpu time    0.0025: real time    0.0025
     EDDAV:  cpu time   24.4831: real time   24.5435
       DOS:  cpu time    0.0012: real time    0.0012
    CHARGE:  cpu time    0.0383: real time    0.0384
    MIXING:  cpu time    0.0006: real time    0.0006
    --------------------------------------------
      LOOP:  cpu time   24.5399: real time   24.6038

 eigenvalue-minimisations  : 10080
 total energy-change (2. order) : 0.1403928E+00  (-0.2037429E+00)
 number of electron     344.0000070 magnetization 
 augmentation part      120.5402279 magnetization 

 Broyden mixing:
  rms(total) = 0.17593E+00    rms(broyden)= 0.17593E+00
  rms(prec ) = 0.26910E+00
  weight for this iteration     100.00

 eigenvalues of (default mixing * dielectric matrix)
  average eigenvalue GAMMA=   1.0745
  2.4060  1.2775  0.8377  0.4805  0.3708

 Free energy of the ion-electron system (eV)
  ---------------------------------------------------
  alpha Z        PSCENC =      2105.98355701
  Ewald energy   TEWEN  =    -29978.94152044
  -Hartree energ DENC   =     -3273.97419049
  -exchange      EXHF   =         0.00000000
  -V(xc)+E(xc)   XCENC  =       387.58068311
  PAW double counting   =     32589.10255988   -31905.67771598
  entropy T*S    EENTRO =       -34.06328393
  eigenvalues    EBANDS =      1910.53472589
  atomic energy  EATOM  =     28058.82806488
  Solvation  Ediel_sol  =         0.00000000
  ---------------------------------------------------
  free energy    TOTEN  =      -140.62712008 eV

  energy without entropy =     -106.56383615  energy(sigma->0) =     -123.59547811


--------------------------------------------------------------------------------------------------------




----------------------------------------- Iteration    1(  11)  ---------------------------------------


    POTLOK:  cpu time    0.0260: real time    0.0262
    SETDIJ:  cpu time    0.0034: real time    0.0035
     EDDAV:  cpu time   19.3116: real time   19.3594
       DOS:  cpu time    0.0009: real time    0.0009
    CHARGE:  cpu time    0.0381: real time    0.0382
    MIXING:  cpu time    0.0020: real time    0.0020
    --------------------------------------------
      LOOP:  cpu time   19.3827: real time   19.4899

 eigenvalue-minimisations  :  8960
 total energy-change (2. order) : 0.2717425E-01  (-0.2818803E-01)
 number of electron     344.0000070 magnetization 
 augmentation part      120.5533131 magnetization 

 Broyden mixing:
  rms(total) = 0.60501E-01    rms(broyden)= 0.60499E-01
  rms(prec ) = 0.76569E-01
  weight for this iteration     100.00

 eigenvalues of (default mixing * dielectric matrix)
  average eigenvalue GAMMA=   1.0731
  2.3227  1.4797  1.2376  0.5696  0.4655  0.3633

 Free energy of the ion-electron system (eV)
  ---------------------------------------------------
  alpha Z        PSCENC =      2105.98355701
  Ewald energy   TEWEN  =    -29978.94152044
  -Hartree energ DENC   =     -3274.72635859
  -exchange      EXHF   =         0.00000000
  -V(xc)+E(xc)   XCENC  =       387.60862529
  PAW double counting   =     32559.94711158   -31876.21169442
  entropy T*S    EENTRO =       -34.05104099
  eigenvalues    EBANDS =      1910.96330985
  atomic energy  EATOM  =     28058.82806488
  Solvation  Ediel_sol  =         0.00000000
  ---------------------------------------------------
  free energy    TOTEN  =      -140.59994582 eV

  energy without entropy =     -106.54890484  energy(sigma->0) =     -123.57442533


--------------------------------------------------------------------------------------------------------




----------------------------------------- Iteration    1(  12)  ---------------------------------------


    POTLOK:  cpu time    0.0143: real time    0.0149
    SETDIJ:  cpu time    0.0054: real time    0.0054
     EDDAV:  cpu time   26.6929: real time   26.7589
       DOS:  cpu time    0.0008: real time    0.0008
    CHARGE:  cpu time    0.0389: real time    0.0389
    MIXING:  cpu time    0.0005: real time    0.0005
    --------------------------------------------
      LOOP:  cpu time   26.7534: real time   26.8226

 eigenvalue-minimisations  : 10528
 total energy-change (2. order) : 0.7836108E-03  (-0.2967808E-02)
 number of electron     344.0000070 magnetization 
 augmentation part      120.5623911 magnetization 

 Broyden mixing:
  rms(total) = 0.27524E-01    rms(broyden)= 0.27523E-01
  rms(prec ) = 0.42251E-01
  weight for this iteration     100.00

 eigenvalues of (default mixing * dielectric matrix)
  average eigenvalue GAMMA=   1.0325
  2.2741  1.7939  1.2483  0.5505  0.5505  0.4516  0.3590

 Free energy of the ion-electron system (eV)
  ---------------------------------------------------
  alpha Z        PSCENC =      2105.98355701
  Ewald energy   TEWEN  =    -29978.94152044
  -Hartree energ DENC   =     -3275.06911911
  -exchange      EXHF   =         0.00000000
  -V(xc)+E(xc)   XCENC  =       387.61798856
  PAW double counting   =     32534.09340471   -31850.05305268
  entropy T*S    EENTRO =       -34.03769192
  eigenvalues    EBANDS =      1910.97920677
  atomic energy  EATOM  =     28058.82806488
  Solvation  Ediel_sol  =         0.00000000
  ---------------------------------------------------
  free energy    TOTEN  =      -140.59916221 eV

  energy without entropy =     -106.56147029  energy(sigma->0) =     -123.58031625


--------------------------------------------------------------------------------------------------------




----------------------------------------- Iteration    1(  13)  ---------------------------------------


    POTLOK:  cpu time    0.0323: real time    0.0326
    SETDIJ:  cpu time    0.0025: real time    0.0025
     EDDAV:  cpu time   19.3682: real time   19.4162
       DOS:  cpu time    0.0011: real time    0.0011
    CHARGE:  cpu time    0.0376: real time    0.0377
    MIXING:  cpu time    0.0006: real time    0.0006
    --------------------------------------------
      LOOP:  cpu time   19.4429: real time   19.5379

 eigenvalue-minimisations  :  8960
 total energy-change (2. order) : 0.5545317E-03  (-0.6885571E-03)
 number of electron     344.0000070 magnetization 
 augmentation part      120.5616319 magnetization 

 Broyden mixing:
  rms(total) = 0.17682E-01    rms(broyden)= 0.17682E-01
  rms(prec ) = 0.21721E-01
  weight for this iteration     100.00

 eigenvalues of (default mixing * dielectric matrix)
  average eigenvalue GAMMA=   1.0847
  2.4080  2.4080  1.2660  0.8136  0.6089  0.4617  0.3467  0.3648

 Free energy of the ion-electron system (eV)
  ---------------------------------------------------
  alpha Z        PSCENC =      2105.98355701
  Ewald energy   TEWEN  =    -29978.94152044
  -Hartree energ DENC   =     -3275.07814727
  -exchange      EXHF   =         0.00000000
  -V(xc)+E(xc)   XCENC  =       387.61728017
  PAW double counting   =     32532.06209966   -31847.98068805
  entropy T*S    EENTRO =       -34.03825453
  eigenvalues    EBANDS =      1910.94900089
  atomic energy  EATOM  =     28058.82806488
  Solvation  Ediel_sol  =         0.00000000
  ---------------------------------------------------
  free energy    TOTEN  =      -140.59860768 eV

  energy without entropy =     -106.56035315  energy(sigma->0) =     -123.57948042


--------------------------------------------------------------------------------------------------------




----------------------------------------- Iteration    1(  14)  ---------------------------------------


    POTLOK:  cpu time    0.0135: real time    0.0139
    SETDIJ:  cpu time    0.0026: real time    0.0026
     EDDAV:  cpu time   24.2669: real time   24.3268
       DOS:  cpu time    0.0017: real time    0.0017
    CHARGE:  cpu time    0.0376: real time    0.0377
    MIXING:  cpu time    0.0013: real time    0.0013
    --------------------------------------------
      LOOP:  cpu time   24.3241: real time   24.3951

 eigenvalue-minimisations  :  9856
 total energy-change (2. order) : 0.4732974E-04  (-0.9698882E-04)
 number of electron     344.0000070 magnetization 
 augmentation part      120.5600763 magnetization 

 Broyden mixing:
  rms(total) = 0.69037E-02    rms(broyden)= 0.69036E-02
  rms(prec ) = 0.86533E-02
  weight for this iteration     100.00

 eigenvalues of (default mixing * dielectric matrix)
  average eigenvalue GAMMA=   1.0403
  2.4804  2.4804  1.2710  0.8287  0.5867  0.5184  0.4657  0.3516  0.3800

 Free energy of the ion-electron system (eV)
  ---------------------------------------------------
  alpha Z        PSCENC =      2105.98355701
  Ewald energy   TEWEN  =    -29978.94152044
  -Hartree energ DENC   =     -3275.01615651
  -exchange      EXHF   =         0.00000000
  -V(xc)+E(xc)   XCENC  =       387.61173081
  PAW double counting   =     32533.10286949   -31848.99718440
  entropy T*S    EENTRO =       -34.03901419
  eigenvalues    EBANDS =      1910.86909300
  atomic energy  EATOM  =     28058.82806488
  Solvation  Ediel_sol  =         0.00000000
  ---------------------------------------------------
  free energy    TOTEN  =      -140.59856035 eV

  energy without entropy =     -106.55954616  energy(sigma->0) =     -123.57905326


--------------------------------------------------------------------------------------------------------




----------------------------------------- Iteration    1(  15)  ---------------------------------------


    POTLOK:  cpu time    0.0152: real time    0.0154
    SETDIJ:  cpu time    0.0036: real time    0.0036
     EDDAV:  cpu time   21.4220: real time   21.4753
       DOS:  cpu time    0.0012: real time    0.0012
    CHARGE:  cpu time    0.0376: real time    0.0377
    MIXING:  cpu time    0.0007: real time    0.0007
    --------------------------------------------
      LOOP:  cpu time   21.4810: real time   21.5963

 eigenvalue-minimisations  :  9184
 total energy-change (2. order) : 0.9923140E-05  (-0.2351561E-04)
 number of electron     344.0000070 magnetization 
 augmentation part      120.5599711 magnetization 

 Broyden mixing:
  rms(total) = 0.30571E-02    rms(broyden)= 0.30570E-02
  rms(prec ) = 0.34932E-02
  weight for this iteration     100.00

 eigenvalues of (default mixing * dielectric matrix)
  average eigenvalue GAMMA=   1.0196
  2.4542  2.4542  1.2758  0.9202  0.9202  0.6121  0.4642  0.3899  0.3681  0.3371

 Free energy of the ion-electron system (eV)
  ---------------------------------------------------
  alpha Z        PSCENC =      2105.98355701
  Ewald energy   TEWEN  =    -29978.94152044
  -Hartree energ DENC   =     -3274.98057451
  -exchange      EXHF   =         0.00000000
  -V(xc)+E(xc)   XCENC  =       387.60952679
  PAW double counting   =     32534.85396651   -31850.75782581
  entropy T*S    EENTRO =       -34.03902963
  eigenvalues    EBANDS =      1910.84528478
  atomic energy  EATOM  =     28058.82806488
  Solvation  Ediel_sol  =         0.00000000
  ---------------------------------------------------
  free energy    TOTEN  =      -140.59855043 eV

  energy without entropy =     -106.55952079  energy(sigma->0) =     -123.57903561


--------------------------------------------------------------------------------------------------------




----------------------------------------- Iteration    1(  16)  ---------------------------------------


    POTLOK:  cpu time    0.0141: real time    0.0142
    SETDIJ:  cpu time    0.0025: real time    0.0025
     EDDAV:  cpu time   23.3324: real time   23.3900
       DOS:  cpu time    0.0010: real time    0.0010
    CHARGE:  cpu time    0.0377: real time    0.0378
    MIXING:  cpu time    0.0007: real time    0.0007
    --------------------------------------------
      LOOP:  cpu time   23.3888: real time   23.4508

 eigenvalue-minimisations  :  9632
 total energy-change (2. order) :-0.1647721E-05  (-0.2038778E-05)
 number of electron     344.0000070 magnetization 
 augmentation part      120.5602059 magnetization 

 Broyden mixing:
  rms(total) = 0.95701E-03    rms(broyden)= 0.95700E-03
  rms(prec ) = 0.11041E-02
  weight for this iteration     100.00

 eigenvalues of (default mixing * dielectric matrix)
  average eigenvalue GAMMA=   1.0388
  2.4982  2.3171  1.5372  1.2583  1.0030  0.6302  0.6302  0.4611  0.3930  0.3592
  0.3395

 Free energy of the ion-electron system (eV)
  ---------------------------------------------------
  alpha Z        PSCENC =      2105.98355701
  Ewald energy   TEWEN  =    -29978.94152044
  -Hartree energ DENC   =     -3274.94708663
  -exchange      EXHF   =         0.00000000
  -V(xc)+E(xc)   XCENC  =       387.60779097
  PAW double counting   =     32537.09648698   -31853.01645473
  entropy T*S    EENTRO =       -34.03883020
  eigenvalues    EBANDS =      1910.82944008
  atomic energy  EATOM  =     28058.82806488
  Solvation  Ediel_sol  =         0.00000000
  ---------------------------------------------------
  free energy    TOTEN  =      -140.59855208 eV

  energy without entropy =     -106.55972187  energy(sigma->0) =     -123.57913697


--------------------------------------------------------------------------------------------------------




----------------------------------------- Iteration    1(  17)  ---------------------------------------


    POTLOK:  cpu time    0.0229: real time    0.0231
    SETDIJ:  cpu time    0.0025: real time    0.0025
     EDDAV:  cpu time   20.3292: real time   20.3795
       DOS:  cpu time    0.0013: real time    0.0013
    --------------------------------------------
      LOOP:  cpu time   20.3564: real time   20.4580

 eigenvalue-minimisations  :  8960
 total energy-change (2. order) :-0.1560802E-06  (-0.4991198E-06)
 number of electron     344.0000070 magnetization 
 augmentation part      120.5602059 magnetization 

 Free energy of the ion-electron system (eV)
  ---------------------------------------------------
  alpha Z        PSCENC =      2105.98355701
  Ewald energy   TEWEN  =    -29978.94152044
  -Hartree energ DENC   =     -3274.94081483
  -exchange      EXHF   =         0.00000000
  -V(xc)+E(xc)   XCENC  =       387.60736544
  PAW double counting   =     32537.85579942   -31853.77610395
  entropy T*S    EENTRO =       -34.03875473
  eigenvalues    EBANDS =      1910.82385497
  atomic energy  EATOM  =     28058.82806488
  Solvation  Ediel_sol  =         0.00000000
  ---------------------------------------------------
  free energy    TOTEN  =      -140.59855223 eV

  energy without entropy =     -106.55979750  energy(sigma->0) =     -123.57917487


--------------------------------------------------------------------------------------------------------




 average (electrostatic) potential at core
  the test charge radii are     1.2098  1.2059
  (the norm of the test charge is              1.0000)
       1 -64.1868       2 -64.2259       3 -64.1426       4 -64.1520       5 -64.1307
       6 -64.1362       7 -64.2606       8 -64.1882       9 -64.2107      10 -64.2678
      11 -64.1698      12 -64.1022      13 -64.1864      14 -64.2358      15 -64.1884
      16 -64.2619      17 -64.1881      18 -64.1510      19 -64.2182      20 -64.2207
      21 -64.1357      22 -64.1862      23 -64.2015      24 -64.1470      25 -64.3031
      26 -64.3733      27 -64.3431      28 -64.3520      29 -64.3053      30 -64.3556
      31 -64.2729      32 -64.3242
 
 
 
 E-fermi :   9.8810     XC(G=0): -12.8082     alpha+bet :-14.2829


 k-point     1 :       0.0000    0.0000    0.0000
  band No.  band energies     occupation 
      1      -0.2132      2.00000
      2       2.0674      2.00000
      3       2.1577      2.00000
      4       2.1812      2.00000
      5       2.2433      2.00000
      6       2.2723      2.00000
      7       2.2743      2.00000
      8       2.3167      2.00000
      9       2.3280      2.00000
     10       2.3528      2.00000
     11       2.4728      2.00000
     12       2.5391      2.00000
     13       2.5920      2.00000
     14       2.6253      2.00000
     15       2.8567      2.00000
     16       2.8697      2.00000
     17       2.8854      2.00000
     18       3.4285      1.99999
     19       3.4519      1.99999
     20       3.4958      1.99999
     21       3.5302      1.99999
     22       3.5424      1.99999
     23       3.5469      1.99999
     24       3.5611      1.99999
     25       3.5700      1.99999
     26       3.5890      1.99999
     27       3.5986      1.99999
     28       3.6137      1.99999
     29       3.6605      1.99999
     30       3.6762      1.99999
     31       3.7175      1.99999
     32       3.7233      1.99999
     33       3.7322      1.99999
     34       3.7469      1.99999
     35       3.7774      1.99998
     36       3.8268      1.99998
     37       3.8456      1.99998
     38       3.8626      1.99998
     39       3.8797      1.99998
     40       3.9486      1.99997
     41       3.9884      1.99997
     42       4.2088      1.99994
     43       4.2509      1.99993
     44       4.2888      1.99992
     45       4.3026      1.99992
     46       4.3138      1.99992
     47       4.3499      1.99991
     48       4.3720      1.99990
     49       4.3834      1.99990
     50       4.3943      1.99990
     51       4.4474      1.99988
     52       4.4586      1.99987
     53       4.4855      1.99986
     54       4.5009      1.99986
     55       4.5269      1.99985
     56       4.5592      1.99983
     57       4.5857      1.99982
     58       4.6265      1.99980
     59       4.6336      1.99979
     60       4.6483      1.99978
     61       4.6615      1.99978
     62       4.6806      1.99976
     63       4.7048      1.99975
     64       4.7189      1.99974
     65       4.7294      1.99973
     66       4.7450      1.99972
     67       4.7614      1.99971
     68       4.7956      1.99968
     69       4.8071      1.99967
     70       4.8451      1.99963
     71       4.8755      1.99960
     72       4.8843      1.99959
     73       4.8938      1.99958
     74       4.9109      1.99956
     75       4.9350      1.99953
     76       4.9476      1.99951
     77       4.9523      1.99951
     78       4.9916      1.99945
     79       5.0224      1.99941
     80       5.0571      1.99935
     81       5.0645      1.99934
     82       5.1099      1.99926
     83       5.1471      1.99918
     84       5.1482      1.99918
     85       5.1946      1.99908
     86       5.2441      1.99896
     87       5.2852      1.99884
     88       5.3574      1.99862
     89       5.5626      1.99774
     90       5.6125      1.99746
     91       5.6615      1.99715
     92       5.6739      1.99707
     93       5.7099      1.99682
     94       5.7236      1.99672
     95       5.7565      1.99646
     96       5.8587      1.99555
     97       5.9043      1.99508
     98       5.9717      1.99430
     99       5.9820      1.99417
    100       6.0068      1.99385
    101       6.0626      1.99307
    102       6.0729      1.99291
    103       6.0794      1.99282
    104       6.1071      1.99238
    105       6.1366      1.99190
    106       6.1567      1.99155
    107       6.1822      1.99109
    108       6.2109      1.99055
    109       6.2258      1.99025
    110       6.2562      1.98963
    111       6.2794      1.98913
    112       6.3073      1.98850
    113       6.3460      1.98757
    114       6.3745      1.98684
    115       6.4208      1.98558
    116       6.4357      1.98516
    117       6.4402      1.98503
    118       6.4723      1.98406
    119       6.5095      1.98288
    120       6.5644      1.98098
    121       6.5676      1.98087
    122       6.5881      1.98011
    123       6.6042      1.97950
    124       6.6501      1.97766
    125       6.6815      1.97633
    126       6.6993      1.97554
    127       6.7467      1.97333
    128       6.7935      1.97098
    129       6.8139      1.96990
    130       6.8383      1.96857
    131       6.8684      1.96685
    132       6.8982      1.96507
    133       6.9193      1.96376
    134       6.9588      1.96120
    135       7.0438      1.95517
    136       7.0726      1.95295
    137       7.2178      1.94033
    138       7.2923      1.93283
    139       7.4035      1.92021
    140       7.4516      1.91418
    141       7.4831      1.91004
    142       7.5176      1.90532
    143       7.5836      1.89573
    144       7.6349      1.88777
    145       7.7006      1.87688
    146       7.8268      1.85366
    147       7.8407      1.85090
    148       7.8686      1.84527
    149       7.9336      1.83149
    150       7.9527      1.82729
    151       8.0351      1.80819
    152       8.1435      1.78078
    153       8.1867      1.76912
    154       8.2309      1.75672
    155       8.2541      1.75003
    156       8.3348      1.72577
    157       8.3364      1.72527
    158       8.3869      1.70926
    159       8.4539      1.68710
    160       8.5444      1.65543
    161       8.5768      1.64358
    162       8.6168      1.62865
    163       8.6628      1.61101
    164       8.7079      1.59321
    165       8.7246      1.58648
    166       8.7722      1.56700
    167       8.7841      1.56203
    168       8.8060      1.55284
    169       8.8125      1.55009
    170       8.8486      1.53464
    171       8.9007      1.51182
    172       9.6668      1.12039
    173       9.6921      1.10630
    174       9.7437      1.07736
    175       9.7489      1.07445
    176       9.7856      1.05379
    177       9.8404      1.02292
    178       9.8614      1.01108
    179       9.9231      0.97626
    180       9.9397      0.96692
    181       9.9653      0.95251
    182       9.9859      0.94091
    183      10.0043      0.93053
    184      10.7140      0.55586
    185      10.7484      0.53966
    186      10.9625      0.44444
    187      13.0948      0.02306
    188      13.1111      0.02237
    189      13.1491      0.02084
    190      13.1694      0.02006
    191      14.5303      0.00101
    192      14.5486      0.00097
    193      14.6410      0.00076
    194      14.7048      0.00065
    195      14.7963      0.00051
    196      15.0326      0.00027
    197      15.7539      0.00003
    198      15.8196      0.00003
    199      15.9342      0.00002
    200      16.0337      0.00001
    201      16.0857      0.00001
    202      16.1122      0.00001
    203      16.1561      0.00001
    204      16.2127      0.00001
    205      16.2526      0.00001
    206      16.2623      0.00001
    207      16.3035      0.00001
    208      16.3331      0.00001
    209      16.3537      0.00000
    210      16.3971      0.00000
    211      16.5198      0.00000
    212      18.2621      0.00000
    213      18.2830      0.00000
    214      18.3085      0.00000
    215      18.3278      0.00000
    216      18.3791      0.00000
    217      18.4301      0.00000
    218      18.5445      0.00000
    219      18.5640      0.00000
    220      18.5990      0.00000
    221      18.6740      0.00000
    222      18.6985      0.00000
    223      18.7695      0.00000
    224      19.2890      0.00000

 k-point     2 :       0.3333    0.0000   -0.0000
  band No.  band energies     occupation 
      1       0.1160      2.00000
      2       1.0574      2.00000
      3       2.3170      2.00000
      4       2.3675      2.00000
      5       2.4501      2.00000
      6       2.4555      2.00000
      7       2.4863      2.00000
      8       2.4964      2.00000
      9       2.5270      2.00000
     10       2.5879      2.00000
     11       2.6585      2.00000
     12       2.7596      2.00000
     13       2.8043      2.00000
     14       2.8724      2.00000
     15       2.9046      2.00000
     16       2.9392      2.00000
     17       2.9707      2.00000
     18       3.0086      2.00000
     19       3.0248      2.00000
     20       3.0688      2.00000
     21       3.0806      2.00000
     22       3.0948      2.00000
     23       3.1545      2.00000
     24       3.1803      2.00000
     25       3.2297      2.00000
     26       3.3389      2.00000
     27       3.3727      2.00000
     28       3.4273      1.99999
     29       3.5575      1.99999
     30       3.6122      1.99999
     31       3.7248      1.99999
     32       3.7668      1.99998
     33       3.7887      1.99998
     34       3.8046      1.99998
     35       3.8346      1.99998
     36       3.8714      1.99998
     37       3.8787      1.99998
     38       3.9047      1.99998
     39       3.9533      1.99997
     40       3.9968      1.99997
     41       4.0338      1.99996
     42       4.1037      1.99996
     43       4.1455      1.99995
     44       4.1855      1.99994
     45       4.2026      1.99994
     46       4.2589      1.99993
     47       4.2930      1.99992
     48       4.3051      1.99992
     49       4.3365      1.99991
     50       4.3732      1.99990
     51       4.3943      1.99990
     52       4.4039      1.99989
     53       4.4322      1.99988
     54       4.4474      1.99988
     55       4.4628      1.99987
     56       4.5200      1.99985
     57       4.5271      1.99985
     58       4.5501      1.99984
     59       4.5731      1.99983
     60       4.6039      1.99981
     61       4.6451      1.99979
     62       4.7011      1.99975
     63       4.7302      1.99973
     64       4.7664      1.99970
     65       4.7841      1.99969
     66       4.8060      1.99967
     67       4.8409      1.99963
     68       4.8753      1.99960
     69       4.8825      1.99959
     70       4.9362      1.99953
     71       4.9477      1.99951
     72       4.9784      1.99947
     73       5.0031      1.99944
     74       5.0183      1.99941
     75       5.0573      1.99935
     76       5.0668      1.99934
     77       5.0824      1.99931
     78       5.1278      1.99922
     79       5.1573      1.99916
     80       5.1845      1.99910
     81       5.1960      1.99908
     82       5.2199      1.99902
     83       5.2672      1.99890
     84       5.3185      1.99875
     85       5.3818      1.99853
     86       5.4177      1.99840
     87       5.4459      1.99829
     88       5.4694      1.99819
     89       5.5054      1.99803
     90       5.5330      1.99789
     91       5.5484      1.99781
     92       5.6290      1.99736
     93       5.6721      1.99708
     94       5.7300      1.99667
     95       5.7995      1.99610
     96       5.8634      1.99550
     97       5.8969      1.99516
     98       5.9266      1.99483
     99       5.9808      1.99418
    100       6.0201      1.99367
    101       6.0608      1.99309
    102       6.0874      1.99269
    103       6.1297      1.99201
    104       6.1676      1.99135
    105       6.2012      1.99073
    106       6.2336      1.99009
    107       6.2570      1.98961
    108       6.2772      1.98917
    109       6.3389      1.98774
    110       6.3657      1.98707
    111       6.3757      1.98681
    112       6.4377      1.98510
    113       6.4481      1.98479
    114       6.4793      1.98385
    115       6.5201      1.98253
    116       6.5791      1.98045
    117       6.5974      1.97976
    118       6.6420      1.97800
    119       6.6686      1.97689
    120       6.6988      1.97556
    121       6.7596      1.97270
    122       6.7877      1.97128
    123       6.8051      1.97037
    124       6.8424      1.96834
    125       6.8498      1.96792
    126       6.8893      1.96561
    127       6.9094      1.96438
    128       6.9465      1.96202
    129       6.9807      1.95972
    130       6.9963      1.95863
    131       7.0237      1.95666
    132       7.0449      1.95508
    133       7.0834      1.95210
    134       7.1060      1.95027
    135       7.1367      1.94769
    136       7.1854      1.94336
    137       7.2032      1.94171
    138       7.2689      1.93526
    139       7.2969      1.93234
    140       7.3608      1.92527
[...]
     98       5.7333      1.99664
     99       5.7776      1.99629
    100       5.7991      1.99610
    101       5.8828      1.99530
    102       5.8921      1.99521
    103       5.9300      1.99479
    104       5.9615      1.99442
    105       5.9999      1.99394
    106       6.0650      1.99303
    107       6.0819      1.99278
    108       6.0976      1.99253
    109       6.1353      1.99192
    110       6.1913      1.99092
    111       6.2447      1.98987
    112       6.2748      1.98923
    113       6.3071      1.98850
    114       6.3441      1.98762
    115       6.3644      1.98710
    116       6.3839      1.98660
    117       6.4259      1.98544
    118       6.4655      1.98427
    119       6.4866      1.98362
    120       6.5265      1.98231
    121       6.5467      1.98161
    122       6.5814      1.98036
    123       6.6248      1.97869
    124       6.6448      1.97788
    125       6.7032      1.97536
    126       6.7103      1.97504
    127       6.7736      1.97200
    128       6.8127      1.96997
    129       6.8448      1.96820
    130       6.8977      1.96510
    131       6.9408      1.96239
    132       6.9660      1.96072
    133       7.0331      1.95597
    134       7.0868      1.95183
    135       7.1287      1.94837
    136       7.1935      1.94262
    137       7.2545      1.93673
    138       7.2943      1.93262
    139       7.3235      1.92946
    140       7.4326      1.91660
    141       7.4705      1.91171
    142       7.4946      1.90848
    143       7.5369      1.90259
    144       7.5504      1.90064
    145       7.6123      1.89134
    146       7.6735      1.88146
    147       7.7131      1.87472
    148       7.8139      1.85618
    149       7.8347      1.85209
    150       7.8786      1.84321
    151       7.9206      1.83432
    152       7.9618      1.82524
    153       8.0125      1.81357
    154       8.0494      1.80474
    155       8.0811      1.79690
    156       8.1199      1.78699
    157       8.1636      1.77542
    158       8.2136      1.76161
    159       8.2417      1.75361
    160       8.3079      1.73403
    161       8.3542      1.71971
    162       8.4162      1.69970
    163       8.4369      1.69283
    164       8.4784      1.67870
    165       8.5168      1.66530
    166       8.5352      1.65872
    167       8.6674      1.60922
    168       8.7865      1.56104
    169       8.9880      1.47225
    170       9.0538      1.44139
    171       9.1662      1.38678
    172       9.9990      0.93350
    173      10.0424      0.90913
    174      10.0820      0.88702
    175      10.1209      0.86534
    176      10.1613      0.84290
    177      10.2671      0.78486
    178      10.6185      0.60203
    179      10.6667      0.57852
    180      10.6939      0.56542
    181      11.1198      0.38105
    182      11.1394      0.37357
    183      11.2462      0.33440
    184      12.2267      0.09719
    185      12.3502      0.08082
    186      12.3660      0.07890
    187      12.4005      0.07482
    188      12.5253      0.06152
    189      12.5626      0.05793
    190      12.6668      0.04885
    191      12.8356      0.03669
    192      12.9735      0.02877
    193      13.3837      0.01326
    194      13.4762      0.01102
    195      13.6781      0.00726
    196      14.0321      0.00333
    197      14.1599      0.00248
    198      14.1742      0.00240
    199      14.8354      0.00046
    200      14.9030      0.00038
    201      14.9477      0.00034
    202      15.0227      0.00028
    203      15.0675      0.00025
    204      15.1717      0.00018
    205      16.2190      0.00001
    206      16.2759      0.00001
    207      16.2873      0.00001
    208      16.3488      0.00000
    209      16.3654      0.00000
    210      16.4333      0.00000
    211      16.4877      0.00000
    212      16.6141      0.00000
    213      16.6560      0.00000
    214      17.7827      0.00000
    215      18.2659      0.00000
    216      18.4235      0.00000
    217      18.5743      0.00000
    218      19.4664      0.00000
    219      19.5133      0.00000
    220      19.5898      0.00000
    221      19.6492      0.00000
    222      19.7127      0.00000
    223      19.7527      0.00000
    224      19.7826      0.00000


--------------------------------------------------------------------------------------------------------


 soft charge-density along one line, spin component           1
         0         1         2         3         4         5         6         7         8         9
 total charge-density along one line
 
 pseudopotential strength for first ion, spin component:           1
 -3.752   0.000   0.001  -0.001  -0.000  -3.993   0.000   0.001
  0.000  -3.751   0.001  -0.000  -0.002   0.000  -3.992   0.001
  0.001   0.001  -3.736  -0.001  -0.001   0.001   0.001  -3.977
 -0.001  -0.000  -0.001  -3.754  -0.002  -0.001  -0.000  -0.001
 -0.000  -0.002  -0.001  -0.002  -3.737  -0.000  -0.002  -0.001
 -3.993   0.000   0.001  -0.001  -0.000  -4.217   0.000   0.001
  0.000  -3.992   0.001  -0.000  -0.002   0.000  -4.216   0.001
  0.001   0.001  -3.977  -0.001  -0.001   0.001   0.001  -4.201
 -0.001  -0.000  -0.001  -3.996  -0.002  -0.001  -0.000  -0.001
 -0.000  -0.002  -0.001  -0.002  -3.979  -0.000  -0.002  -0.001
  0.001  -0.001   0.000   0.001   0.000   0.001  -0.001   0.000
  0.001  -0.002   0.000   0.002   0.000   0.001  -0.002   0.000
 -0.002  -0.000   0.001   0.000   0.002  -0.002  -0.000   0.001
  0.000  -0.002  -0.000  -0.001  -0.000   0.000  -0.002  -0.000
 -0.003   0.000   0.001  -0.000  -0.001  -0.003   0.000   0.001
 -0.002  -0.001   0.002   0.000   0.003  -0.002  -0.001   0.002
  0.000  -0.003  -0.001  -0.002  -0.000   0.000  -0.003  -0.001
 -0.003   0.000   0.001  -0.001  -0.002  -0.003   0.000   0.001
 total augmentation occupancy for first ion, spin component:           1
  5.569   0.094   0.038  -0.092   0.002  -3.484  -0.081  -0.020   0.071  -0.002  -0.003  -0.025  -0.002  -0.001  -0.002  -0.002
  0.094   5.500   0.047   0.036  -0.073  -0.081  -3.417  -0.030  -0.031   0.041  -0.001   0.047   0.058  -0.005  -0.001  -0.002
  0.038   0.047   5.280  -0.043  -0.012  -0.020  -0.030  -2.977   0.025  -0.004   0.002  -0.011   0.008   0.044   0.003   0.002
 -0.092   0.036  -0.043   5.437  -0.074   0.071  -0.031   0.025  -3.407   0.044  -0.004  -0.049  -0.001  -0.002   0.061   0.000
  0.002  -0.073  -0.012  -0.074   5.157  -0.002   0.041  -0.004   0.044  -2.880  -0.001  -0.006   0.013   0.002  -0.002   0.002
 -3.484  -0.081  -0.020   0.071  -0.002   3.296   0.068   0.007  -0.052   0.002   0.005   0.020   0.005   0.001   0.005   0.001
 -0.081  -3.417  -0.030  -0.031   0.041   0.068   3.230   0.018   0.026  -0.017  -0.002  -0.038  -0.060   0.006   0.001   0.002
 -0.020  -0.030  -2.977   0.025  -0.004   0.007   0.018   2.626  -0.011   0.017  -0.001   0.009  -0.009  -0.045  -0.004  -0.000
  0.071  -0.031   0.025  -3.407   0.044  -0.052   0.026  -0.011   3.263  -0.023   0.008   0.039   0.001   0.001  -0.064  -0.000
 -0.002   0.041  -0.004   0.044  -2.880   0.002  -0.017   0.017  -0.023   2.551   0.004   0.005  -0.014  -0.003   0.001  -0.000
 -0.003  -0.001   0.002  -0.004  -0.001   0.005  -0.002  -0.001   0.008   0.004   2.572  -0.654   0.006  -0.042   0.002  -0.001
 -0.025   0.047  -0.011  -0.049  -0.006   0.020  -0.038   0.009   0.039   0.005  -0.654   0.237   0.001   0.013   0.001  -0.000
 -0.002   0.058   0.008  -0.001   0.013   0.005  -0.060  -0.009   0.001  -0.014   0.006   0.001   0.209  -0.005   0.003  -0.007
 -0.001  -0.005   0.044  -0.002   0.002   0.001   0.006  -0.045   0.001  -0.003  -0.042   0.013  -0.005   0.211   0.006   0.000
 -0.002  -0.001   0.003   0.061  -0.002   0.005   0.001  -0.004  -0.064   0.001   0.002   0.001   0.003   0.006   0.210  -0.000
 -0.002  -0.002   0.002   0.000   0.002   0.001   0.002  -0.000  -0.000  -0.000  -0.001  -0.000  -0.007   0.000  -0.000   0.000
  0.000  -0.002  -0.002  -0.001  -0.000  -0.000   0.000   0.002  -0.000   0.000   0.002  -0.001  -0.000  -0.007  -0.000   0.000
 -0.003   0.000   0.002  -0.002  -0.001   0.001  -0.000  -0.001   0.002   0.000  -0.000  -0.000  -0.000  -0.000  -0.007  -0.000


------------------------ aborting loop because EDIFF is reached ----------------------------------------


    CHARGE:  cpu time    0.0376: real time    0.0376
    FORLOC:  cpu time    0.0006: real time    0.0006
    FORNL :  cpu time    0.5719: real time    0.5732
    STRESS:  cpu time    2.2737: real time    2.2795
    FORCOR:  cpu time    0.0085: real time    0.0085
    FORHAR:  cpu time    0.0027: real time    0.0028
    MIXING:  cpu time    0.0006: real time    0.0006
    OFIELD:  cpu time    0.0000: real time    0.0001

  FORCE on cell =-STRESS in cart. coord.  units (eV):
  Direction    XX          YY          ZZ          XY          YZ          ZX
  --------------------------------------------------------------------------------------
  Alpha Z  2105.98356  2105.98356  2105.98356
  Ewald   -9967.91183-10026.35851 -9984.78412    -3.22436    34.72456    -3.02512
  Hartree  1105.01067  1067.68103  1102.24722    -1.70158    15.82695    -2.46672
  E(xc)   -1545.76282 -1545.76441 -1545.76900    -0.00603     0.05815     0.00046
  Local    1361.85601  1455.04338  1379.33695     4.79760   -48.66530     5.39039
  n-local    96.16121    94.32475    95.01191    -0.00983     0.37634    -0.15762
  augment  2041.89484  2042.97251  2042.71186     0.03562    -0.54904     0.06901
  Kinetic  4835.08102  4836.49523  4836.10062     0.08701    -1.16308     0.12247
  Fock        0.00000     0.00000     0.00000     0.00000     0.00000     0.00000
  -------------------------------------------------------------------------------------
  Total      32.31266    30.37753    30.83901    -0.02158     0.60858    -0.06714
  in kB      95.98954    90.24094    91.61184    -0.06410     1.80787    -0.19945
  external pressure =       92.61 kB  Pullay stress =        0.00 kB


 VOLUME and BASIS-vectors are now :
 -----------------------------------------------------------------------------
  energy-cutoff  :      400.00
  volume of cell :      539.34
      direct lattice vectors                 reciprocal lattice vectors
     8.066328000  0.001584000 -0.000082000     0.123972152 -0.000023717  0.000001234
     0.001566000  8.184598000 -0.019139000    -0.000023990  0.122181384  0.000285974
    -0.000085000 -0.019121000  8.169370000     0.000001188  0.000286243  0.122409130

  length of vectors
     8.066328156  8.184620527  8.169392377     0.123972154  0.122181721  0.122409465


 FORCES acting on ions
    electron-ion (+dipol)            ewald-force                    non-local-force                 convergence-correction
 -----------------------------------------------------------------------------------------------
   -.163E+02 -.196E+02 -.408E+02   0.165E+02 0.199E+02 0.407E+02   -.824E-01 -.229E+00 0.700E+00   -.559E-02 -.152E-02 -.721E-02
   -.236E+02 0.144E+02 0.319E+02   0.239E+02 -.141E+02 -.320E+02   -.251E-01 -.370E+00 -.370E+00   0.160E-02 0.564E-03 0.397E-03
   0.110E+01 -.202E+02 -.278E+02   -.126E+01 0.204E+02 0.283E+02   0.175E+00 -.116E+00 -.176E+00   -.224E-02 -.650E-02 -.807E-02
   0.139E+02 0.287E+02 0.166E+02   -.140E+02 -.289E+02 -.173E+02   -.141E+00 0.203E-01 0.460E+00   0.253E-02 0.264E-02 -.160E-02
   0.173E+02 -.334E+02 -.302E+01   -.176E+02 0.338E+02 0.289E+01   0.151E+00 -.157E+00 0.137E+00   0.628E-02 -.202E-02 -.729E-02
   -.259E+02 0.536E+02 -.145E+01   0.264E+02 -.540E+02 0.133E+01   -.271E+00 -.446E-01 0.228E+00   -.801E-02 0.865E-02 -.291E-03
   0.287E+02 0.444E+02 -.322E+02   -.290E+02 -.445E+02 0.325E+02   -.314E-01 -.443E+00 0.225E+00   0.194E-02 -.128E-03 0.200E-02
   -.131E+02 0.438E+02 -.219E+02   0.131E+02 -.442E+02 0.220E+02   0.171E+00 0.867E-01 0.123E+00   -.244E-02 0.103E-02 -.956E-03
   0.259E+02 -.578E+02 0.369E+02   -.264E+02 0.581E+02 -.367E+02   0.315E+00 0.386E+00 -.781E+00   0.718E-02 -.734E-02 -.321E-03
   -.321E+02 -.655E+02 0.210E+02   0.326E+02 0.661E+02 -.210E+02   -.155E-01 0.227E+00 -.255E+00   0.951E-04 -.523E-02 0.768E-03
   0.170E+02 -.359E+02 0.246E+01   -.172E+02 0.361E+02 -.229E+01   0.145E+00 0.115E+00 -.189E+00   0.543E-02 0.681E-04 0.707E-02
   -.253E+02 -.101E+02 -.280E+01   0.258E+02 0.985E+01 0.299E+01   -.134E+00 0.206E+00 -.829E-01   0.212E-03 -.822E-03 -.195E-02
   -.425E+00 -.287E+02 -.190E+02   0.574E+00 0.290E+02 0.191E+02   -.174E+00 -.608E-01 0.102E+00   0.205E-02 -.296E-02 -.956E-03
   -.300E+02 0.239E+02 0.103E+02   0.303E+02 -.237E+02 -.104E+02   0.445E-01 -.411E+00 -.882E-01   -.159E-02 -.212E-03 0.279E-02
   -.101E+02 -.513E+02 0.356E+01   0.983E+01 0.517E+02 -.389E+01   0.455E+00 0.228E+00 0.218E+00   -.782E-03 -.472E-03 0.154E-02
   -.197E+02 -.290E+02 -.106E+01   0.197E+02 0.295E+02 0.603E+00   0.161E+00 -.366E+00 0.453E+00   0.280E-03 -.451E-02 0.256E-02
   -.296E+02 0.187E+02 -.109E+02   0.299E+02 -.189E+02 0.109E+02   0.109E+00 0.129E+00 0.818E-01   -.242E-02 0.186E-02 -.305E-02
   0.250E+02 0.542E+02 0.254E+02   -.254E+02 -.544E+02 -.257E+02   0.281E+00 -.330E+00 -.630E-02   0.813E-02 0.737E-02 0.205E-02
   0.210E+02 -.220E+02 -.319E+02   -.210E+02 0.223E+02 0.317E+02   -.200E+00 -.218E+00 0.663E+00   -.199E-03 -.275E-02 0.800E-03
   0.194E+02 0.514E+02 -.293E+02   -.194E+02 -.520E+02 0.294E+02   -.474E+00 -.788E-01 0.295E+00   0.235E-02 0.364E-03 -.167E-03
   0.243E+02 0.324E+02 0.241E+02   -.246E+02 -.328E+02 -.244E+02   0.280E-01 0.141E+00 -.263E-01   0.267E-02 0.232E-02 -.213E-02
   -.118E+02 0.557E+02 -.186E+02   0.121E+02 -.562E+02 0.193E+02   -.118E+00 0.388E-01 -.443E+00   0.284E-03 0.501E-02 0.159E-02
   0.238E+02 0.139E+02 0.327E+02   -.242E+02 -.136E+02 -.326E+02   0.502E-01 -.433E+00 -.504E+00   -.178E-02 0.153E-02 0.126E-02
   0.121E+02 0.478E+02 -.999E+01   -.123E+02 -.483E+02 0.103E+02   0.107E+00 0.815E-01 -.177E+00   -.483E-03 0.857E-02 0.863E-02
   -.123E+02 0.190E+02 0.693E+01   0.123E+02 -.192E+02 -.717E+01   0.198E+00 0.830E-01 0.985E-01   -.237E-02 0.606E-02 -.790E-02
   0.293E+02 -.474E+02 0.225E+02   -.297E+02 0.478E+02 -.229E+02   -.594E-01 0.209E+00 0.558E-01   -.180E-03 -.782E-02 0.711E-02
   -.177E+02 0.240E+02 0.620E+01   0.177E+02 -.245E+02 -.611E+01   0.213E+00 0.327E+00 -.270E+00   -.665E-03 0.437E-02 0.393E-03
   -.148E+02 -.186E+02 0.296E+02   0.151E+02 0.184E+02 -.297E+02   -.892E-01 0.269E+00 -.288E+00   -.495E-02 0.111E-03 0.672E-02
   0.235E+02 -.871E+01 -.274E+01   -.239E+02 0.852E+01 0.288E+01   0.586E-01 0.138E+00 -.164E-01   0.204E-03 -.172E-02 -.108E-02
   0.851E+01 -.465E+02 0.343E+01   -.821E+01 0.469E+02 -.369E+01   -.468E+00 0.189E+00 0.110E+00   0.530E-03 -.449E-03 0.210E-02
   0.150E+02 0.197E+02 -.196E+02   -.150E+02 -.200E+02 0.198E+02   -.122E+00 0.123E+00 -.399E-02   0.715E-03 0.261E-02 -.176E-02
   -.231E+02 -.505E+02 -.687E+00   0.236E+02 0.510E+02 0.110E+01   -.203E+00 0.861E-01 -.245E+00   -.641E-02 -.821E-02 -.222E-02
 -----------------------------------------------------------------------------------------------
   -.589E-01 0.176E+00 -.286E-01   0.458E-12 0.256E-12 -.252E-12   0.567E-01 -.176E+00 0.258E-01   0.236E-02 0.467E-03 0.820E-03
 
 
 POSITION                                       TOTAL-FORCE (eV/Angst)
 -----------------------------------------------------------------------------------
      2.01804      6.12710      4.00834         0.099219      0.101374      0.619619
      8.06369      2.05928      6.16489         0.293693     -0.123171     -0.440202
      4.03131      4.07063      4.06461         0.004345      0.088810      0.330988
      0.00375      0.00119      4.07883        -0.217767     -0.184786     -0.219128
      6.04691      6.11292      4.05846        -0.112191      0.302747     -0.002097
      2.01587      0.01533      6.10848         0.213494     -0.489018      0.107202
      6.07104      2.05447      8.15690        -0.309865     -0.567902      0.546572
      4.01391      2.05294      2.02845         0.210251     -0.393705      0.196998
      6.04630      4.02646      6.19023        -0.208707      0.700227     -0.558064
      8.05634      4.05727      0.01038         0.455889      0.800828     -0.308814
      6.04843      6.13175     -0.00798        -0.110970      0.291961     -0.007162
      8.04816      6.11566      6.10704         0.312968     -0.015457      0.103765
      0.00184      4.07690      4.06583        -0.022852      0.198415      0.196685
      2.00193      2.07516      0.00771         0.346865     -0.243523     -0.149236
      4.00760      6.08618      2.01693         0.232785      0.575352     -0.112659
      2.00775      4.08897      2.00820         0.193117      0.151611      0.000343
      1.98810      2.04320      4.07199         0.342102     -0.096997      0.145749
      6.04423      0.04837      6.14666        -0.189075     -0.554426     -0.280025
      6.07315      4.08888      1.97773        -0.219731      0.070780      0.476701
      0.04615      2.07649      2.00674        -0.413572     -0.614380      0.381209
      6.06562      2.05856      4.08896        -0.212615     -0.299366     -0.306394
      0.01069      0.01597      0.00576         0.098306     -0.492860      0.234248
      4.03246      2.05930      6.17349        -0.299239     -0.123727     -0.450152
      4.02162      0.01987      0.01211        -0.112105     -0.418667      0.137982
      4.02098      0.00093      4.08070         0.176013     -0.131849     -0.153243
      4.04759      4.05990      0.00749        -0.483552      0.593534     -0.335199
      1.99448      8.16652      2.04049         0.196369     -0.199043     -0.174804
      2.02003      6.11618     -0.00480         0.117327      0.053991     -0.339768
      4.04999      6.11837      6.10463        -0.371981     -0.050302      0.121389
      0.02795      6.09177      2.01827        -0.161537      0.619863     -0.155080
      6.07071      8.17912      2.01381        -0.121069     -0.117427      0.231223
      2.01911      4.06391      6.12129         0.274086      0.567113      0.161352
 -----------------------------------------------------------------------------------
    total drift:                                0.000216      0.000502     -0.001990


--------------------------------------------------------------------------------------------------------



  FREE ENERGIE OF THE ION-ELECTRON SYSTEM (eV)
  ---------------------------------------------------
  free  energy   TOTEN  =      -140.59855223 eV

  energy  without entropy=     -106.55979750  energy(sigma->0) =     -123.57917487
 


--------------------------------------------------------------------------------------------------------


    POTLOK:  cpu time    0.0160: real time    0.0162


--------------------------------------------------------------------------------------------------------


     LOOP+:  cpu time  372.3993: real time  373.9868
    4ORBIT:  cpu time    0.0000: real time    0.0000

 total amount of memory used by VASP on root node    85138. kBytes
========================================================================

   base      :      30000. kBytes
   nonl-proj :      44785. kBytes
   fftplans  :        873. kBytes
   grid      :       6625. kBytes
   one-center:        497. kBytes
   wavefun   :       2358. kBytes
 
  
  
 General timing and accounting informations for this job:
 ========================================================
  
                  Total CPU time used (sec):      384.179
                            User time (sec):      382.417
                          System time (sec):        1.763
                         Elapsed time (sec):      387.713
  
                   Maximum memory used (kb):      723948.
                   Average memory used (kb):           0.
  
                          Minor page faults:       514453
                          Major page faults:           54
                 Voluntary context switches:        16841
