<?xml version="1.0" encoding="ISO-8859-1"?>
<modeling>
 <generator>
  <i name="program" type="string">vasp </i>
  <i name="version" type="string">5.4.1  </i>
  <i name="subversion" type="string">05Feb16 (build Jan 29 2020 16:04:39) complex                          parallel </i>
  <i name="platform" type="string">IFC91_ompi </i>
  <i name="date" type="string">2020 06 15 </i>
  <i name="time" type="string">13:00:30 </i>
 </generator>
 <incar>
  <i type="string" name="SYSTEM"> automatically generated by mexm</i>
  <i type="int" name="ISTART">     0</i>
  <i type="string" name="PREC">accurate               ! avoid wrap aro</i>
  <i type="string" name="ALGO"> Fast                   ! blocked Davids</i>
  <i type="int" name="ISPIN">     1</i>
  <i type="int" name="ICHARG">     2</i>
  <i type="int" name="NELM">    70</i>
  <i type="int" name="IBRION">     2</i>
  <i name="EDIFF">      0.00001000</i>
  <i name="EDIFFG">     -0.01000000</i>
  <i type="int" name="NSW">   300</i>
  <i type="int" name="ISIF">     3</i>
  <i type="int" name="ISYM">     1</i>
  <i name="ENCUT">    300.00000000</i>
  <i name="POTIM">      0.15000000</i>
  <i type="string" name="LREAL"> Auto                  ! unpublished met</i>
  <i type="int" name="ISMEAR">     1</i>
  <i name="SIGMA">      0.15000000</i>
  <i type="logical" name="LWAVE"> F  </i>
  <i type="logical" name="LCHARG"> F  </i>
  <i type="logical" name="LVTOT"> F  </i>
  <v type="int" name="KPOINT_BSE">    -1     0     0     0</v>
  <i type="int" name="NELM">    70</i>
 </incar>
 <kpoints>
  <generation param="Gamma">
   <v type="int" name="divisions">       3        3        3 </v>
   <v name="usershift">      0.00000000       0.00000000       0.00000000 </v>
   <v name="genvec1">      0.33333333      -0.00000000       0.00000000 </v>
   <v name="genvec2">     -0.00000000       0.33333333       0.00000000 </v>
   <v name="genvec3">     -0.00000000      -0.00000000       0.33333333 </v>
   <v name="shift">      0.00000000       0.00000000       0.00000000 </v>
  </generation>
  <varray name="kpointlist" >
   <v>       0.00000000       0.00000000       0.00000000 </v>
   <v>       0.33333333       0.00000000      -0.00000000 </v>
   <v>      -0.00000000       0.33333333       0.00000000 </v>
   <v>       0.33333333       0.33333333       0.00000000 </v>
   <v>      -0.33333333       0.33333333       0.00000000 </v>
   <v>      -0.00000000       0.00000000       0.33333333 </v>
   <v>       0.33333333       0.00000000       0.33333333 </v>
   <v>      -0.33333333      -0.00000000       0.33333333 </v>
   <v>       0.00000000       0.33333333       0.33333333 </v>
   <v>       0.33333333       0.33333333       0.33333333 </v>
   <v>      -0.33333333       0.33333333       0.33333333 </v>
   <v>       0.00000000      -0.33333333       0.33333333 </v>
   <v>       0.33333333      -0.33333333       0.33333333 </v>
   <v>      -0.33333333      -0.33333333       0.33333333 </v>
  </varray>
  <varray name="weights" >
   <v>       0.03703704 </v>
   <v>       0.07407407 </v>
   <v>       0.07407407 </v>
   <v>       0.07407407 </v>
   <v>       0.07407407 </v>
   <v>       0.07407407 </v>
   <v>       0.07407407 </v>
   <v>       0.07407407 </v>
   <v>       0.07407407 </v>
   <v>       0.07407407 </v>
   <v>       0.07407407 </v>
   <v>       0.07407407 </v>
   <v>       0.07407407 </v>
   <v>       0.07407407 </v>
  </varray>
 </kpoints>
 <parameters>
  <separator name="general" >
   <i type="string" name="SYSTEM">automatically generated by mexm</i>
   <i type="logical" name="LCOMPAT"> F  </i>
  </separator>
  <separator name="electronic" >
   <i type="string" name="PREC">accura</i>
   <i name="ENMAX">    300.00000000</i>
   <i name="ENAUG">    461.25700000</i>
   <i name="EDIFF">      0.00001000</i>
   <i type="int" name="IALGO">    68</i>
   <i type="int" name="IWAVPR">    11</i>
   <i type="int" name="NBANDS">   176</i>
   <i name="NELECT">    289.00000000</i>
   <i type="int" name="TURBO">     0</i>
   <i type="int" name="IRESTART">     0</i>
   <i type="int" name="NREBOOT">     0</i>
   <i type="int" name="NMIN">     0</i>
   <i name="EREF">      0.00000000</i>
   <separator name="electronic smearing" >
    <i type="int" name="ISMEAR">     1</i>
    <i name="SIGMA">      0.15000000</i>
    <i name="KSPACING">      0.50000000</i>
    <i type="logical" name="KGAMMA"> T  </i>
   </separator>
   <separator name="electronic projectors" >
    <i type="logical" name="LREAL"> T  </i>
    <v name="ROPT">     -0.00025000     -0.00025000     -0.00025000     -0.00025000</v>
    <i type="int" name="LMAXPAW">  -100</i>
    <i type="int" name="LMAXMIX">     2</i>
    <i type="logical" name="NLSPLINE"> F  </i>
   </separator>
   <separator name="electronic startup" >
    <i type="int" name="ISTART">     0</i>
    <i type="int" name="ICHARG">     2</i>
    <i type="int" name="INIWAV">     1</i>
   </separator>
   <separator name="electronic spin" >
    <i type="int" name="ISPIN">     1</i>
    <i type="logical" name="LNONCOLLINEAR"> F  </i>
    <v name="MAGMOM">      1.00000000      1.00000000      1.00000000      1.00000000      1.00000000      1.00000000      1.00000000      1.00000000      1.00000000      1.00000000      1.00000000      1.00000000      1.00000000      1.00000000      1.00000000      1.00000000      1.00000000      1.00000000      1.00000000      1.00000000
      1.00000000      1.00000000      1.00000000      1.00000000      1.00000000      1.00000000      1.00000000      1.00000000      1.00000000      1.00000000      1.00000000      1.00000000      1.00000000      1.00000000      1.00000000      1.00000000</v>
    <i name="NUPDOWN">     -1.00000000</i>
    <i type="logical" name="LSORBIT"> F  </i>
    <v name="SAXIS">      0.00000000      0.00000000      1.00000000</v>
    <i type="logical" name="LSPIRAL"> F  </i>
    <v name="QSPIRAL">      0.00000000      0.00000000      0.00000000</v>
    <i type="logical" name="LZEROZ"> F  </i>
   </separator>
   <separator name="electronic exchange-correlation" >
    <i type="logical" name="LASPH"> F  </i>
    <i type="logical" name="LMETAGGA"> F  </i>
   </separator>
   <separator name="electronic convergence" >
    <i type="int" name="NELM">    70</i>
    <i type="int" name="NELMDL">    -5</i>
    <i type="int" name="NELMIN">     2</i>
    <i name="ENINI">    300.00000000</i>
    <separator name="electronic convergence detail" >
     <i type="logical" name="LDIAG"> T  </i>
     <i type="logical" name="LSUBROT"> F  </i>
     <i name="WEIMIN">      0.00100000</i>
     <i name="EBREAK">      0.00000001</i>
     <i name="DEPER">      0.30000000</i>
     <i type="int" name="NRMM">     4</i>
     <i name="TIME">      0.40000000</i>
    </separator>
   </separator>
   <separator name="electronic mixer" >
    <i name="AMIX">      0.40000000</i>
    <i name="BMIX">      1.00000000</i>
    <i name="AMIN">      0.10000000</i>
    <i name="AMIX_MAG">      1.60000000</i>
    <i name="BMIX_MAG">      1.00000000</i>
    <separator name="electronic mixer details" >
     <i type="int" name="IMIX">     4</i>
     <i type="logical" name="MIXFIRST"> F  </i>
     <i type="int" name="MAXMIX">   -45</i>
     <i name="WC">    100.00000000</i>
     <i type="int" name="INIMIX">     1</i>
     <i type="int" name="MIXPRE">     1</i>
     <i type="int" name="MREMOVE">     5</i>
    </separator>
   </separator>
   <separator name="electronic dipolcorrection" >
    <i type="logical" name="LDIPOL"> F  </i>
    <i type="logical" name="LMONO"> F  </i>
    <i type="int" name="IDIPOL">     0</i>
    <i name="EPSILON">      1.00000000</i>
    <v name="DIPOL">   -100.00000000   -100.00000000   -100.00000000</v>
    <i name="EFIELD">      0.00000000</i>
   </separator>
  </separator>
  <separator name="grids" >
   <i type="int" name="NGX">    40</i>
   <i type="int" name="NGY">    60</i>
   <i type="int" name="NGZ">    60</i>
   <i type="int" name="NGXF">    80</i>
   <i type="int" name="NGYF">   120</i>
   <i type="int" name="NGZF">   120</i>
   <i type="logical" name="ADDGRID"> F  </i>
  </separator>
  <separator name="ionic" >
   <i type="int" name="NSW">   300</i>
   <i type="int" name="IBRION">     2</i>
   <i type="int" name="ISIF">     3</i>
   <i name="PSTRESS">      0.00000000</i>
   <i name="EDIFFG">     -0.01000000</i>
   <i type="int" name="NFREE">     1</i>
   <i name="POTIM">      0.15000000</i>
   <i name="SMASS">     -3.00000000</i>
   <i name="SCALEE">      1.00000000</i>
  </separator>
  <separator name="ionic md" >
   <i name="TEBEG">      0.00010000</i>
   <i name="TEEND">      0.00010000</i>
   <i type="int" name="NBLOCK">     1</i>
   <i type="int" name="KBLOCK">   300</i>
   <i type="int" name="NPACO">   256</i>
   <i name="APACO">     16.00000000</i>
  </separator>
  <separator name="symmetry" >
   <i type="int" name="ISYM">     1</i>
   <i name="SYMPREC">      0.00001000</i>
  </separator>
  <separator name="dos" >
   <i type="logical" name="LORBIT"> F  </i>
   <v name="RWIGS">     -1.00000000     -1.00000000     -1.00000000     -1.00000000</v>
   <i type="int" name="NEDOS">   301</i>
   <i name="EMIN">     10.00000000</i>
   <i name="EMAX">    -10.00000000</i>
   <i name="EFERMI">      0.00000000</i>
  </separator>
  <separator name="writing" >
   <i type="int" name="NWRITE">     2</i>
   <i type="logical" name="LWAVE"> F  </i>
   <i type="logical" name="LCHARG"> F  </i>
   <i type="logical" name="LPARD"> F  </i>
   <i type="logical" name="LVTOT"> F  </i>
   <i type="logical" name="LVHAR"> F  </i>
   <i type="logical" name="LELF"> F  </i>
   <i type="logical" name="LOPTICS"> F  </i>
   <v name="STM">      0.00000000      0.00000000      0.00000000      0.00000000      0.00000000      0.00000000      0.00000000</v>
  </separator>
  <separator name="performance" >
   <i type="int" name="NPAR">     4</i>
   <i type="int" name="NSIM">     4</i>
   <i type="int" name="NBLK">    -1</i>
   <i type="logical" name="LPLANE"> T  </i>
   <i type="logical" name="LSCALAPACK"> T  </i>
   <i type="logical" name="LSCAAWARE"> F  </i>
   <i type="logical" name="LSCALU"> F  </i>
   <i type="logical" name="LASYNC"> F  </i>
   <i type="logical" name="LORBITALREAL"> F  </i>
  </separator>
  <separator name="miscellaneous" >
   <i type="int" name="IDIOT">     3</i>
   <i type="logical" name="LMUSIC"> F  </i>
   <v name="POMASS">     91.22400000     92.91000000    180.94800000    178.49000000</v>
   <v name="DARWINR">      0.00000000      0.00000000      0.00000000      0.00000000</v>
   <v name="DARWINV">      1.00000000      1.00000000      1.00000000      1.00000000</v>
   <i type="logical" name="LCORR"> T  </i>
  </separator>
  <i type="logical" name="GGA_COMPAT"> T  </i>
  <i type="logical" name="LBERRY"> F  </i>
  <i type="int" name="ICORELEVEL">     0</i>
  <i type="logical" name="LDAU"> F  </i>
  <i type="int" name="I_CONSTRAINED_M">     0</i>
  <separator name="electronic exchange-correlation" >
   <i type="string" name="GGA">--</i>
   <i type="int" name="VOSKOWN">     0</i>
   <i type="logical" name="LHFCALC"> F  </i>
   <i type="string" name="PRECFOCK"></i>
   <i type="logical" name="LSYMGRAD"> F  </i>
   <i type="logical" name="LHFONE"> F  </i>
   <i type="logical" name="LRHFCALC"> F  </i>
   <i type="logical" name="LTHOMAS"> F  </i>
   <i type="logical" name="LMODELHF"> F  </i>
   <i name="ENCUT4O">     -1.00000000</i>
   <i type="int" name="EXXOEP">     0</i>
   <i type="int" name="FOURORBIT">     0</i>
   <i name="AEXX">      0.00000000</i>
   <i name="HFALPHA">      0.00000000</i>
   <i name="MCALPHA">      0.00000000</i>
   <i name="ALDAX">      1.00000000</i>
   <i name="AGGAX">      1.00000000</i>
   <i name="ALDAC">      1.00000000</i>
   <i name="AGGAC">      1.00000000</i>
   <i type="int" name="NKREDX">     1</i>
   <i type="int" name="NKREDY">     1</i>
   <i type="int" name="NKREDZ">     1</i>
   <i type="logical" name="SHIFTRED"> F  </i>
   <i type="logical" name="ODDONLY"> F  </i>
   <i type="logical" name="EVENONLY"> F  </i>
   <i type="int" name="LMAXFOCK">     0</i>
   <i type="int" name="NMAXFOCKAE">     0</i>
   <i type="logical" name="LFOCKAEDFT"> F  </i>
   <i name="HFSCREEN">      0.00000000</i>
   <i name="HFSCREENC">      0.00000000</i>
   <i type="int" name="NBANDSGWLOW">     0</i>
  </separator>
  <separator name="vdW DFT" >
   <i type="logical" name="LUSE_VDW"> F  </i>
   <i name="Zab_VDW">     -0.84910000</i>
   <i name="PARAM1">      0.12340000</i>
   <i name="PARAM2">      1.00000000</i>
   <i name="PARAM3">      0.00000000</i>
  </separator>
  <separator name="model GW" >
   <i type="int" name="MODEL_GW">     0</i>
   <i name="MODEL_EPS0">     12.15534041</i>
   <i name="MODEL_ALPHA">      1.00000000</i>
  </separator>
  <separator name="linear response parameters" >
   <i type="logical" name="LEPSILON"> F  </i>
   <i type="logical" name="LRPA"> F  </i>
   <i type="logical" name="LNABLA"> F  </i>
   <i type="logical" name="LVEL"> F  </i>
   <i type="int" name="KINTER">     0</i>
   <i name="CSHIFT">      0.10000000</i>
   <i name="OMEGAMAX">     -1.00000000</i>
   <i name="DEG_THRESHOLD">      0.00200000</i>
  </separator>
  <separator name="orbital magnetization" >
   <i type="logical" name="NUCIND"> F  </i>
   <v name="MAGPOS">      0.00000000      0.00000000      0.00000000</v>
   <i type="logical" name="LNICSALL"> T  </i>
   <i type="logical" name="ORBITALMAG"> F  </i>
   <i type="logical" name="LMAGBLOCH"> F  </i>
   <i type="logical" name="LCHIMAG"> F  </i>
   <i type="logical" name="LGAUGE"> T  </i>
   <i type="int" name="MAGATOM">     0</i>
   <v name="MAGDIPOL">      0.00000000      0.00000000      0.00000000</v>
   <v name="AVECCONST">      0.00000000      0.00000000      0.00000000</v>
  </separator>
  <separator name="response functions" >
   <i type="logical" name="LADDER"> F  </i>
   <i type="logical" name="LFXC"> F  </i>
   <i type="logical" name="LHARTREE"> T  </i>
   <i type="int" name="IBSE">     0</i>
   <v type="int" name="KPOINT">    -1     0     0     0</v>
   <i type="logical" name="LTCTE"> F  </i>
   <i type="logical" name="LTETE"> F  </i>
   <i type="logical" name="LTRIPLET"> F  </i>
   <i type="logical" name="LFXCEPS"> F  </i>
   <i type="logical" name="LFXHEG"> F  </i>
   <i type="int" name="NATURALO">     0</i>
   <i type="logical" name="L2ORDER"> F  </i>
   <i type="logical" name="LUSEW"> F  </i>
   <i name="ENCUTGW">     -2.00000000</i>
   <i name="ENCUTGWSOFT">     -2.00000000</i>
   <i name="ENCUTLF">     -1.00000000</i>
   <i type="int" name="LMAXMP2">    -1</i>
   <i name="SCISSOR">      0.00000000</i>
   <i type="int" name="NOMEGA">     0</i>
   <i type="int" name="NOMEGAR">     0</i>
   <i type="int" name="NBANDSGW">    -1</i>
   <i type="int" name="NBANDSO">    -1</i>
   <i type="int" name="NBANDSV">    -1</i>
   <i type="int" name="NELM">    70</i>
   <i type="int" name="NELMHF">     1</i>
   <i type="int" name="DIM">     3</i>
   <i type="int" name="ANTIRES">     0</i>
   <i name="OMEGAMAX">    -30.00000000</i>
   <i name="OMEGAMIN">    -30.00000000</i>
   <i name="OMEGATL">   -200.00000000</i>
   <i type="int" name="OMEGAGRID">     0</i>
   <i name="CSHIFT">     -0.10000000</i>
   <i type="logical" name="SELFENERGY"> F  </i>
   <i type="logical" name="LSPECTRAL"> F  </i>
   <i type="logical" name="LSPECTRALGW"> F  </i>
   <i type="logical" name="LSINGLES"> F  </i>
   <i type="logical" name="LFERMIGW"> F  </i>
   <i type="logical" name="ODDONLYGW"> F  </i>
   <i type="logical" name="EVENONLYGW"> F  </i>
   <i type="int" name="NKREDLFX">     1</i>
   <i type="int" name="NKREDLFY">     1</i>
   <i type="int" name="NKREDLFZ">     1</i>
   <i type="int" name="MAXMEM">  1800</i>
   <i type="int" name="TELESCOPE">     0</i>
   <i type="int" name="TAUPAR">     1</i>
   <i type="int" name="OMEGAPAR">    -1</i>
   <i name="LAMBDA">      1.00000000</i>
  </separator>
  <separator name="External order field" >
   <i name="OFIELD_KAPPA">      0.00000000</i>
   <v name="OFIELD_K">      0.00000000      0.00000000      0.00000000</v>
   <i name="OFIELD_Q6_NEAR">      0.00000000</i>
   <i name="OFIELD_Q6_FAR">      0.00000000</i>
   <i name="OFIELD_A">      0.00000000</i>
  </separator>
 </parameters>
 <atominfo>
  <atoms>      36 </atoms>
  <types>       4 </types>
  <array name="atoms" >
   <dimension dim="1">ion</dimension>
   <field type="string">element</field>
   <field type="int">atomtype</field>
   <set>
    <rc><c>Zr</c><c>   1</c></rc>
    <rc><c>Zr</c><c>   1</c></rc>
    <rc><c>Zr</c><c>   1</c></rc>
    <rc><c>Zr</c><c>   1</c></rc>
    <rc><c>Zr</c><c>   1</c></rc>
    <rc><c>Zr</c><c>   1</c></rc>
    <rc><c>Zr</c><c>   1</c></rc>
    <rc><c>Zr</c><c>   1</c></rc>
    <rc><c>Nb</c><c>   2</c></rc>
    <rc><c>Nb</c><c>   2</c></rc>
    <rc><c>Nb</c><c>   2</c></rc>
    <rc><c>Nb</c><c>   2</c></rc>
    <rc><c>Nb</c><c>   2</c></rc>
    <rc><c>Nb</c><c>   2</c></rc>
    <rc><c>Nb</c><c>   2</c></rc>
    <rc><c>Nb</c><c>   2</c></rc>
    <rc><c>Ta</c><c>   3</c></rc>
    <rc><c>Ta</c><c>   3</c></rc>
    <rc><c>Ta</c><c>   3</c></rc>
    <rc><c>Ta</c><c>   3</c></rc>
    <rc><c>Ta</c><c>   3</c></rc>
    <rc><c>Ta</c><c>   3</c></rc>
    <rc><c>Ta</c><c>   3</c></rc>
    <rc><c>Ta</c><c>   3</c></rc>
    <rc><c>Ta</c><c>   3</c></rc>
    <rc><c>Hf</c><c>   4</c></rc>
    <rc><c>Hf</c><c>   4</c></rc>
    <rc><c>Hf</c><c>   4</c></rc>
    <rc><c>Hf</c><c>   4</c></rc>
    <rc><c>Hf</c><c>   4</c></rc>
    <rc><c>Hf</c><c>   4</c></rc>
    <rc><c>Hf</c><c>   4</c></rc>
    <rc><c>Hf</c><c>   4</c></rc>
    <rc><c>Hf</c><c>   4</c></rc>
    <rc><c>Hf</c><c>   4</c></rc>
    <rc><c>Hf</c><c>   4</c></rc>
   </set>
  </array>
  <array name="atomtypes" >
   <dimension dim="1">type</dimension>
   <field type="int">atomspertype</field>
   <field type="string">element</field>
   <field>mass</field>
   <field>valence</field>
   <field type="string">pseudopotential</field>
   <set>
    <rc><c>   8</c><c>Zr</c><c>     91.22400000</c><c>     12.00000000</c><c>  PAW_PBE Zr_sv 04Jan2005               </c></rc>
    <rc><c>   8</c><c>Nb</c><c>     92.91000000</c><c>     13.00000000</c><c>  PAW_PBE Nb_sv 25May2007               </c></rc>
    <rc><c>   9</c><c>Ta</c><c>    180.94800000</c><c>      5.00000000</c><c>  PAW_PBE Ta 17Jan2003                  </c></rc>
    <rc><c>  11</c><c>Hf</c><c>    178.49000000</c><c>      4.00000000</c><c>  PAW_PBE Hf 20Jan2003                  </c></rc>
   </set>
  </array>
 </atominfo>
 <structure name="initialpos" >
  <crystal>
   <varray name="basis" >
    <v>       6.95231240       0.00450444      -0.01601248 </v>
    <v>       0.00727296      10.22204984       0.03908341 </v>
    <v>      -0.02342012       0.03915823      10.26265967 </v>
   </varray>
   <i name="volume">    729.32042476 </i>
   <varray name="rec_basis" >
    <v>       0.14383786      -0.00010360       0.00032864 </v>
    <v>      -0.00006424       0.09782921      -0.00037342 </v>
    <v>       0.00022467      -0.00037273       0.09744256 </v>
   </varray>
  </crystal>
  <varray name="positions" >
   <v>       0.48735800       0.32361600       0.33037300 </v>
   <v>       0.74418900       0.49568500       0.49708200 </v>
   <v>       0.00600000       0.99292400       0.99853100 </v>
   <v>       0.50226300       0.00341700       0.33244300 </v>
   <v>       0.26029900       0.83616800       0.50608300 </v>
   <v>       0.77386600       0.17045400       0.16093100 </v>
   <v>       0.00456800       0.68562000       0.00125300 </v>
   <v>       0.00427400       0.32795500       0.66625300 </v>
   <v>       0.76116100       0.17566000       0.49018300 </v>
   <v>       0.22603900       0.16760500       0.17077200 </v>
   <v>       0.75749300       0.18456000       0.84861100 </v>
   <v>       0.24488700       0.17039900       0.83303100 </v>
   <v>       0.02648000       0.32970500       0.98776600 </v>
   <v>       0.74490200       0.82757400       0.50352400 </v>
   <v>       0.25170400       0.83639400       0.18333100 </v>
   <v>       0.48969700       0.33088800       0.67240600 </v>
   <v>       0.74837800       0.83933900       0.18352100 </v>
   <v>       0.24279600       0.16298300       0.49843900 </v>
   <v>       0.01576300       0.32343100       0.34598200 </v>
   <v>       0.24706200       0.50525400       0.82501700 </v>
   <v>       0.25264000       0.49684900       0.49882100 </v>
   <v>       0.50292200       0.67283300       0.32685400 </v>
   <v>       0.48613600       0.63783700       0.65496500 </v>
   <v>       0.01158800       0.65688200       0.65649500 </v>
   <v>       0.99795200       0.99634600       0.33997900 </v>
   <v>       0.47693700       0.32940200       0.99689600 </v>
   <v>       0.76660500       0.49547700       0.16454300 </v>
   <v>       0.26978800       0.82175300       0.81337000 </v>
   <v>       0.75321900       0.49972400       0.83515500 </v>
   <v>       0.22618900       0.49728200       0.17405700 </v>
   <v>       0.99387600       0.67889000       0.33994600 </v>
   <v>       0.49464900       0.67460700       0.01868100 </v>
   <v>       0.52006300       0.02919200       0.66903500 </v>
   <v>       0.98426100       0.00867900       0.66692000 </v>
   <v>       0.72977200       0.81399500       0.80834300 </v>
   <v>       0.49422700       0.00063800       0.00040800 </v>
  </varray>
 </structure>
 <calculation>
  <scstep>
   <time name="dav">    1.09    1.15</time>
   <time name="total">    1.44    1.70</time>
   <energy>
    <i name="alphaZ">   1469.78012247 </i>
    <i name="ewald"> -18331.35354007 </i>
    <i name="hartreedc">  -7249.26852637 </i>
    <i name="XCdc">   -329.92726765 </i>
    <i name="pawpsdc">  20965.45867725 </i>
    <i name="pawaedc"> -19349.95453805 </i>
    <i name="eentropy">      0.00249454 </i>
    <i name="bandstr">   -124.20659551 </i>
    <i name="atom">  24724.97589359 </i>
    <i name="e_fr_energy">   1775.50672020 </i>
    <i name="e_wo_entrp">   1775.50422566 </i>
    <i name="e_0_energy">   1775.50588869 </i>
   </energy>
  </scstep>
  <scstep>
   <time name="dav">    1.07    1.25</time>
   <time name="total">    1.08    1.37</time>
   <energy>
    <i name="e_fr_energy">   -102.03283521 </i>
    <i name="e_wo_entrp">   -102.03293701 </i>
    <i name="e_0_energy">   -102.03286915 </i>
   </energy>
  </scstep>
  <scstep>
   <time name="dav">    2.00    2.08</time>
   <time name="total">    2.01    2.10</time>
   <energy>
    <i name="e_fr_energy">   -345.48353829 </i>
    <i name="e_wo_entrp">   -345.49556351 </i>
    <i name="e_0_energy">   -345.48754670 </i>
   </energy>
  </scstep>
  <scstep>
   <time name="dav">    2.44    2.50</time>
   <time name="total">    2.44    2.53</time>
   <energy>
    <i name="e_fr_energy">   -374.17892374 </i>
    <i name="e_wo_entrp">   -374.19684043 </i>
    <i name="e_0_energy">   -374.18489597 </i>
   </energy>
  </scstep>
  <scstep>
   <time name="dav">    1.30    1.32</time>
   <time name="total">    1.67    1.71</time>
   <energy>
    <i name="e_fr_energy">   -377.09280405 </i>
    <i name="e_wo_entrp">   -377.11061596 </i>
    <i name="e_0_energy">   -377.09874135 </i>
   </energy>
  </scstep>
  <scstep>
   <time name="diag">    0.08    0.08</time>
   <time name="diis">    0.77    0.79</time>
   <time name="orth">    0.06    0.07</time>
   <time name="total">    1.41    1.47</time>
   <energy>
    <i name="e_fr_energy">   -366.65760041 </i>
    <i name="e_wo_entrp">   -366.68250103 </i>
    <i name="e_0_energy">   -366.66590062 </i>
   </energy>
  </scstep>
  <scstep>
   <time name="diag">    0.12    0.12</time>
   <time name="diis">    0.73    0.75</time>
   <time name="orth">    0.01    0.01</time>
   <time name="total">    0.93    1.00</time>
   <energy>
    <i name="e_fr_energy">   -365.28649967 </i>
    <i name="e_wo_entrp">   -365.29367236 </i>
    <i name="e_0_energy">   -365.28889056 </i>
   </energy>
  </scstep>
  <scstep>
   <time name="diag">    0.12    0.12</time>
   <time name="diis">    0.78    0.80</time>
   <time name="orth">    0.01    0.01</time>
   <time name="total">    0.98    1.02</time>
   <energy>
    <i name="e_fr_energy">   -362.47272014 </i>
    <i name="e_wo_entrp">   -362.49987075 </i>
    <i name="e_0_energy">   -362.48177034 </i>
   </energy>
  </scstep>
  <scstep>
   <time name="diag">    0.11    0.11</time>
   <time name="diis">    0.87    0.89</time>
   <time name="orth">    0.01    0.01</time>
   <time name="total">    1.07    1.11</time>
   <energy>
    <i name="e_fr_energy">   -362.42109570 </i>
    <i name="e_wo_entrp">   -362.44703854 </i>
    <i name="e_0_energy">   -362.42974331 </i>
   </energy>
  </scstep>
  <scstep>
   <time name="diag">    0.10    0.11</time>
   <time name="diis">    0.84    0.86</time>
   <time name="orth">    0.01    0.01</time>
   <time name="total">    1.04    1.09</time>
   <energy>
    <i name="e_fr_energy">   -362.35286884 </i>
    <i name="e_wo_entrp">   -362.37837945 </i>
    <i name="e_0_energy">   -362.36137238 </i>
   </energy>
  </scstep>
  <scstep>
   <time name="diag">    0.08    0.08</time>
   <time name="diis">    0.78    0.80</time>
   <time name="orth">    0.01    0.01</time>
   <time name="total">    0.94    0.98</time>
   <energy>
    <i name="e_fr_energy">   -362.31983651 </i>
    <i name="e_wo_entrp">   -362.34559995 </i>
    <i name="e_0_energy">   -362.32842432 </i>
   </energy>
  </scstep>
  <scstep>
   <time name="diag">    0.08    0.08</time>
   <time name="diis">    0.76    0.78</time>
   <time name="orth">    0.01    0.01</time>
   <time name="total">    0.92    0.97</time>
   <energy>
    <i name="e_fr_energy">   -362.31956690 </i>
    <i name="e_wo_entrp">   -362.34455170 </i>
    <i name="e_0_energy">   -362.32789517 </i>
   </energy>
  </scstep>
  <scstep>
   <time name="diag">    0.08    0.08</time>
   <time name="diis">    0.77    0.78</time>
   <time name="orth">    0.01    0.01</time>
   <time name="total">    0.93    0.96</time>
   <energy>
    <i name="e_fr_energy">   -362.31792647 </i>
    <i name="e_wo_entrp">   -362.34334939 </i>
    <i name="e_0_energy">   -362.32640078 </i>
   </energy>
  </scstep>
  <scstep>
   <time name="diag">    0.08    0.08</time>
   <time name="diis">    0.77    0.79</time>
   <time name="orth">    0.03    0.03</time>
   <time name="total">    0.95    0.98</time>
   <energy>
    <i name="e_fr_energy">   -362.31757878 </i>
    <i name="e_wo_entrp">   -362.34255103 </i>
    <i name="e_0_energy">   -362.32590286 </i>
   </energy>
  </scstep>
  <scstep>
   <time name="diag">    0.08    0.08</time>
   <time name="diis">    0.76    0.77</time>
   <time name="orth">    0.01    0.01</time>
   <time name="total">    0.91    0.95</time>
   <energy>
    <i name="e_fr_energy">   -362.31763059 </i>
    <i name="e_wo_entrp">   -362.34298631 </i>
    <i name="e_0_energy">   -362.32608249 </i>
   </energy>
  </scstep>
  <scstep>
   <time name="diag">    0.08    0.08</time>
   <time name="diis">    0.77    0.79</time>
   <time name="orth">    0.01    0.01</time>
   <time name="total">    0.93    0.96</time>
   <energy>
    <i name="e_fr_energy">   -362.31764424 </i>
    <i name="e_wo_entrp">   -362.34291115 </i>
    <i name="e_0_energy">   -362.32606655 </i>
   </energy>
  </scstep>
  <scstep>
   <time name="diag">    0.08    0.08</time>
   <time name="diis">    0.63    0.65</time>
   <time name="orth">    0.01    0.01</time>
   <time name="total">    0.96    1.00</time>
   <energy>
    <i name="e_fr_energy">   -362.31765097 </i>
    <i name="e_wo_entrp">   -362.34292863 </i>
    <i name="e_0_energy">   -362.32607685 </i>
   </energy>
  </scstep>
  <scstep>
   <time name="diag">    0.14    0.15</time>
   <time name="diis">    0.69    0.72</time>
   <time name="orth">    0.01    0.01</time>
   <time name="total">    0.93    0.99</time>
   <energy>
    <i name="e_fr_energy">   -362.31766477 </i>
    <i name="e_wo_entrp">   -362.34292644 </i>
    <i name="e_0_energy">   -362.32608532 </i>
   </energy>
  </scstep>
  <scstep>
   <time name="diag">    0.08    0.09</time>
   <time name="diis">    0.38    0.54</time>
   <time name="orth">    0.03    0.03</time>
   <time name="total">    0.53    0.72</time>
   <energy>
    <i name="alphaZ">   1469.78012247 </i>
    <i name="ewald"> -18331.35354007 </i>
    <i name="hartreedc">  -7023.77089796 </i>
    <i name="XCdc">   -329.18945042 </i>
    <i name="pawpsdc">  33384.96116616 </i>
    <i name="pawaedc"> -31751.15123726 </i>
    <i name="eentropy">      0.02526069 </i>
    <i name="bandstr">  -2506.59498675 </i>
    <i name="atom">  24724.97589359 </i>
    <i name="e_fr_energy">   -362.31766956 </i>
    <i name="e_wo_entrp">   -362.34293025 </i>
    <i name="e_0_energy">   -362.32608979 </i>
   </energy>
  </scstep>
  <structure>
   <crystal>
    <varray name="basis" >
     <v>       6.95231240       0.00450444      -0.01601248 </v>
     <v>       0.00727296      10.22204984       0.03908341 </v>
     <v>      -0.02342012       0.03915823      10.26265967 </v>
    </varray>
    <i name="volume">    729.32042476 </i>
    <varray name="rec_basis" >
     <v>       0.14383786      -0.00010360       0.00032864 </v>
     <v>      -0.00006424       0.09782921      -0.00037342 </v>
     <v>       0.00022467      -0.00037273       0.09744256 </v>
    </varray>
   </crystal>
   <varray name="positions" >
    <v>       0.48735800       0.32361600       0.33037300 </v>
    <v>       0.74418900       0.49568500       0.49708200 </v>
    <v>       0.00600000       0.99292400       0.99853100 </v>
    <v>       0.50226300       0.00341700       0.33244300 </v>
    <v>       0.26029900       0.83616800       0.50608300 </v>
    <v>       0.77386600       0.17045400       0.16093100 </v>
    <v>       0.00456800       0.68562000       0.00125300 </v>
    <v>       0.00427400       0.32795500       0.66625300 </v>
    <v>       0.76116100       0.17566000       0.49018300 </v>
    <v>       0.22603900       0.16760500       0.17077200 </v>
    <v>       0.75749300       0.18456000       0.84861100 </v>
    <v>       0.24488700       0.17039900       0.83303100 </v>
    <v>       0.02648000       0.32970500       0.98776600 </v>
    <v>       0.74490200       0.82757400       0.50352400 </v>
    <v>       0.25170400       0.83639400       0.18333100 </v>
    <v>       0.48969700       0.33088800       0.67240600 </v>
    <v>       0.74837800       0.83933900       0.18352100 </v>
    <v>       0.24279600       0.16298300       0.49843900 </v>
    <v>       0.01576300       0.32343100       0.34598200 </v>
    <v>       0.24706200       0.50525400       0.82501700 </v>
    <v>       0.25264000       0.49684900       0.49882100 </v>
    <v>       0.50292200       0.67283300       0.32685400 </v>
    <v>       0.48613600       0.63783700       0.65496500 </v>
    <v>       0.01158800       0.65688200       0.65649500 </v>
    <v>       0.99795200       0.99634600       0.33997900 </v>
    <v>       0.47693700       0.32940200       0.99689600 </v>
    <v>       0.76660500       0.49547700       0.16454300 </v>
    <v>       0.26978800       0.82175300       0.81337000 </v>
    <v>       0.75321900       0.49972400       0.83515500 </v>
    <v>       0.22618900       0.49728200       0.17405700 </v>
    <v>       0.99387600       0.67889000       0.33994600 </v>
    <v>       0.49464900       0.67460700       0.01868100 </v>
    <v>       0.52006300       0.02919200       0.66903500 </v>
    <v>       0.98426100       0.00867900       0.66692000 </v>
    <v>       0.72977200       0.81399500       0.80834300 </v>
    <v>       0.49422700       0.00063800       0.00040800 </v>
   </varray>
  </structure>
  <varray name="forces" >
   <v>       0.00082588      -0.00739015      -0.06315332 </v>
   <v>      -0.02844189      -0.01400211       0.01533068 </v>
   <v>       0.00090822       0.00874967      -0.01179213 </v>
   <v>      -0.00121281       0.00273070       0.00771137 </v>
   <v>       0.00778712       0.00135926       0.00458481 </v>
   <v>      -0.00251083      -0.01293133      -0.00203321 </v>
   <v>       0.00393461      -0.01186798      -0.01050829 </v>
   <v>      -0.02373570       0.00294523      -0.00273184 </v>
   <v>       0.02634820      -0.03221922      -0.03107272 </v>
   <v>      -0.00475120      -0.00428363      -0.00903450 </v>
   <v>       0.01723168      -0.02496696       0.02361859 </v>
   <v>       0.01234400       0.02679995      -0.00125761 </v>
   <v>      -0.00204692      -0.00019357      -0.02863736 </v>
   <v>      -0.00081142       0.00521615       0.00304222 </v>
   <v>      -0.00996129       0.00795014       0.00299644 </v>
   <v>       0.03981584      -0.01223317      -0.00690636 </v>
   <v>       0.00916540      -0.00410975       0.00511940 </v>
   <v>      -0.02036570      -0.02391978      -0.02964051 </v>
   <v>      -0.00351778       0.00416372       0.03106424 </v>
   <v>      -0.01380077       0.01696581       0.01146893 </v>
   <v>      -0.01146710       0.01478392      -0.01221560 </v>
   <v>      -0.00427829      -0.00684065       0.00356065 </v>
   <v>      -0.02035016       0.12523531      -0.01198633 </v>
   <v>       0.01401926      -0.03083801      -0.00161360 </v>
   <v>      -0.00412641       0.00825096       0.01288160 </v>
   <v>      -0.00095504      -0.00314866       0.10359393 </v>
   <v>      -0.00289278       0.01331538       0.00321702 </v>
   <v>       0.00905138      -0.00245401      -0.00938609 </v>
   <v>      -0.00119769       0.01135451       0.01475026 </v>
   <v>       0.00631177      -0.00413559      -0.00421816 </v>
   <v>       0.00973880      -0.00090752      -0.00239508 </v>
   <v>      -0.00982007      -0.01319395      -0.00187678 </v>
   <v>       0.01976748      -0.06933807       0.00054525 </v>
   <v>      -0.00435647       0.01249408       0.00913276 </v>
   <v>      -0.00656915      -0.00136381       0.00397504 </v>
   <v>      -0.00008017       0.01802314      -0.01613368 </v>
  </varray>
  <varray name="stress" >
   <v>       0.59069408      -0.48883640       0.09052656 </v>
   <v>      -0.48883642       0.59878194       0.15999162 </v>
   <v>       0.09052655       0.15999160       0.75725200 </v>
  </varray>
  <energy>
   <i name="e_fr_energy">   -362.31766956 </i>
   <i name="e_wo_entrp">   -362.32608979 </i>
   <i name="e_0_energy">      0.02526069 </i>
  </energy>
  <time name="totalsc">   23.79   25.42</time>
 </calculation>
 <calculation>
  <scstep>
   <time name="dav">    1.03    1.05</time>
   <time name="total">    1.16    1.29</time>
   <energy>
    <i name="alphaZ">   1469.25664167 </i>
    <i name="ewald"> -18329.28485149 </i>
    <i name="hartreedc">  -7022.85919783 </i>
    <i name="XCdc">   -329.29100777 </i>
    <i name="pawpsdc">  33385.34082052 </i>
    <i name="pawaedc"> -31751.52355944 </i>
    <i name="eentropy">      0.02532775 </i>
    <i name="bandstr">  -2508.95877554 </i>
    <i name="atom">  24724.97589359 </i>
    <i name="e_fr_energy">   -362.31870853 </i>
    <i name="e_wo_entrp">   -362.34403629 </i>
    <i name="e_0_energy">   -362.32715112 </i>
   </energy>
  </scstep>
  <scstep>
   <time name="diag">    0.08    0.08</time>
   <time name="diis">    0.74    0.76</time>
   <time name="orth">    0.01    0.01</time>
   <time name="total">    0.91    0.94</time>
   <energy>
    <i name="e_fr_energy">   -362.31868144 </i>
    <i name="e_wo_entrp">   -362.34411669 </i>
    <i name="e_0_energy">   -362.32715986 </i>
   </energy>
  </scstep>
  <scstep>
   <time name="diag">    0.07    0.08</time>
   <time name="diis">    0.74    0.76</time>
   <time name="orth">    0.01    0.01</time>
   <time name="total">    0.89    0.93</time>
   <energy>
    <i name="e_fr_energy">   -362.31859826 </i>
    <i name="e_wo_entrp">   -362.34394420 </i>
    <i name="e_0_energy">   -362.32704691 </i>
   </energy>
  </scstep>
  <scstep>
   <time name="diag">    0.08    0.08</time>
   <time name="diis">    0.70    0.73</time>
   <time name="orth">    0.01    0.01</time>
   <time name="total">    0.86    0.91</time>
   <energy>
    <i name="e_fr_energy">   -362.31855362 </i>
    <i name="e_wo_entrp">   -362.34394115 </i>
    <i name="e_0_energy">   -362.32701613 </i>
   </energy>
  </scstep>
  <scstep>
   <time name="diag">    0.07    0.08</time>
   <time name="diis">    0.52    0.54</time>
   <time name="orth">    0.01    0.01</time>
   <time name="total">    0.66    0.69</time>
   <energy>
    <i name="alphaZ">   1469.25664167 </i>
    <i name="ewald"> -18329.28485149 </i>
    <i name="hartreedc">  -7024.32412962 </i>
    <i name="XCdc">   -329.22832456 </i>
    <i name="pawpsdc">  33367.22814273 </i>
    <i name="pawaedc"> -31733.35300376 </i>
    <i name="eentropy">      0.02538465 </i>
    <i name="bandstr">  -2507.61429715 </i>
    <i name="atom">  24724.97589359 </i>
    <i name="e_fr_energy">   -362.31854393 </i>
    <i name="e_wo_entrp">   -362.34392858 </i>
    <i name="e_0_energy">   -362.32700548 </i>
   </energy>
  </scstep>
  <structure>
   <crystal>
    <varray name="basis" >
     <v>       6.95306327       0.00388253      -0.01589939 </v>
     <v>       0.00635994      10.22317045       0.03938824 </v>
     <v>      -0.02325613       0.03946510      10.26408262 </v>
    </varray>
    <i name="volume">    729.58027402 </i>
    <varray name="rec_basis" >
     <v>       0.14382230      -0.00009073       0.00032622 </v>
     <v>      -0.00005548       0.09781850      -0.00037623 </v>
     <v>       0.00022300      -0.00037552       0.09742907 </v>
    </varray>
   </crystal>
   <varray name="positions" >
    <v>       0.48735943       0.32360588       0.33028398 </v>
    <v>       0.74412989       0.49566512       0.49710360 </v>
    <v>       0.00600182       0.99293645       0.99851433 </v>
    <v>       0.50226051       0.00342083       0.33245386 </v>
    <v>       0.26031523       0.83616989       0.50608948 </v>
    <v>       0.77386078       0.17043570       0.16092819 </v>
    <v>       0.00457616       0.68560325       0.00123826 </v>
    <v>       0.00422457       0.32795921       0.66624905 </v>
    <v>       0.76121575       0.17561453       0.49013944 </v>
    <v>       0.22602907       0.16759899       0.17075927 </v>
    <v>       0.75752902       0.18452451       0.84864450 </v>
    <v>       0.24491265       0.17043694       0.83302912 </v>
    <v>       0.02647560       0.32970488       0.98772561 </v>
    <v>       0.74490032       0.82758137       0.50352826 </v>
    <v>       0.25168327       0.83640525       0.18333515 </v>
    <v>       0.48977987       0.33087068       0.67239646 </v>
    <v>       0.74839711       0.83933314       0.18352827 </v>
    <v>       0.24275350       0.16294931       0.49839726 </v>
    <v>       0.01575582       0.32343673       0.34602577 </v>
    <v>       0.24703330       0.50527797       0.82503304 </v>
    <v>       0.25261605       0.49687001       0.49880366 </v>
    <v>       0.50291312       0.67282330       0.32685904 </v>
    <v>       0.48609339       0.63801440       0.65494735 </v>
    <v>       0.01161722       0.65683833       0.65649294 </v>
    <v>       0.99794346       0.99635762       0.33999711 </v>
    <v>       0.47693551       0.32939698       0.99704211 </v>
    <v>       0.76659897       0.49549584       0.16454746 </v>
    <v>       0.26980680       0.82174957       0.81335681 </v>
    <v>       0.75321656       0.49974000       0.83517574 </v>
    <v>       0.22620213       0.49727616       0.17405109 </v>
    <v>       0.99389626       0.67888872       0.33994266 </v>
    <v>       0.49462857       0.67458834       0.01867839 </v>
    <v>       0.52010426       0.02909381       0.66903621 </v>
    <v>       0.98425196       0.00869664       0.66693280 </v>
    <v>       0.72975835       0.81399305       0.80834859 </v>
    <v>       0.49422673       0.00066361       0.00038515 </v>
   </varray>
  </structure>
  <varray name="forces" >
   <v>      -0.00033114      -0.00670977      -0.05949008 </v>
   <v>      -0.02956324      -0.01198180       0.01695110 </v>
   <v>       0.00179681       0.00737857      -0.01144651 </v>
   <v>      -0.00055697       0.00154525       0.00722127 </v>
   <v>       0.00474608       0.00197675       0.00303614 </v>
   <v>      -0.00034455      -0.01162331      -0.00135063 </v>
   <v>       0.00462368      -0.00932082      -0.00899300 </v>
   <v>      -0.02151081       0.00420306      -0.00303230 </v>
   <v>       0.02325955      -0.03176241      -0.02944779 </v>
   <v>      -0.00718099      -0.00371404      -0.00740062 </v>
   <v>       0.01460553      -0.02145999       0.02361995 </v>
   <v>       0.01436407       0.02863492      -0.00145305 </v>
   <v>      -0.00164879      -0.00072069      -0.02813842 </v>
   <v>      -0.00082412       0.00337303       0.00236852 </v>
   <v>      -0.00858874       0.00810663       0.00223216 </v>
   <v>       0.03389749      -0.01155589      -0.00442394 </v>
   <v>       0.00705009      -0.00420522       0.00541333 </v>
   <v>      -0.01644821      -0.02176466      -0.02529145 </v>
   <v>      -0.00317389       0.00217288       0.02878577 </v>
   <v>      -0.00916256       0.01387023       0.00787510 </v>
   <v>      -0.00528606       0.01452126      -0.00893508 </v>
   <v>      -0.00327261      -0.00460979       0.00252461 </v>
   <v>      -0.02101894       0.10974000      -0.01346514 </v>
   <v>       0.01307090      -0.02903303      -0.00129394 </v>
   <v>      -0.00326395       0.00606393       0.01104065 </v>
   <v>      -0.00042110      -0.00305214       0.09434389 </v>
   <v>      -0.00232515       0.01233178       0.00374019 </v>
   <v>       0.00536322      -0.00215900      -0.00727796 </v>
   <v>      -0.00304310       0.00899668       0.01101889 </v>
   <v>       0.00270570      -0.00467351      -0.00290169 </v>
   <v>       0.00827636       0.00009947      -0.00101813 </v>
   <v>      -0.00874085      -0.01124812      -0.00012917 </v>
   <v>       0.01864747      -0.06029579      -0.00189919 </v>
   <v>      -0.00254351       0.01190817       0.00806544 </v>
   <v>      -0.00302256      -0.00093933       0.00431711 </v>
   <v>      -0.00013511       0.01590668      -0.01516604 </v>
  </varray>
  <varray name="stress" >
   <v>       0.21387398      -0.45933336       0.09972214 </v>
   <v>      -0.45933336       0.21904650       0.14232561 </v>
   <v>       0.09972218       0.14232557       0.35527245 </v>
  </varray>
  <energy>
   <i name="e_fr_energy">   -362.31854393 </i>
   <i name="e_wo_entrp">   -362.32700548 </i>
   <i name="e_0_energy">      0.02538465 </i>
  </energy>
  <time name="totalsc">    6.95    7.35</time>
 </calculation>
 <calculation>
  <scstep>
   <time name="dav">    1.08    1.12</time>
   <time name="total">    1.23    1.39</time>
   <energy>
    <i name="alphaZ">   1467.68785597 </i>
    <i name="ewald"> -18323.06710299 </i>
    <i name="hartreedc">  -7021.58123634 </i>
    <i name="XCdc">   -329.53186628 </i>
    <i name="pawpsdc">  33368.42192585 </i>
    <i name="pawaedc"> -31734.55191752 </i>
    <i name="eentropy">      0.02554074 </i>
    <i name="bandstr">  -2514.70088520 </i>
    <i name="atom">  24724.97589359 </i>
    <i name="e_fr_energy">   -362.32179218 </i>
    <i name="e_wo_entrp">   -362.34733293 </i>
    <i name="e_0_energy">   -362.33030576 </i>
   </energy>
  </scstep>
  <scstep>
   <time name="diag">    0.20    0.20</time>
   <time name="diis">    1.56    1.59</time>
   <time name="orth">    0.01    0.01</time>
   <time name="total">    1.85    1.89</time>
   <energy>
    <i name="e_fr_energy">   -362.32138908 </i>
    <i name="e_wo_entrp">   -362.34722987 </i>
    <i name="e_0_energy">   -362.33000268 </i>
   </energy>
  </scstep>
  <scstep>
   <time name="diag">    0.08    0.08</time>
   <time name="diis">    0.75    0.77</time>
   <time name="orth">    0.01    0.01</time>
   <time name="total">    0.91    0.95</time>
   <energy>
    <i name="e_fr_energy">   -362.32059382 </i>
    <i name="e_wo_entrp">   -362.34617924 </i>
    <i name="e_0_energy">   -362.32912230 </i>
   </energy>
  </scstep>
  <scstep>
   <time name="diag">    0.08    0.09</time>
   <time name="diis">    0.79    0.79</time>
   <time name="orth">    0.01    0.01</time>
   <time name="total">    0.95    0.98</time>
   <energy>
    <i name="e_fr_energy">   -362.32021718 </i>
    <i name="e_wo_entrp">   -362.34592725 </i>
    <i name="e_0_energy">   -362.32878720 </i>
   </energy>
  </scstep>
  <scstep>
   <time name="diag">    0.08    0.08</time>
   <time name="diis">    0.76    0.78</time>
   <time name="orth">    0.01    0.01</time>
   <time name="total">    0.92    0.95</time>
   <energy>
    <i name="e_fr_energy">   -362.32015064 </i>
    <i name="e_wo_entrp">   -362.34584628 </i>
    <i name="e_0_energy">   -362.32871585 </i>
   </energy>
  </scstep>
  <scstep>
   <time name="diag">    0.08    0.08</time>
   <time name="diis">    0.69    0.70</time>
   <time name="orth">    0.01    0.01</time>
   <time name="total">    0.84    0.89</time>
   <energy>
    <i name="e_fr_energy">   -362.32014480 </i>
    <i name="e_wo_entrp">   -362.34582119 </i>
    <i name="e_0_energy">   -362.32870360 </i>
   </energy>
  </scstep>
  <scstep>
   <time name="diag">    0.07    0.08</time>
   <time name="diis">    0.63    0.64</time>
   <time name="orth">    0.01    0.01</time>
   <time name="total">    0.75    0.79</time>
   <energy>
    <i name="alphaZ">   1467.68785597 </i>
    <i name="ewald"> -18323.06710299 </i>
    <i name="hartreedc">  -7025.80107940 </i>
    <i name="XCdc">   -329.35001490 </i>
    <i name="pawpsdc">  33321.16846842 </i>
    <i name="pawaedc"> -31687.26292401 </i>
    <i name="eentropy">      0.02569322 </i>
    <i name="bandstr">  -2510.69692806 </i>
    <i name="atom">  24724.97589359 </i>
    <i name="e_fr_energy">   -362.32013817 </i>
    <i name="e_wo_entrp">   -362.34583140 </i>
    <i name="e_0_energy">   -362.32870258 </i>
   </energy>
  </scstep>
  <structure>
   <crystal>
    <varray name="basis" >
     <v>       6.95531587       0.00201677      -0.01556012 </v>
     <v>       0.00362090      10.22653229       0.04030272 </v>
     <v>      -0.02276418       0.04038570      10.26835147 </v>
    </varray>
    <i name="volume">    730.36010952 </i>
    <varray name="rec_basis" >
     <v>       0.14377565      -0.00005216       0.00031895 </v>
     <v>      -0.00002921       0.09778638      -0.00038466 </v>
     <v>       0.00021798      -0.00038389       0.09738861 </v>
    </varray>
   </crystal>
   <varray name="positions" >
    <v>       0.48736372       0.32357552       0.33001696 </v>
    <v>       0.74395255       0.49560547       0.49716841 </v>
    <v>       0.00600729       0.99297380       0.99846431 </v>
    <v>       0.50225303       0.00343230       0.33248642 </v>
    <v>       0.26036392       0.83617557       0.50610893 </v>
    <v>       0.77384513       0.17038082       0.16091978 </v>
    <v>       0.00460063       0.68555301       0.00119404 </v>
    <v>       0.00407630       0.32797182       0.66623722 </v>
    <v>       0.76137997       0.17547813       0.49000877 </v>
    <v>       0.22599929       0.16758095       0.17072107 </v>
    <v>       0.75763706       0.18441804       0.84874498 </v>
    <v>       0.24498961       0.17055075       0.83302348 </v>
    <v>       0.02646242       0.32970453       0.98760445 </v>
    <v>       0.74489527       0.82760348       0.50354104 </v>
    <v>       0.25162107       0.83643899       0.18334760 </v>
    <v>       0.49002845       0.33081874       0.67236783 </v>
    <v>       0.74845443       0.83931558       0.18355008 </v>
    <v>       0.24262600       0.16284826       0.49827207 </v>
    <v>       0.01573428       0.32345392       0.34615708 </v>
    <v>       0.24694722       0.50534987       0.82508114 </v>
    <v>       0.25254421       0.49693302       0.49875163 </v>
    <v>       0.50288648       0.67279420       0.32687418 </v>
    <v>       0.48596565       0.63854653       0.65489441 </v>
    <v>       0.01170487       0.65670735       0.65648675 </v>
    <v>       0.99791784       0.99639246       0.34005143 </v>
    <v>       0.47693103       0.32938192       0.99748038 </v>
    <v>       0.76658090       0.49555234       0.16456082 </v>
    <v>       0.26986320       0.82173928       0.81331723 </v>
    <v>       0.75320924       0.49978798       0.83523794 </v>
    <v>       0.22624150       0.49725865       0.17403338 </v>
    <v>       0.99395705       0.67888488       0.33993264 </v>
    <v>       0.49456727       0.67453236       0.01867057 </v>
    <v>       0.52022798       0.02879926       0.66903984 </v>
    <v>       0.98422483       0.00874957       0.66697119 </v>
    <v>       0.72971739       0.81398721       0.80836537 </v>
    <v>       0.49422593       0.00074042       0.00031661 </v>
   </varray>
  </structure>
  <varray name="forces" >
   <v>      -0.00418376      -0.00510975      -0.04812112 </v>
   <v>      -0.03225567      -0.00569002       0.02217937 </v>
   <v>       0.00518093       0.00428830      -0.00941144 </v>
   <v>      -0.00021691      -0.00224965       0.00419533 </v>
   <v>      -0.00575778       0.00448373      -0.00243792 </v>
   <v>       0.00791601      -0.00762434       0.00070520 </v>
   <v>       0.00705615      -0.00074563      -0.00449292 </v>
   <v>      -0.01392529       0.00750721      -0.00407350 </v>
   <v>       0.01796475      -0.02998012      -0.02599447 </v>
   <v>      -0.01548953      -0.00100653      -0.00166744 </v>
   <v>       0.00529882      -0.01151059       0.02402991 </v>
   <v>       0.02190931       0.03670944      -0.00474259 </v>
   <v>      -0.00099766      -0.00309304      -0.02660645 </v>
   <v>       0.00146317      -0.00096060      -0.00051466 </v>
   <v>      -0.00324341       0.00744280      -0.00003934 </v>
   <v>       0.01591514      -0.01229844       0.00294509 </v>
   <v>       0.00156798      -0.00491594       0.00853998 </v>
   <v>      -0.00812078      -0.01520959      -0.01301148 </v>
   <v>      -0.00189603      -0.00027528       0.02076283 </v>
   <v>       0.00539367       0.00467414      -0.00214805 </v>
   <v>       0.01153949       0.01425880       0.00094786 </v>
   <v>      -0.00220011       0.00181312      -0.00031973 </v>
   <v>      -0.02104078       0.06787537      -0.01707054 </v>
   <v>       0.00853760      -0.02654129       0.00034009 </v>
   <v>      -0.00037353      -0.00041050       0.00496780 </v>
   <v>       0.00189421      -0.00243398       0.06746487 </v>
   <v>       0.00041659       0.00978602       0.00495720 </v>
   <v>      -0.00412209      -0.00176291      -0.00095510 </v>
   <v>      -0.00877511       0.00186132      -0.00011850 </v>
   <v>      -0.00822221      -0.00667578       0.00129439 </v>
   <v>       0.00514784       0.00172089       0.00297565 </v>
   <v>      -0.00713726      -0.00668264       0.00392880 </v>
   <v>       0.01661772      -0.03520115      -0.00670990 </v>
   <v>       0.00048501       0.00916421       0.00704300 </v>
   <v>       0.00648266      -0.00197547       0.00438631 </v>
   <v>      -0.00282914       0.01076788      -0.01322855 </v>
  </varray>
  <varray name="stress" >
   <v>      -1.09242737      -0.21224171       0.06214733 </v>
   <v>      -0.21224172      -1.16266353       0.05911653 </v>
   <v>       0.06214733       0.05911653      -1.11798621 </v>
  </varray>
  <energy>
   <i name="e_fr_energy">   -362.32013817 </i>
   <i name="e_wo_entrp">   -362.32870258 </i>
   <i name="e_0_energy">      0.02569322 </i>
  </energy>
  <time name="totalsc">    8.98    9.49</time>
 </calculation>
 <calculation>
  <scstep>
   <time name="dav">    0.99    1.01</time>
   <time name="total">    1.16    1.28</time>
   <energy>
    <i name="alphaZ">   1464.55772229 </i>
    <i name="ewald"> -18310.57901307 </i>
    <i name="hartreedc">  -7020.32269289 </i>
    <i name="XCdc">   -329.95793530 </i>
    <i name="pawpsdc">  33322.08767442 </i>
    <i name="pawaedc"> -31688.22221357 </i>
    <i name="eentropy">      0.02596490 </i>
    <i name="bandstr">  -2524.89096792 </i>
    <i name="atom">  24724.97589359 </i>
    <i name="e_fr_energy">   -362.32556756 </i>
    <i name="e_wo_entrp">   -362.35153245 </i>
    <i name="e_0_energy">   -362.33422252 </i>
   </energy>
  </scstep>
  <scstep>
   <time name="diag">    0.11    0.11</time>
   <time name="diis">    0.78    0.80</time>
   <time name="orth">    0.01    0.01</time>
   <time name="total">    1.00    1.04</time>
   <energy>
    <i name="e_fr_energy">   -362.32382160 </i>
    <i name="e_wo_entrp">   -362.35032207 </i>
    <i name="e_0_energy">   -362.33265509 </i>
   </energy>
  </scstep>
  <scstep>
   <time name="diag">    0.08    0.08</time>
   <time name="diis">    0.76    0.77</time>
   <time name="orth">    0.01    0.01</time>
   <time name="total">    0.94    0.99</time>
   <energy>
    <i name="e_fr_energy">   -362.32067693 </i>
    <i name="e_wo_entrp">   -362.34674018 </i>
    <i name="e_0_energy">   -362.32936468 </i>
   </energy>
  </scstep>
  <scstep>
   <time name="diag">    0.07    0.08</time>
   <time name="diis">    0.77    0.79</time>
   <time name="orth">    0.01    0.01</time>
   <time name="total">    0.92    0.96</time>
   <energy>
    <i name="e_fr_energy">   -362.31918388 </i>
    <i name="e_wo_entrp">   -362.34547051 </i>
    <i name="e_0_energy">   -362.32794609 </i>
   </energy>
  </scstep>
  <scstep>
   <time name="diag">    0.08    0.08</time>
   <time name="diis">    0.78    0.80</time>
   <time name="orth">    0.01    0.01</time>
   <time name="total">    0.94    0.97</time>
   <energy>
    <i name="e_fr_energy">   -362.31892575 </i>
    <i name="e_wo_entrp">   -362.34518689 </i>
    <i name="e_0_energy">   -362.32767947 </i>
   </energy>
  </scstep>
  <scstep>
   <time name="diag">    0.10    0.10</time>
   <time name="diis">    0.78    0.80</time>
   <time name="orth">    0.01    0.01</time>
   <time name="total">    0.96    1.00</time>
   <energy>
    <i name="e_fr_energy">   -362.31892653 </i>
    <i name="e_wo_entrp">   -362.34514660 </i>
    <i name="e_0_energy">   -362.32766656 </i>
   </energy>
  </scstep>
  <scstep>
   <time name="diag">    0.08    0.08</time>
   <time name="diis">    0.68    0.70</time>
   <time name="orth">    0.01    0.01</time>
   <time name="total">    0.85    0.89</time>
   <energy>
    <i name="e_fr_energy">   -362.31892269 </i>
    <i name="e_wo_entrp">   -362.34518128 </i>
    <i name="e_0_energy">   -362.32767555 </i>
   </energy>
  </scstep>
  <scstep>
   <time name="diag">    0.08    0.08</time>
   <time name="diis">    0.61    0.62</time>
   <time name="orth">    0.01    0.01</time>
   <time name="total">    0.80    0.84</time>
   <energy>
    <i name="e_fr_energy">   -362.31892439 </i>
    <i name="e_wo_entrp">   -362.34514456 </i>
    <i name="e_0_energy">   -362.32766445 </i>
   </energy>
  </scstep>
  <scstep>
   <time name="diag">    0.09    0.09</time>
   <time name="diis">    0.50    0.52</time>
   <time name="orth">    0.01    0.01</time>
   <time name="total">    0.65    0.69</time>
   <energy>
    <i name="alphaZ">   1464.55772229 </i>
    <i name="ewald"> -18310.57901307 </i>
    <i name="hartreedc">  -7028.68840026 </i>
    <i name="XCdc">   -329.59792289 </i>
    <i name="pawpsdc">  33227.72167569 </i>
    <i name="pawaedc"> -31593.96764168 </i>
    <i name="eentropy">      0.02623569 </i>
    <i name="bandstr">  -2516.76747592 </i>
    <i name="atom">  24724.97589359 </i>
    <i name="e_fr_energy">   -362.31892657 </i>
    <i name="e_wo_entrp">   -362.34516226 </i>
    <i name="e_0_energy">   -362.32767180 </i>
   </energy>
  </scstep>
  <structure>
   <crystal>
    <varray name="basis" >
     <v>       6.95982108      -0.00171474      -0.01488158 </v>
     <v>      -0.00185719      10.23325597       0.04213168 </v>
     <v>      -0.02178029       0.04222689      10.27688917 </v>
    </varray>
    <i name="volume">    731.92107550 </i>
    <varray name="rec_basis" >
     <v>       0.14368251       0.00002482       0.00030441 </v>
     <v>       0.00002322       0.09772227      -0.00040148 </v>
     <v>       0.00020797      -0.00040059       0.09730780 </v>
    </varray>
   </crystal>
   <varray name="positions" >
    <v>       0.48737232       0.32351487       0.32948314 </v>
    <v>       0.74359794       0.49548613       0.49729799 </v>
    <v>       0.00601826       0.99304849       0.99836431 </v>
    <v>       0.50223809       0.00345523       0.33255152 </v>
    <v>       0.26046126       0.83618694       0.50614781 </v>
    <v>       0.77381378       0.17027109       0.16090297 </v>
    <v>       0.00464951       0.68545257       0.00110564 </v>
    <v>       0.00377987       0.32799698       0.66621357 </v>
    <v>       0.76170821       0.17520551       0.48974757 </v>
    <v>       0.22593974       0.16754489       0.17064472 </v>
    <v>       0.75785296       0.18420520       0.84894588 </v>
    <v>       0.24514357       0.17077834       0.83301219 </v>
    <v>       0.02643607       0.32970385       0.98736223 </v>
    <v>       0.74488520       0.82764767       0.50356657 </v>
    <v>       0.25149675       0.83650642       0.18337249 </v>
    <v>       0.49052542       0.33071499       0.67231058 </v>
    <v>       0.74856902       0.83928049       0.18359369 </v>
    <v>       0.24237102       0.16264618       0.49802181 </v>
    <v>       0.01569120       0.32348824       0.34641958 </v>
    <v>       0.24677515       0.50549359       0.82517731 </v>
    <v>       0.25240064       0.49705900       0.49864761 </v>
    <v>       0.50283320       0.67273600       0.32690444 </v>
    <v>       0.48571068       0.63961042       0.65478848 </v>
    <v>       0.01187999       0.65644551       0.65647440 </v>
    <v>       0.99786664       0.99646210       0.34016001 </v>
    <v>       0.47692199       0.32935173       0.99835655 </v>
    <v>       0.76654481       0.49566531       0.16458753 </v>
    <v>       0.26997596       0.82171873       0.81323810 </v>
    <v>       0.75319465       0.49988391       0.83536228 </v>
    <v>       0.22632020       0.49722366       0.17399796 </v>
    <v>       0.99407857       0.67887723       0.33991260 </v>
    <v>       0.49444468       0.67442041       0.01865496 </v>
    <v>       0.52047510       0.02821041       0.66904713 </v>
    <v>       0.98417064       0.00885537       0.66704792 </v>
    <v>       0.72963549       0.81397552       0.80839890 </v>
    <v>       0.49422440       0.00089400       0.00017956 </v>
   </varray>
  </structure>
  <varray name="forces" >
   <v>      -0.01231563      -0.00251864      -0.02376687 </v>
   <v>      -0.03737951       0.00600376       0.03116461 </v>
   <v>       0.01112507      -0.00276728      -0.00530226 </v>
   <v>       0.00123966      -0.01138690      -0.00131734 </v>
   <v>      -0.02682372       0.00894268      -0.01342927 </v>
   <v>       0.02341405      -0.00028127       0.00611229 </v>
   <v>       0.01153469       0.01641117       0.00519250 </v>
   <v>       0.00259518       0.01293787      -0.00525910 </v>
   <v>       0.00540782      -0.02452629      -0.01943025 </v>
   <v>      -0.02969227       0.00396394       0.01077162 </v>
   <v>      -0.01123112       0.00979035       0.02377495 </v>
   <v>       0.03321723       0.04928017      -0.01051600 </v>
   <v>       0.00132780      -0.00790528      -0.02212699 </v>
   <v>       0.00603322      -0.00926064      -0.00771326 </v>
   <v>       0.00744314       0.00445929      -0.00440404 </v>
   <v>      -0.02306043      -0.01329729       0.01753063 </v>
   <v>      -0.00980066      -0.00674929       0.01400029 </v>
   <v>       0.00836912      -0.00298059       0.00937004 </v>
   <v>       0.00343417      -0.00674519       0.00425077 </v>
   <v>       0.03234844      -0.01035447      -0.02147656 </v>
   <v>       0.04387158       0.01492484       0.01872978 </v>
   <v>       0.00124254       0.01730425      -0.00566892 </v>
   <v>      -0.02173902      -0.01143355      -0.02548683 </v>
   <v>       0.00142158      -0.01891857       0.00222069 </v>
   <v>       0.00579069      -0.01468779      -0.00683071 </v>
   <v>       0.00579203      -0.00161966       0.01589960 </v>
   <v>       0.00605372       0.00558003       0.00727712 </v>
   <v>      -0.02414013      -0.00195903       0.01149442 </v>
   <v>      -0.01879196      -0.01025226      -0.02132510 </v>
   <v>      -0.02974747      -0.01044366       0.00955523 </v>
   <v>      -0.00166744       0.00730140       0.01119441 </v>
   <v>      -0.00319619       0.00388913       0.01213320 </v>
   <v>       0.01025728       0.01046353      -0.01762468 </v>
   <v>       0.00892600       0.00173462       0.00397355 </v>
   <v>       0.02595735      -0.00430980       0.00532988 </v>
   <v>      -0.00721684      -0.00058957      -0.00829740 </v>
  </varray>
  <varray name="stress" >
   <v>      -3.96931779       0.30260717       0.01728283 </v>
   <v>       0.30260721      -4.15904484      -0.13174099 </v>
   <v>       0.01728283      -0.13174102      -4.29146646 </v>
  </varray>
  <energy>
   <i name="e_fr_energy">   -362.31892657 </i>
   <i name="e_wo_entrp">   -362.32767180 </i>
   <i name="e_0_energy">      0.02623569 </i>
  </energy>
  <time name="totalsc">    9.74   10.28</time>
 </calculation>
 <calculation>
  <scstep>
   <time name="dav">    1.02    1.05</time>
   <time name="total">    1.18    1.30</time>
   <energy>
    <i name="alphaZ">   1466.64647663 </i>
    <i name="ewald"> -18318.92516006 </i>
    <i name="hartreedc">  -7032.24668487 </i>
    <i name="XCdc">   -329.19615955 </i>
    <i name="pawpsdc">  33227.21430202 </i>
    <i name="pawaedc"> -31593.54691926 </i>
    <i name="eentropy">      0.02602857 </i>
    <i name="bandstr">  -2507.27122172 </i>
    <i name="atom">  24724.97589359 </i>
    <i name="e_fr_energy">   -362.32344465 </i>
    <i name="e_wo_entrp">   -362.34947322 </i>
    <i name="e_0_energy">   -362.33212084 </i>
   </energy>
  </scstep>
  <scstep>
   <time name="diag">    0.08    0.08</time>
   <time name="diis">    0.80    0.83</time>
   <time name="orth">    0.01    0.01</time>
   <time name="total">    0.96    1.01</time>
   <energy>
    <i name="e_fr_energy">   -362.32255377 </i>
    <i name="e_wo_entrp">   -362.34823483 </i>
    <i name="e_0_energy">   -362.33111412 </i>
   </energy>
  </scstep>
  <scstep>
   <time name="diag">    0.10    0.10</time>
   <time name="diis">    0.76    0.78</time>
   <time name="orth">    0.01    0.01</time>
   <time name="total">    0.96    1.01</time>
   <energy>
    <i name="e_fr_energy">   -362.32113988 </i>
    <i name="e_wo_entrp">   -362.34711646 </i>
    <i name="e_0_energy">   -362.32979874 </i>
   </energy>
  </scstep>
  <scstep>
   <time name="diag">    0.07    0.08</time>
   <time name="diis">    0.77    0.79</time>
   <time name="orth">    0.01    0.01</time>
   <time name="total">    0.92    0.97</time>
   <energy>
    <i name="e_fr_energy">   -362.32043484 </i>
    <i name="e_wo_entrp">   -362.34628199 </i>
    <i name="e_0_energy">   -362.32905056 </i>
   </energy>
  </scstep>
  <scstep>
   <time name="diag">    0.07    0.08</time>
   <time name="diis">    0.77    0.79</time>
   <time name="orth">    0.01    0.01</time>
   <time name="total">    0.93    0.97</time>
   <energy>
    <i name="e_fr_energy">   -362.32031672 </i>
    <i name="e_wo_entrp">   -362.34616810 </i>
    <i name="e_0_energy">   -362.32893385 </i>
   </energy>
  </scstep>
  <scstep>
   <time name="diag">    0.07    0.08</time>
   <time name="diis">    0.72    0.74</time>
   <time name="orth">    0.01    0.01</time>
   <time name="total">    0.88    0.92</time>
   <energy>
    <i name="e_fr_energy">   -362.32032943 </i>
    <i name="e_wo_entrp">   -362.34621993 </i>
    <i name="e_0_energy">   -362.32895960 </i>
   </energy>
  </scstep>
  <scstep>
   <time name="diag">    0.07    0.08</time>
   <time name="diis">    0.64    0.66</time>
   <time name="orth">    0.01    0.01</time>
   <time name="total">    0.79    0.84</time>
   <energy>
    <i name="e_fr_energy">   -362.32034222 </i>
    <i name="e_wo_entrp">   -362.34619896 </i>
    <i name="e_0_energy">   -362.32896114 </i>
   </energy>
  </scstep>
  <scstep>
   <time name="diag">    0.08    0.08</time>
   <time name="diis">    0.49    0.50</time>
   <time name="orth">    0.01    0.01</time>
   <time name="total">    0.63    0.66</time>
   <energy>
    <i name="alphaZ">   1466.64647663 </i>
    <i name="ewald"> -18318.92516006 </i>
    <i name="hartreedc">  -7026.38930596 </i>
    <i name="XCdc">   -329.44772019 </i>
    <i name="pawpsdc">  33288.16069572 </i>
    <i name="pawaedc"> -31654.72028483 </i>
    <i name="eentropy">      0.02588419 </i>
    <i name="bandstr">  -2512.64683064 </i>
    <i name="atom">  24724.97589359 </i>
    <i name="e_fr_energy">   -362.32035156 </i>
    <i name="e_wo_entrp">   -362.34623574 </i>
    <i name="e_0_energy">   -362.32897962 </i>
   </energy>
  </scstep>
  <structure>
   <crystal>
    <varray name="basis" >
     <v>       6.95681315       0.00077663      -0.01533461 </v>
     <v>       0.00180029      10.22876687       0.04091056 </v>
     <v>      -0.02243719       0.04099760      10.27118892 </v>
    </varray>
    <i name="volume">    730.87869525 </i>
    <varray name="rec_basis" >
     <v>       0.14374467      -0.00002656       0.00031411 </v>
     <v>      -0.00001177       0.09776506      -0.00039026 </v>
     <v>       0.00021465      -0.00038944       0.09736174 </v>
    </varray>
   </crystal>
   <varray name="positions" >
    <v>       0.48736656       0.32355527       0.32983924 </v>
    <v>       0.74383462       0.49556586       0.49721151 </v>
    <v>       0.00601089       0.99299864       0.99843103 </v>
    <v>       0.50224806       0.00343994       0.33250809 </v>
    <v>       0.26039631       0.83617934       0.50612188 </v>
    <v>       0.77383475       0.17034431       0.16091417 </v>
    <v>       0.00461694       0.68551956       0.00116460 </v>
    <v>       0.00397764       0.32798026       0.66622934 </v>
    <v>       0.76148932       0.17538730       0.48992180 </v>
    <v>       0.22597949       0.16756896       0.17069565 </v>
    <v>       0.75770904       0.18434718       0.84881185 </v>
    <v>       0.24504072       0.17062645       0.83301976 </v>
    <v>       0.02645363       0.32970428       0.98752381 </v>
    <v>       0.74489190       0.82761819       0.50354954 </v>
    <v>       0.25157967       0.83646146       0.18335589 </v>
    <v>       0.49019388       0.33078409       0.67234878 </v>
    <v>       0.74849259       0.83930388       0.18356460 </v>
    <v>       0.24254123       0.16278104       0.49818872 </v>
    <v>       0.01571995       0.32346538       0.34624447 </v>
    <v>       0.24688989       0.50539775       0.82511317 </v>
    <v>       0.25249636       0.49697497       0.49871701 </v>
    <v>       0.50286878       0.67277485       0.32688424 </v>
    <v>       0.48588023       0.63890062       0.65485926 </v>
    <v>       0.01176328       0.65662017       0.65648261 </v>
    <v>       0.99790078       0.99641566       0.34008758 </v>
    <v>       0.47692812       0.32937198       0.99777205 </v>
    <v>       0.76656884       0.49558995       0.16456972 </v>
    <v>       0.26990073       0.82173240       0.81329089 </v>
    <v>       0.75320435       0.49981992       0.83527934 </v>
    <v>       0.22626770       0.49724698       0.17402159 </v>
    <v>       0.99399749       0.67888230       0.33992597 </v>
    <v>       0.49452653       0.67449513       0.01866536 </v>
    <v>       0.52031052       0.02860324       0.66904221 </v>
    <v>       0.98420675       0.00878480       0.66699674 </v>
    <v>       0.72969014       0.81398334       0.80837653 </v>
    <v>       0.49422533       0.00079151       0.00027100 </v>
   </varray>
  </structure>
  <varray name="forces" >
   <v>      -0.00660672      -0.00473337      -0.03871280 </v>
   <v>      -0.03411272      -0.00169103       0.02530172 </v>
   <v>       0.00703102       0.00112781      -0.00748970 </v>
   <v>      -0.00001257      -0.00576940       0.00205221 </v>
   <v>      -0.01365508       0.00615293      -0.00671981 </v>
   <v>       0.01368735      -0.00553641       0.00298201 </v>
   <v>       0.00871784       0.00594186      -0.00109746 </v>
   <v>      -0.00711522       0.00897551      -0.00425037 </v>
   <v>       0.01304764      -0.02720878      -0.02427542 </v>
   <v>      -0.01989638       0.00035074       0.00288233 </v>
   <v>      -0.00076478      -0.00403339       0.02306614 </v>
   <v>       0.02501028       0.04064019      -0.00720560 </v>
   <v>       0.00033894      -0.00484073      -0.02422047 </v>
   <v>       0.00358451      -0.00377613      -0.00379519 </v>
   <v>       0.00048571       0.00621833      -0.00203538 </v>
   <v>       0.00137353      -0.01266883       0.00762343 </v>
   <v>      -0.00232863      -0.00599363       0.01050876 </v>
   <v>      -0.00313095      -0.01187224      -0.00635850 </v>
   <v>       0.00046574      -0.00194350       0.01550488 </v>
   <v>       0.01437592       0.00013060      -0.00851443 </v>
   <v>       0.02194006       0.01458763       0.00655270 </v>
   <v>      -0.00112155       0.00705667      -0.00187889 </v>
   <v>      -0.02140823       0.04394565      -0.02066544 </v>
   <v>       0.00653192      -0.02400399       0.00093622 </v>
   <v>       0.00197628      -0.00493173       0.00162654 </v>
   <v>       0.00336150      -0.00227150       0.05181955 </v>
   <v>       0.00218963       0.00871292       0.00565896 </v>
   <v>      -0.01044601      -0.00218223       0.00308232 </v>
   <v>      -0.01193033      -0.00191429      -0.00715002 </v>
   <v>      -0.01486365      -0.00794909       0.00393500 </v>
   <v>       0.00306943       0.00397262       0.00597927 </v>
   <v>      -0.00609499      -0.00325646       0.00633362 </v>
   <v>       0.01449061      -0.02127644      -0.01038548 </v>
   <v>       0.00331572       0.00618391       0.00618518 </v>
   <v>       0.01288172      -0.00319722       0.00469069 </v>
   <v>      -0.00438753       0.00705302      -0.01196655 </v>
  </varray>
  <varray name="stress" >
   <v>      -2.46447600       0.04292834       0.03287891 </v>
   <v>       0.04292832      -2.55612727      -0.03173719 </v>
   <v>       0.03287896      -0.03173725      -2.60573746 </v>
  </varray>
  <energy>
   <i name="e_fr_energy">   -362.32035156 </i>
   <i name="e_wo_entrp">   -362.32897962 </i>
   <i name="e_0_energy">      0.02588419 </i>
  </energy>
  <time name="totalsc">    8.88    9.41</time>
 </calculation>
 <calculation>
  <scstep>
   <time name="dav">    0.99    1.00</time>
   <time name="total">    1.15    1.28</time>
   <energy>
    <i name="alphaZ">   1466.95499106 </i>
    <i name="ewald"> -18320.21849480 </i>
    <i name="hartreedc">  -7026.91238208 </i>
    <i name="XCdc">   -329.38762416 </i>
    <i name="pawpsdc">  33287.68466674 </i>
    <i name="pawaedc"> -31654.20167597 </i>
    <i name="eentropy">      0.02589771 </i>
    <i name="bandstr">  -2511.24217655 </i>
    <i name="atom">  24724.97589359 </i>
    <i name="e_fr_energy">   -362.32090446 </i>
    <i name="e_wo_entrp">   -362.34680218 </i>
    <i name="e_0_energy">   -362.32953703 </i>
   </energy>
  </scstep>
  <scstep>
   <time name="diag">    0.08    0.08</time>
   <time name="diis">    0.75    0.77</time>
   <time name="orth">    0.01    0.03</time>
   <time name="total">    0.91    0.97</time>
   <energy>
    <i name="e_fr_energy">   -362.32094423 </i>
    <i name="e_wo_entrp">   -362.34683960 </i>
    <i name="e_0_energy">   -362.32957602 </i>
   </energy>
  </scstep>
  <scstep>
   <time name="diag">    0.08    0.10</time>
   <time name="diis">    0.72    0.73</time>
   <time name="orth">    0.01    0.01</time>
   <time name="total">    0.88    0.97</time>
   <energy>
    <i name="e_fr_energy">   -362.32089390 </i>
    <i name="e_wo_entrp">   -362.34676914 </i>
    <i name="e_0_energy">   -362.32951898 </i>
   </energy>
  </scstep>
  <scstep>
   <time name="diag">    0.08    0.09</time>
   <time name="diis">    0.43    0.44</time>
   <time name="orth">    0.01    0.01</time>
   <time name="total">    0.58    0.61</time>
   <energy>
    <i name="alphaZ">   1466.95499106 </i>
    <i name="ewald"> -18320.21849480 </i>
    <i name="hartreedc">  -7026.17461740 </i>
    <i name="XCdc">   -329.41930137 </i>
    <i name="pawpsdc">  33298.45412088 </i>
    <i name="pawaedc"> -31664.91786970 </i>
    <i name="eentropy">      0.02587183 </i>
    <i name="bandstr">  -2512.00147970 </i>
    <i name="atom">  24724.97589359 </i>
    <i name="e_fr_energy">   -362.32088560 </i>
    <i name="e_wo_entrp">   -362.34675743 </i>
    <i name="e_0_energy">   -362.32950955 </i>
   </energy>
  </scstep>
  <structure>
   <crystal>
    <varray name="basis" >
     <v>       6.95630663       0.00036834      -0.01524122 </v>
     <v>       0.00120088      10.22797768       0.04109366 </v>
     <v>      -0.02230146       0.04118207      10.27056969 </v>
    </varray>
    <i name="volume">    730.72498458 </i>
    <varray name="rec_basis" >
     <v>       0.14375513      -0.00001813       0.00031222 </v>
     <v>      -0.00000604       0.09777261      -0.00039205 </v>
     <v>       0.00021335      -0.00039123       0.09736761 </v>
    </varray>
   </crystal>
   <varray name="positions" >
    <v>       0.48736303       0.32354626       0.32976069 </v>
    <v>       0.74377120       0.49555143       0.49723783 </v>
    <v>       0.00601688       0.99300769       0.99841621 </v>
    <v>       0.50224635       0.00343990       0.33251646 </v>
    <v>       0.26039817       0.83618347       0.50612321 </v>
    <v>       0.77384042       0.17032925       0.16091364 </v>
    <v>       0.00462839       0.68551085       0.00115402 </v>
    <v>       0.00393904       0.32798725       0.66622467 </v>
    <v>       0.76153551       0.17534378       0.48988099 </v>
    <v>       0.22595927       0.16756501       0.17068824 </v>
    <v>       0.75773316       0.18432103       0.84884531 </v>
    <v>       0.24507515       0.17067107       0.83301512 </v>
    <v>       0.02645082       0.32970203       0.98748514 </v>
    <v>       0.74489317       0.82762150       0.50355073 </v>
    <v>       0.25156582       0.83647201       0.18335778 </v>
    <v>       0.49025147       0.33076644       0.67234577 </v>
    <v>       0.74850409       0.83929711       0.18357439 </v>
    <v>       0.24251004       0.16275257       0.49815731 </v>
    <v>       0.01571537       0.32346837       0.34628149 </v>
    <v>       0.24687998       0.50541421       0.82512025 </v>
    <v>       0.25249482       0.49699601       0.49870815 </v>
    <v>       0.50286195       0.67277146       0.32688682 </v>
    <v>       0.48583671       0.63904211       0.65483762 </v>
    <v>       0.01178765       0.65657930       0.65648169 </v>
    <v>       0.99789628       0.99642133       0.34010071 </v>
    <v>       0.47692943       0.32936739       0.99789562 </v>
    <v>       0.76656621       0.49560682       0.16457534 </v>
    <v>       0.26990653       0.82172905       0.81328328 </v>
    <v>       0.75319462       0.49982999       0.83529023 </v>
    <v>       0.22626664       0.49723934       0.17401935 </v>
    <v>       0.99401342       0.67888325       0.33992642 </v>
    <v>       0.49450845       0.67448086       0.01866647 </v>
    <v>       0.52034845       0.02852637       0.66903835 </v>
    <v>       0.98420282       0.00879969       0.66700831 </v>
    <v>       0.72968951       0.81398053       0.80838251 </v>
    <v>       0.49422218       0.00081228       0.00024989 </v>
   </varray>
  </structure>
  <varray name="forces" >
   <v>      -0.00576273      -0.00369084      -0.03610727 </v>
   <v>      -0.03412148      -0.00131308       0.02532315 </v>
   <v>       0.00699477       0.00133952      -0.00763875 </v>
   <v>       0.00057676      -0.00598518       0.00205266 </v>
   <v>      -0.01478397       0.00706842      -0.00748103 </v>
   <v>       0.01345662      -0.00431627       0.00307190 </v>
   <v>       0.00863927       0.00674823      -0.00039878 </v>
   <v>      -0.00678159       0.00981993      -0.00409297 </v>
   <v>       0.00941922      -0.02638997      -0.02178321 </v>
   <v>      -0.01907023       0.00001380       0.00347423 </v>
   <v>      -0.00193410      -0.00205299       0.02242633 </v>
   <v>       0.02497255       0.04027415      -0.00702804 </v>
   <v>      -0.00110933      -0.00496369      -0.02238605 </v>
   <v>       0.00278343      -0.00395677      -0.00368305 </v>
   <v>       0.00154528       0.00601797      -0.00350426 </v>
   <v>      -0.00214019      -0.01251655       0.00907158 </v>
   <v>      -0.00344756      -0.00562674       0.00829526 </v>
   <v>       0.00071717      -0.01039089      -0.00259348 </v>
   <v>      -0.00070322      -0.00252566       0.01201079 </v>
   <v>       0.01781690      -0.00201836      -0.00912075 </v>
   <v>       0.02537613       0.01328262       0.00696337 </v>
   <v>      -0.00098600       0.00666120      -0.00188606 </v>
   <v>      -0.01971041       0.03406736      -0.01976334 </v>
   <v>       0.00482614      -0.02104866       0.00142121 </v>
   <v>       0.00221794      -0.00576679       0.00021191 </v>
   <v>       0.00509902      -0.00111401       0.04473314 </v>
   <v>       0.00226025       0.00744445       0.00575749 </v>
   <v>      -0.01274150      -0.00028051       0.00496894 </v>
   <v>      -0.01367873      -0.00293534      -0.00841146 </v>
   <v>      -0.01705582      -0.00801667       0.00446455 </v>
   <v>       0.00235860       0.00243806       0.00632666 </v>
   <v>      -0.00449759      -0.00246555       0.00618641 </v>
   <v>       0.01251641      -0.01622785      -0.01155529 </v>
   <v>       0.00552587       0.00474821       0.00584871 </v>
   <v>       0.01493868      -0.00177331       0.00617854 </v>
   <v>      -0.00351654       0.00545175      -0.01135305 </v>
  </varray>
  <varray name="stress" >
   <v>      -2.28441522      -0.02486318       0.06873533 </v>
   <v>      -0.02486321      -2.37949825      -0.02177746 </v>
   <v>       0.06873532      -0.02177756      -2.43426655 </v>
  </varray>
  <energy>
   <i name="e_fr_energy">   -362.32088560 </i>
   <i name="e_wo_entrp">   -362.32950955 </i>
   <i name="e_0_energy">      0.02587183 </i>
  </energy>
  <time name="totalsc">    5.13    5.54</time>
 </calculation>
 <calculation>
  <scstep>
   <time name="dav">    0.94    0.96</time>
   <time name="total">    1.12    1.25</time>
   <energy>
    <i name="alphaZ">   1467.88112458 </i>
    <i name="ewald"> -18324.09053605 </i>
    <i name="hartreedc">  -7027.60428210 </i>
    <i name="XCdc">   -329.24519538 </i>
    <i name="pawpsdc">  33298.69449479 </i>
    <i name="pawaedc"> -31665.14742471 </i>
    <i name="eentropy">      0.02592306 </i>
    <i name="bandstr">  -2507.81231053 </i>
    <i name="atom">  24724.97589359 </i>
    <i name="e_fr_energy">   -362.32231276 </i>
    <i name="e_wo_entrp">   -362.34823581 </i>
    <i name="e_0_energy">   -362.33095378 </i>
   </energy>
  </scstep>
  <scstep>
   <time name="diag">    0.08    0.08</time>
   <time name="diis">    0.74    0.76</time>
   <time name="orth">    0.01    0.01</time>
   <time name="total">    0.90    0.94</time>
   <energy>
    <i name="e_fr_energy">   -362.32263460 </i>
    <i name="e_wo_entrp">   -362.34855739 </i>
    <i name="e_0_energy">   -362.33127553 </i>
   </energy>
  </scstep>
  <scstep>
   <time name="diag">    0.08    0.08</time>
   <time name="diis">    0.83    0.86</time>
   <time name="orth">    0.01    0.01</time>
   <time name="total">    0.99    1.04</time>
   <energy>
    <i name="e_fr_energy">   -362.32216297 </i>
    <i name="e_wo_entrp">   -362.34802588 </i>
    <i name="e_0_energy">   -362.33078394 </i>
[...]
       <r>    6.7813    1.0000 </r>
       <r>    6.8060    1.0000 </r>
       <r>    6.8481    1.0000 </r>
       <r>    6.8846    1.0000 </r>
       <r>    6.9536    1.0001 </r>
       <r>    6.9832    1.0003 </r>
       <r>    7.0071    1.0006 </r>
       <r>    7.0599    1.0028 </r>
       <r>    7.0852    1.0053 </r>
       <r>    7.0965    1.0069 </r>
       <r>    7.1115    1.0095 </r>
       <r>    7.1586    1.0217 </r>
       <r>    7.1825    1.0289 </r>
       <r>    7.2195    1.0355 </r>
       <r>    7.2537    1.0247 </r>
       <r>    7.3093    0.9310 </r>
       <r>    7.3181    0.9044 </r>
       <r>    7.3576    0.7441 </r>
       <r>    7.3740    0.6608 </r>
       <r>    7.4555    0.2235 </r>
       <r>    7.4802    0.1224 </r>
       <r>    7.5303   -0.0014 </r>
       <r>    7.5483   -0.0214 </r>
       <r>    7.5956   -0.0350 </r>
       <r>    7.6140   -0.0316 </r>
       <r>    7.6496   -0.0211 </r>
       <r>    7.6929   -0.0099 </r>
       <r>    7.7174   -0.0058 </r>
       <r>    7.7454   -0.0029 </r>
       <r>    7.7635   -0.0018 </r>
       <r>    7.8006   -0.0006 </r>
       <r>    7.8681   -0.0001 </r>
       <r>    7.9151   -0.0000 </r>
       <r>    7.9793   -0.0000 </r>
       <r>    7.9994   -0.0000 </r>
       <r>    8.0547   -0.0000 </r>
       <r>    8.1435   -0.0000 </r>
       <r>    8.1741   -0.0000 </r>
       <r>    8.2306   -0.0000 </r>
       <r>    8.3466   -0.0000 </r>
       <r>    8.3792   -0.0000 </r>
       <r>    8.5203   -0.0000 </r>
       <r>    8.6564   -0.0000 </r>
       <r>    8.7773   -0.0000 </r>
       <r>    9.2359   -0.0000 </r>
       <r>    9.3370   -0.0000 </r>
       <r>    9.4118   -0.0000 </r>
       <r>    9.4644   -0.0000 </r>
       <r>    9.5204   -0.0000 </r>
      </set>
     </set>
    </set>
   </array>
  </eigenvalues>
  <separator name="orbital magnetization" >
   <v name="MAGDIPOLOUT">      0.00000000      0.00000000      0.00000000</v>
  </separator>
  <dos>
   <i name="efermi">      7.40309245 </i>
   <total>
    <array>
     <dimension dim="1">gridpoints</dimension>
     <dimension dim="2">spin</dimension>
     <field>energy</field>
     <field>total</field>
     <field>integrated</field>
     <set>
      <set comment="spin 1">
       <r>   -49.7938     0.0000     0.0000 </r>
       <r>   -49.5866     0.0000     0.0000 </r>
       <r>   -49.3794     0.0000     0.0000 </r>
       <r>   -49.1722     0.0000     0.0000 </r>
       <r>   -48.9649     0.0000     0.0000 </r>
       <r>   -48.7577     0.0000     0.0000 </r>
       <r>   -48.5505     0.0000     0.0000 </r>
       <r>   -48.3433    -0.0000    -0.0000 </r>
       <r>   -48.1361    -0.0000    -0.0000 </r>
       <r>   -47.9288    -0.0000    -0.0000 </r>
       <r>   -47.7216    -0.0000    -0.0000 </r>
       <r>   -47.5144    -0.0000    -0.0000 </r>
       <r>   -47.3072    -0.0455    -0.0094 </r>
       <r>   -47.1000    -0.6981    -0.1541 </r>
       <r>   -46.8928    19.9754     3.9852 </r>
       <r>   -46.6855    36.9008    11.6318 </r>
       <r>   -46.4783    22.0106    16.1928 </r>
       <r>   -46.2711    -0.8881    16.0087 </r>
       <r>   -46.0639    -0.0421    16.0000 </r>
       <r>   -45.8567    -0.0000    16.0000 </r>
       <r>   -45.6494    -0.0000    16.0000 </r>
       <r>   -45.4422     0.0000    16.0000 </r>
       <r>   -45.2350     0.0000    16.0000 </r>
       <r>   -45.0278     0.0000    16.0000 </r>
       <r>   -44.8206     0.0000    16.0000 </r>
       <r>   -44.6133     0.0000    16.0000 </r>
       <r>   -44.4061     0.0000    16.0000 </r>
       <r>   -44.1989     0.0000    16.0000 </r>
       <r>   -43.9917     0.0000    16.0000 </r>
       <r>   -43.7845     0.0000    16.0000 </r>
       <r>   -43.5772     0.0000    16.0000 </r>
       <r>   -43.3700     0.0000    16.0000 </r>
       <r>   -43.1628     0.0000    16.0000 </r>
       <r>   -42.9556     0.0000    16.0000 </r>
       <r>   -42.7484     0.0000    16.0000 </r>
       <r>   -42.5411     0.0000    16.0000 </r>
       <r>   -42.3339     0.0000    16.0000 </r>
       <r>   -42.1267    -0.0000    16.0000 </r>
       <r>   -41.9195    -0.0000    16.0000 </r>
       <r>   -41.7123    -0.0000    16.0000 </r>
       <r>   -41.5050    -0.0000    16.0000 </r>
       <r>   -41.2978    -0.0029    15.9994 </r>
       <r>   -41.0906    -0.4156    15.9133 </r>
       <r>   -40.8834     4.2695    16.7980 </r>
       <r>   -40.6762    42.8289    25.6730 </r>
       <r>   -40.4689    30.8939    32.0748 </r>
       <r>   -40.2617    -0.2493    32.0232 </r>
       <r>   -40.0545    -0.1118    32.0000 </r>
       <r>   -39.8473    -0.0001    32.0000 </r>
       <r>   -39.6401    -0.0000    32.0000 </r>
       <r>   -39.4328     0.0000    32.0000 </r>
       <r>   -39.2256     0.0000    32.0000 </r>
       <r>   -39.0184     0.0000    32.0000 </r>
       <r>   -38.8112     0.0000    32.0000 </r>
       <r>   -38.6040     0.0000    32.0000 </r>
       <r>   -38.3967     0.0000    32.0000 </r>
       <r>   -38.1895     0.0000    32.0000 </r>
       <r>   -37.9823     0.0000    32.0000 </r>
       <r>   -37.7751     0.0000    32.0000 </r>
       <r>   -37.5679     0.0000    32.0000 </r>
       <r>   -37.3606     0.0000    32.0000 </r>
       <r>   -37.1534     0.0000    32.0000 </r>
       <r>   -36.9462     0.0000    32.0000 </r>
       <r>   -36.7390     0.0000    32.0000 </r>
       <r>   -36.5318     0.0000    32.0000 </r>
       <r>   -36.3245     0.0000    32.0000 </r>
       <r>   -36.1173     0.0000    32.0000 </r>
       <r>   -35.9101     0.0000    32.0000 </r>
       <r>   -35.7029     0.0000    32.0000 </r>
       <r>   -35.4957     0.0000    32.0000 </r>
       <r>   -35.2885     0.0000    32.0000 </r>
       <r>   -35.0812     0.0000    32.0000 </r>
       <r>   -34.8740     0.0000    32.0000 </r>
       <r>   -34.6668     0.0000    32.0000 </r>
       <r>   -34.4596     0.0000    32.0000 </r>
       <r>   -34.2524     0.0000    32.0000 </r>
       <r>   -34.0451     0.0000    32.0000 </r>
       <r>   -33.8379     0.0000    32.0000 </r>
       <r>   -33.6307     0.0000    32.0000 </r>
       <r>   -33.4235     0.0000    32.0000 </r>
       <r>   -33.2163     0.0000    32.0000 </r>
       <r>   -33.0090     0.0000    32.0000 </r>
       <r>   -32.8018     0.0000    32.0000 </r>
       <r>   -32.5946     0.0000    32.0000 </r>
       <r>   -32.3874     0.0000    32.0000 </r>
       <r>   -32.1802     0.0000    32.0000 </r>
       <r>   -31.9729     0.0000    32.0000 </r>
       <r>   -31.7657     0.0000    32.0000 </r>
       <r>   -31.5585     0.0000    32.0000 </r>
       <r>   -31.3513     0.0000    32.0000 </r>
       <r>   -31.1441     0.0000    32.0000 </r>
       <r>   -30.9368     0.0000    32.0000 </r>
       <r>   -30.7296     0.0000    32.0000 </r>
       <r>   -30.5224     0.0000    32.0000 </r>
       <r>   -30.3152     0.0000    32.0000 </r>
       <r>   -30.1080     0.0000    32.0000 </r>
       <r>   -29.9007     0.0000    32.0000 </r>
       <r>   -29.6935     0.0000    32.0000 </r>
       <r>   -29.4863     0.0000    32.0000 </r>
       <r>   -29.2791     0.0000    32.0000 </r>
       <r>   -29.0719     0.0000    32.0000 </r>
       <r>   -28.8646     0.0000    32.0000 </r>
       <r>   -28.6574     0.0000    32.0000 </r>
       <r>   -28.4502     0.0000    32.0000 </r>
       <r>   -28.2430     0.0000    32.0000 </r>
       <r>   -28.0358     0.0000    32.0000 </r>
       <r>   -27.8285     0.0000    32.0000 </r>
       <r>   -27.6213     0.0000    32.0000 </r>
       <r>   -27.4141     0.0000    32.0000 </r>
       <r>   -27.2069     0.0000    32.0000 </r>
       <r>   -26.9997     0.0000    32.0000 </r>
       <r>   -26.7924     0.0000    32.0000 </r>
       <r>   -26.5852     0.0000    32.0000 </r>
       <r>   -26.3780     0.0000    32.0000 </r>
       <r>   -26.1708     0.0000    32.0000 </r>
       <r>   -25.9636     0.0000    32.0000 </r>
       <r>   -25.7563     0.0000    32.0000 </r>
       <r>   -25.5491     0.0000    32.0000 </r>
       <r>   -25.3419     0.0000    32.0000 </r>
       <r>   -25.1347     0.0000    32.0000 </r>
       <r>   -24.9275     0.0000    32.0000 </r>
       <r>   -24.7203     0.0000    32.0000 </r>
       <r>   -24.5130    -0.0000    32.0000 </r>
       <r>   -24.3058    -0.0000    32.0000 </r>
       <r>   -24.0986    -0.0000    32.0000 </r>
       <r>   -23.8914    -0.0000    32.0000 </r>
       <r>   -23.6842    -0.0026    31.9995 </r>
       <r>   -23.4769    -0.5306    31.8895 </r>
       <r>   -23.2697     5.0852    32.9433 </r>
       <r>   -23.0625    56.8154    44.7165 </r>
       <r>   -22.8553    79.4993    61.1903 </r>
       <r>   -22.6481    66.0644    74.8802 </r>
       <r>   -22.4408    22.0157    79.4423 </r>
       <r>   -22.2336     2.9690    80.0575 </r>
       <r>   -22.0264    -0.2762    80.0003 </r>
       <r>   -21.8192    -0.0012    80.0000 </r>
       <r>   -21.6120    -0.0000    80.0000 </r>
       <r>   -21.4047    -0.0000    80.0000 </r>
       <r>   -21.1975     0.0000    80.0000 </r>
       <r>   -20.9903     0.0000    80.0000 </r>
       <r>   -20.7831     0.0000    80.0000 </r>
       <r>   -20.5759    -0.0000    80.0000 </r>
       <r>   -20.3686    -0.0000    80.0000 </r>
       <r>   -20.1614    -0.0000    80.0000 </r>
       <r>   -19.9542    -0.0000    80.0000 </r>
       <r>   -19.7470    -0.0004    79.9999 </r>
       <r>   -19.5398    -0.1542    79.9680 </r>
       <r>   -19.3325     1.5995    80.2994 </r>
       <r>   -19.1253    12.3451    82.8576 </r>
       <r>   -18.9181    51.8623    93.6044 </r>
       <r>   -18.7109   100.0513   114.3370 </r>
       <r>   -18.5037    58.2794   126.4137 </r>
       <r>   -18.2964     8.3692   128.1479 </r>
       <r>   -18.0892    -0.7081   128.0012 </r>
       <r>   -17.8820    -0.0058   128.0000 </r>
       <r>   -17.6748    -0.0000   128.0000 </r>
       <r>   -17.4676    -0.0000   128.0000 </r>
       <r>   -17.2603     0.0000   128.0000 </r>
       <r>   -17.0531     0.0000   128.0000 </r>
       <r>   -16.8459     0.0000   128.0000 </r>
       <r>   -16.6387     0.0000   128.0000 </r>
       <r>   -16.4315     0.0000   128.0000 </r>
       <r>   -16.2242     0.0000   128.0000 </r>
       <r>   -16.0170     0.0000   128.0000 </r>
       <r>   -15.8098     0.0000   128.0000 </r>
       <r>   -15.6026     0.0000   128.0000 </r>
       <r>   -15.3954     0.0000   128.0000 </r>
       <r>   -15.1881     0.0000   128.0000 </r>
       <r>   -14.9809     0.0000   128.0000 </r>
       <r>   -14.7737     0.0000   128.0000 </r>
       <r>   -14.5665     0.0000   128.0000 </r>
       <r>   -14.3593     0.0000   128.0000 </r>
       <r>   -14.1520     0.0000   128.0000 </r>
       <r>   -13.9448     0.0000   128.0000 </r>
       <r>   -13.7376     0.0000   128.0000 </r>
       <r>   -13.5304     0.0000   128.0000 </r>
       <r>   -13.3232     0.0000   128.0000 </r>
       <r>   -13.1160     0.0000   128.0000 </r>
       <r>   -12.9087     0.0000   128.0000 </r>
       <r>   -12.7015     0.0000   128.0000 </r>
       <r>   -12.4943     0.0000   128.0000 </r>
       <r>   -12.2871     0.0000   128.0000 </r>
       <r>   -12.0799     0.0000   128.0000 </r>
       <r>   -11.8726     0.0000   128.0000 </r>
       <r>   -11.6654     0.0000   128.0000 </r>
       <r>   -11.4582     0.0000   128.0000 </r>
       <r>   -11.2510     0.0000   128.0000 </r>
       <r>   -11.0438     0.0000   128.0000 </r>
       <r>   -10.8365     0.0000   128.0000 </r>
       <r>   -10.6293     0.0000   128.0000 </r>
       <r>   -10.4221     0.0000   128.0000 </r>
       <r>   -10.2149     0.0000   128.0000 </r>
       <r>   -10.0077     0.0000   128.0000 </r>
       <r>    -9.8004     0.0000   128.0000 </r>
       <r>    -9.5932     0.0000   128.0000 </r>
       <r>    -9.3860     0.0000   128.0000 </r>
       <r>    -9.1788     0.0000   128.0000 </r>
       <r>    -8.9716     0.0000   128.0000 </r>
       <r>    -8.7643     0.0000   128.0000 </r>
       <r>    -8.5571     0.0000   128.0000 </r>
       <r>    -8.3499     0.0000   128.0000 </r>
       <r>    -8.1427     0.0000   128.0000 </r>
       <r>    -7.9355     0.0000   128.0000 </r>
       <r>    -7.7282     0.0000   128.0000 </r>
       <r>    -7.5210     0.0000   128.0000 </r>
       <r>    -7.3138     0.0000   128.0000 </r>
       <r>    -7.1066     0.0000   128.0000 </r>
       <r>    -6.8994     0.0000   128.0000 </r>
       <r>    -6.6921     0.0000   128.0000 </r>
       <r>    -6.4849     0.0000   128.0000 </r>
       <r>    -6.2777     0.0000   128.0000 </r>
       <r>    -6.0705     0.0000   128.0000 </r>
       <r>    -5.8633     0.0000   128.0000 </r>
       <r>    -5.6560     0.0000   128.0000 </r>
       <r>    -5.4488     0.0000   128.0000 </r>
       <r>    -5.2416     0.0000   128.0000 </r>
       <r>    -5.0344     0.0000   128.0000 </r>
       <r>    -4.8272     0.0000   128.0000 </r>
       <r>    -4.6199     0.0000   128.0000 </r>
       <r>    -4.4127     0.0000   128.0000 </r>
       <r>    -4.2055     0.0000   128.0000 </r>
       <r>    -3.9983     0.0000   128.0000 </r>
       <r>    -3.7911     0.0000   128.0000 </r>
       <r>    -3.5838     0.0000   128.0000 </r>
       <r>    -3.3766     0.0000   128.0000 </r>
       <r>    -3.1694     0.0000   128.0000 </r>
       <r>    -2.9622     0.0000   128.0000 </r>
       <r>    -2.7550     0.0000   128.0000 </r>
       <r>    -2.5478     0.0000   128.0000 </r>
       <r>    -2.3405     0.0000   128.0000 </r>
       <r>    -2.1333     0.0000   128.0000 </r>
       <r>    -1.9261     0.0000   128.0000 </r>
       <r>    -1.7189     0.0000   128.0000 </r>
       <r>    -1.5117     0.0000   128.0000 </r>
       <r>    -1.3044     0.0000   128.0000 </r>
       <r>    -1.0972     0.0000   128.0000 </r>
       <r>    -0.8900     0.0000   128.0000 </r>
       <r>    -0.6828    -0.0000   128.0000 </r>
       <r>    -0.4756    -0.0000   128.0000 </r>
       <r>    -0.2683    -0.0000   128.0000 </r>
       <r>    -0.0611    -0.0000   128.0000 </r>
       <r>     0.1461    -0.0000   128.0000 </r>
       <r>     0.3533    -0.0034   127.9993 </r>
       <r>     0.5605     0.0280   128.0051 </r>
       <r>     0.7678     0.3886   128.0856 </r>
       <r>     0.9750     1.3251   128.3602 </r>
       <r>     1.1822     1.7881   128.7308 </r>
       <r>     1.3894     2.3336   129.2143 </r>
       <r>     1.5966     3.8481   130.0117 </r>
       <r>     1.8039     2.9587   130.6249 </r>
       <r>     2.0111     3.1013   131.2675 </r>
       <r>     2.2183     4.4732   132.1944 </r>
       <r>     2.4255     3.9696   133.0170 </r>
       <r>     2.6327     4.0978   133.8661 </r>
       <r>     2.8400     8.2320   135.5720 </r>
       <r>     3.0472     7.9080   137.2107 </r>
       <r>     3.2544     7.9034   138.8484 </r>
       <r>     3.4616     7.3188   140.3650 </r>
       <r>     3.6688    10.6488   142.5716 </r>
       <r>     3.8761    17.5124   146.2005 </r>
       <r>     4.0833    23.1282   150.9931 </r>
       <r>     4.2905    23.5354   155.8701 </r>
       <r>     4.4977    30.7700   162.2463 </r>
       <r>     4.7049    33.2707   169.1406 </r>
       <r>     4.9122    40.3847   177.5091 </r>
       <r>     5.1194    40.3927   185.8793 </r>
       <r>     5.3266    34.8988   193.1110 </r>
       <r>     5.5338    32.2401   199.7918 </r>
       <r>     5.7410    32.9903   206.6280 </r>
       <r>     5.9483    14.4153   209.6152 </r>
       <r>     6.1555    39.4981   217.7999 </r>
       <r>     6.3627    65.3979   231.3517 </r>
       <r>     6.5699    59.3769   243.6557 </r>
       <r>     6.7771    52.3877   254.5115 </r>
       <r>     6.9844    54.8775   265.8832 </r>
       <r>     7.1916    58.2818   277.9603 </r>
       <r>     7.3988    52.3498   288.8082 </r>
       <r>     7.6060    44.5242   298.0345 </r>
       <r>     7.8132    52.4097   308.8949 </r>
       <r>     8.0205    44.2481   318.0639 </r>
       <r>     8.2277    33.2565   324.9553 </r>
       <r>     8.4349    28.1923   330.7973 </r>
       <r>     8.6421    23.1397   335.5923 </r>
       <r>     8.8493    16.0489   338.9180 </r>
       <r>     9.0565    13.2034   341.6540 </r>
       <r>     9.2638    24.2679   346.6828 </r>
       <r>     9.4710    19.8421   350.7945 </r>
       <r>     9.6782     6.1579   352.0705 </r>
       <r>     9.8854    -0.3306   352.0020 </r>
       <r>    10.0926    -0.0097   352.0000 </r>
       <r>    10.2999    -0.0000   352.0000 </r>
       <r>    10.5071    -0.0000   352.0000 </r>
       <r>    10.7143     0.0000   352.0000 </r>
       <r>    10.9215     0.0000   352.0000 </r>
       <r>    11.1287     0.0000   352.0000 </r>
       <r>    11.3360     0.0000   352.0000 </r>
       <r>    11.5432     0.0000   352.0000 </r>
       <r>    11.7504     0.0000   352.0000 </r>
       <r>    11.9576     0.0000   352.0000 </r>
       <r>    12.1648     0.0000   352.0000 </r>
       <r>    12.3721     0.0000   352.0000 </r>
      </set>
     </set>
    </array>
   </total>
  </dos>
 </calculation>
 <structure name="finalpos" >
  <crystal>
   <varray name="basis" >
    <v>       6.95430181      -0.00214203      -0.01443254 </v>
    <v>      -0.00248112      10.22396231       0.04314017 </v>
    <v>      -0.02112718       0.04324914      10.26550597 </v>
   </varray>
   <i name="volume">    729.86666470 </i>
   <varray name="rec_basis" >
    <v>       0.14379651       0.00003365       0.00029580 </v>
    <v>       0.00002927       0.09781118      -0.00041202 </v>
    <v>       0.00020204      -0.00041100       0.09741576 </v>
   </varray>
  </crystal>
  <varray name="positions" >
   <v>       0.48702151       0.32357410       0.32824456 </v>
   <v>       0.74117984       0.49541542       0.49838258 </v>
   <v>       0.00659553       0.99343558       0.99780788 </v>
   <v>       0.50240115       0.00303270       0.33234065 </v>
   <v>       0.25912457       0.83664309       0.50592138 </v>
   <v>       0.77480410       0.17025231       0.16123634 </v>
   <v>       0.00502657       0.68543317       0.00115144 </v>
   <v>       0.00358014       0.32832236       0.66588156 </v>
   <v>       0.76197227       0.17387136       0.48870535 </v>
   <v>       0.22479357       0.16750954       0.17056335 </v>
   <v>       0.75758540       0.18426418       0.84952912 </v>
   <v>       0.24690535       0.17251818       0.83249943 </v>
   <v>       0.02592908       0.32996715       0.98673258 </v>
   <v>       0.74544540       0.82764216       0.50360009 </v>
   <v>       0.25139176       0.83696297       0.18312292 </v>
   <v>       0.49031367       0.33002298       0.67284965 </v>
   <v>       0.74842176       0.83832101       0.18341643 </v>
   <v>       0.24303456       0.16218086       0.49816811 </v>
   <v>       0.01528964       0.32347803       0.34708893 </v>
   <v>       0.24863539       0.50526075       0.82495349 </v>
   <v>       0.25397146       0.49727139       0.49886230 </v>
   <v>       0.50227806       0.67279854       0.32705389 </v>
   <v>       0.48536286       0.64143016       0.65428740 </v>
   <v>       0.01203690       0.65559472       0.65646750 </v>
   <v>       0.99776388       0.99605434       0.33996682 </v>
   <v>       0.47768364       0.32975953       0.99966487 </v>
   <v>       0.76689304       0.49618440       0.16491557 </v>
   <v>       0.26939764       0.82161334       0.81337526 </v>
   <v>       0.75160162       0.49989042       0.83491288 </v>
   <v>       0.22455212       0.49680426       0.17409444 </v>
   <v>       0.99402704       0.67846502       0.34045150 </v>
   <v>       0.49399478       0.67417872       0.01893059 </v>
   <v>       0.52138594       0.02742332       0.66865491 </v>
   <v>       0.98457258       0.00925356       0.66744624 </v>
   <v>       0.73075979       0.81395911       0.80879527 </v>
   <v>       0.49427042       0.00122827      -0.00007529 </v>
  </varray>
 </structure>
</modeling>
