 vasp.5.4.1 05Feb16 (build Jan 29 2020 16:04:39) complex                        
  
 executed on           IFC91_ompi date 2020.06.15  12:52:28
 running on  160 total cores
 distrk:  each k-point on   20 cores,    8 groups
 distr:  one band on NCORES_PER_BAND=   5 cores,    4 groups


--------------------------------------------------------------------------------------------------------


 INCAR:
 POTCAR:    PAW_PBE Hf 20Jan2003                  
 POTCAR:    PAW_PBE Nb_sv 25May2007               
 POTCAR:    PAW_PBE Ta 17Jan2003                  
 POTCAR:    PAW_PBE Zr_sv 04Jan2005               

 ----------------------------------------------------------------------------- 
|                                                                             |
|           W    W    AA    RRRRR   N    N  II  N    N   GGGG   !!!           |
|           W    W   A  A   R    R  NN   N  II  NN   N  G    G  !!!           |
|           W    W  A    A  R    R  N N  N  II  N N  N  G       !!!           |
|           W WW W  AAAAAA  RRRRR   N  N N  II  N  N N  G  GGG   !            |
|           WW  WW  A    A  R   R   N   NN  II  N   NN  G    G                |
|           W    W  A    A  R    R  N    N  II  N    N   GGGG   !!!           |
|                                                                             |
|      For optimal performance we recommend to set                            |
|        NCORE= 4 - approx SQRT( number of cores)                             |
|      NCORE specifies how many cores store one orbital (NPAR=cpu/NCORE).     |
|      This setting can  greatly improve the performance of VASP for DFT.     |
|      The default, NPAR=number of cores might be grossly inefficient         |
|      on modern multi-core architectures or massively parallel machines.     |
|      Do your own testing !!!!                                               |
|      Unfortunately you need to use the default for GW and RPA calculations. |
|      (for HF NCORE is supported but not extensively tested yet)             |
|                                                                             |
 ----------------------------------------------------------------------------- 


 ----------------------------------------------------------------------------- 
|                                                                             |
|           W    W    AA    RRRRR   N    N  II  N    N   GGGG   !!!           |
|           W    W   A  A   R    R  NN   N  II  NN   N  G    G  !!!           |
|           W    W  A    A  R    R  N N  N  II  N N  N  G       !!!           |
|           W WW W  AAAAAA  RRRRR   N  N N  II  N  N N  G  GGG   !            |
|           WW  WW  A    A  R   R   N   NN  II  N   NN  G    G                |
|           W    W  A    A  R    R  N    N  II  N    N   GGGG   !!!           |
|                                                                             |
|      You have enabled k-point parallelism (KPAR>1).                         |
|      This developmental code was originally  written by Paul Kent at ORNL,  |
|      and carefully double checked in Vienna.                                |
|      GW as well as linear response parallelism added by Martijn Marsman     |
|      and Georg Kresse.                                                      |
|      Carefully verify results versus KPAR=1.                                |
|      Report problems to Paul Kent and Vienna.                               |
|                                                                             |
 ----------------------------------------------------------------------------- 

 POTCAR:    PAW_PBE Hf 20Jan2003                  
   VRHFIN =Hf: 6s5d                                                             
   LEXCH  = PE                                                                  
   EATOM  =    75.9011 eV,    5.5786 Ry                                         
                                                                                
   TITEL  = PAW_PBE Hf 20Jan2003                                                
   LULTRA =        F    use ultrasoft PP ?                                      
   IUNSCR =        1    unscreen: 0-lin 1-nonlin 2-no                           
   RPACOR =    2.500    partial core radius                                     
   POMASS =  178.490; ZVAL   =    4.000    mass and valenz                      
   RCORE  =    3.000    outmost cutoff radius                                   
   RWIGS  =    3.050; RWIGS  =    1.614    wigner-seitz radius (au A)           
   ENMAX  =  220.334; ENMIN  =  165.250 eV                                      
   RCLOC  =    2.212    cutoff for local pot                                    
   LCOR   =        T    correct aug charges                                     
   LPAW   =        T    paw PP                                                  
   EAUG   =  335.116                                                            
   DEXC   =    0.000                                                            
   RMAX   =    3.077    core radius for proj-oper                               
   RAUG   =    1.300    factor for augmentation sphere                          
   RDEP   =    3.047    radius for radial grids                                 
   RDEPT  =    2.344    core radius for aug-charge                              
                                                                                
   Atomic configuration                                                         
   16 entries                                                                   
     n  l   j            E        occ.                                          
     1  0  0.50    -65259.4397   2.0000                                         
     2  0  0.50    -11157.9882   2.0000                                         
     2  1  1.50     -9795.2113   6.0000                                         
     3  0  0.50     -2541.4058   2.0000                                         
     3  1  1.50     -2134.4770   6.0000                                         
     3  2  2.50     -1653.5418  10.0000                                         
     4  0  0.50      -510.9575   2.0000                                         
     4  1  1.50      -377.5023   6.0000                                         
     4  2  2.50      -205.2085  10.0000                                         
     4  3  3.50       -15.4905  14.0000                                         
     5  0  0.50       -65.6020   2.0000                                         
     5  1  1.50       -34.2798   6.0000                                         
     5  2  2.50        -1.9877   3.0000                                         
     6  0  0.50        -4.7357   1.0000                                         
     6  1  1.50        -1.3606   0.0000                                         
     5  3  2.50        -1.3606   0.0000                                         
   Description                                                                  
     l       E           TYP  RCUT    TYP  RCUT                                 
     2     -1.9876627     23  2.500                                             
     2      0.0744703     23  2.500                                             
     0     -4.7356889     23  2.600                                             
     0      3.2364747     23  2.600                                             
     1     -1.3605826     23  3.000                                             
     1     27.2116520     23  3.000                                             
  local pseudopotential read in
  partial core-charges read in
  partial kinetic energy density read in
  atomic valenz-charges read in
  non local Contribution for L=           2  read in
    real space projection operators read in
  non local Contribution for L=           2  read in
    real space projection operators read in
  non local Contribution for L=           0  read in
    real space projection operators read in
  non local Contribution for L=           0  read in
    real space projection operators read in
  non local Contribution for L=           1  read in
    real space projection operators read in
  non local Contribution for L=           1  read in
    real space projection operators read in
    PAW grid and wavefunctions read in
 
   number of l-projection  operators is LMAX  =           6
   number of lm-projection operators is LMMAX =          18
 
 POTCAR:    PAW_PBE Nb_sv 25May2007               
   VRHFIN =Nb: 4p5s4d                                                           
   LEXCH  = PE                                                                  
   EATOM  =  1555.1913 eV,  114.3033 Ry                                         
                                                                                
   TITEL  = PAW_PBE Nb_sv 25May2007                                             
   LULTRA =        F    use ultrasoft PP ?                                      
   IUNSCR =        1    unscreen: 0-lin 1-nonlin 2-no                           
   RPACOR =    1.800    partial core radius                                     
   POMASS =   92.910; ZVAL   =   13.000    mass and valenz                      
   RCORE  =    2.400    outmost cutoff radius                                   
   RWIGS  =    2.400; RWIGS  =    1.270    wigner-seitz radius (au A)           
   ENMAX  =  293.235; ENMIN  =  219.927 eV                                      
   ICORE  =        3    local potential                                         
   LCOR   =        T    correct aug charges                                     
   LPAW   =        T    paw PP                                                  
   EAUG   =  455.659                                                            
   DEXC   =    0.000                                                            
   RMAX   =    2.456    core radius for proj-oper                               
   RAUG   =    1.300    factor for augmentation sphere                          
   RDEP   =    2.451    radius for radial grids                                 
   RDEPT  =    1.956    core radius for aug-charge                              
                                                                                
   Atomic configuration                                                         
   11 entries                                                                   
     n  l   j            E        occ.                                          
     1  0  0.50    -18805.2457   2.0000                                         
     2  0  0.50     -2630.2869   2.0000                                         
     2  1  1.50     -2348.4046   6.0000                                         
     3  0  0.50      -438.8757   2.0000                                         
     3  1  1.50      -346.7588   6.0000                                         
     3  2  2.50      -196.2560  10.0000                                         
     4  0  0.50       -58.3859   2.0000                                         
     5  0  0.50        -3.9816   1.0000                                         
     4  1  1.50       -34.5141   6.0000                                         
     4  2  2.50        -3.0408   4.0000                                         
     4  3  2.50        -1.3606   0.0000                                         
   Description                                                                  
     l       E           TYP  RCUT    TYP  RCUT                                 
     0    -58.3859094     23  2.200                                             
     0     -3.9816262     23  2.200                                             
     1    -34.5140738     23  2.200                                             
     1     13.6058260     23  2.200                                             
     2     -3.0408010     23  2.200                                             
     2     -0.1283038     23  2.200                                             
     3     -1.3605826     23  2.400                                             
  local pseudopotential read in
  partial core-charges read in
  partial kinetic energy density read in
  atomic valenz-charges read in
  non local Contribution for L=           0  read in
    real space projection operators read in
  non local Contribution for L=           0  read in
    real space projection operators read in
  non local Contribution for L=           1  read in
    real space projection operators read in
  non local Contribution for L=           1  read in
    real space projection operators read in
  non local Contribution for L=           2  read in
    real space projection operators read in
  non local Contribution for L=           2  read in
    real space projection operators read in
    PAW grid and wavefunctions read in
 
   number of l-projection  operators is LMAX  =           6
   number of lm-projection operators is LMMAX =          18
 
 POTCAR:    PAW_PBE Ta 17Jan2003                  
   VRHFIN =Ta:  6s5d                                                            
   LEXCH  = PE                                                                  
   EATOM  =   130.6506 eV,    9.6025 Ry                                         
                                                                                
   TITEL  = PAW_PBE Ta 17Jan2003                                                
   LULTRA =        F    use ultrasoft PP ?                                      
   IUNSCR =        1    unscreen: 0-lin 1-nonlin 2-no                           
   RPACOR =    2.330    partial core radius                                     
   POMASS =  180.948; ZVAL   =    5.000    mass and valenz                      
   RCORE  =    2.900    outmost cutoff radius                                   
   RWIGS  =    2.840; RWIGS  =    1.503    wigner-seitz radius (au A)           
   ENMAX  =  223.667; ENMIN  =  167.750 eV                                      
   RCLOC  =    2.205    cutoff for local pot                                    
   LCOR   =        T    correct aug charges                                     
   LPAW   =        T    paw PP                                                  
   EAUG   =  332.075                                                            
   DEXC   =    0.000                                                            
   RMAX   =    2.970    core radius for proj-oper                               
   RAUG   =    1.300    factor for augmentation sphere                          
   RDEP   =    3.060    radius for radial grids                                 
   RDEPT  =    2.354    core radius for aug-charge                              
                                                                                
   Atomic configuration                                                         
   16 entries                                                                   
     n  l   j            E        occ.                                          
     1  0  0.50    -67341.2807   2.0000                                         
     2  0  0.50    -11566.9376   2.0000                                         
     2  1  1.50    -10134.1182   6.0000                                         
     3  0  0.50     -2648.5620   2.0000                                         
     3  1  1.50     -2222.6012   6.0000                                         
     3  2  2.50     -1726.3120  10.0000                                         
     4  0  0.50      -538.6961   2.0000                                         
     4  1  1.50      -399.0129   6.0000                                         
     4  2  2.50      -220.3959  10.0000                                         
     4  3  3.50       -23.0374  14.0000                                         
     5  0  0.50       -71.2901   2.0000                                         
     5  1  1.50       -37.8225   6.0000                                         
     5  2  2.50        -2.6455   4.0000                                         
     6  0  0.50        -4.9623   1.0000                                         
     6  1  1.50        -1.3606   0.0000                                         
     5  3  2.50        -1.3606   0.0000                                         
   Description                                                                  
     l       E           TYP  RCUT    TYP  RCUT                                 
     2     -2.6455043     23  2.500                                             
     2     -0.6258895     23  2.500                                             
     0     -4.9622780     23  2.500                                             
     0      4.7531321     23  2.500                                             
     1     -1.3605826     23  2.900                                             
     1     27.2116520     23  2.900                                             
  local pseudopotential read in
  partial core-charges read in
  partial kinetic energy density read in
  atomic valenz-charges read in
  non local Contribution for L=           2  read in
    real space projection operators read in
  non local Contribution for L=           2  read in
    real space projection operators read in
  non local Contribution for L=           0  read in
    real space projection operators read in
  non local Contribution for L=           0  read in
    real space projection operators read in
  non local Contribution for L=           1  read in
    real space projection operators read in
  non local Contribution for L=           1  read in
    real space projection operators read in
    PAW grid and wavefunctions read in
 
   number of l-projection  operators is LMAX  =           6
   number of lm-projection operators is LMMAX =          18
 
 POTCAR:    PAW_PBE Zr_sv 04Jan2005               
   VRHFIN =Zr: 4s4p5s4d                                                         
   LEXCH  = PE                                                                  
   EATOM  =  1284.2219 eV,   94.3876 Ry                                         
                                                                                
   TITEL  = PAW_PBE Zr_sv 04Jan2005                                             
   LULTRA =        F    use ultrasoft PP ?                                      
   IUNSCR =        1    unscreen: 0-lin 1-nonlin 2-no                           
   RPACOR =    2.200    partial core radius                                     
   POMASS =   91.224; ZVAL   =   12.000    mass and valenz                      
   RCORE  =    2.500    outmost cutoff radius                                   
   RWIGS  =    3.070; RWIGS  =    1.625    wigner-seitz radius (au A)           
   ENMAX  =  229.898; ENMIN  =  172.424 eV                                      
   ICORE  =        3    local potential                                         
   LCOR   =        T    correct aug charges                                     
   LPAW   =        T    paw PP                                                  
   EAUG   =  461.257                                                            
   DEXC   =    0.000                                                            
   RMAX   =    2.561    core radius for proj-oper                               
   RAUG   =    1.300    factor for augmentation sphere                          
   RDEP   =    2.597    radius for radial grids                                 
   RDEPT  =    2.007    core radius for aug-charge                              
                                                                                
   Atomic configuration                                                         
   11 entries                                                                   
     n  l   j            E        occ.                                          
     1  0  0.50    -17820.0161   2.0000                                         
     2  0  0.50     -2467.0882   2.0000                                         
     2  1  1.50     -2199.6095   6.0000                                         
     3  0  0.50      -402.4863   2.0000                                         
     3  1  1.50      -315.3675   6.0000                                         
     3  2  2.50      -172.4472  10.0000                                         
     4  0  0.50       -52.4146   2.0000                                         
     5  0  0.50        -3.8421   1.0000                                         
     4  1  1.50       -30.5054   6.0000                                         
     4  2  2.50        -2.3341   3.0000                                         
     4  3  2.50        -1.3606   0.0000                                         
   Description                                                                  
     l       E           TYP  RCUT    TYP  RCUT                                 
     0    -52.4145962     23  2.200                                             
     0     -3.8421270     23  2.500                                             
     1    -30.5053914     23  2.200                                             
     1     20.4087390     23  2.200                                             
     2     -2.3340816     23  2.500                                             
     2     -0.6120942     23  2.500                                             
     3     -4.0817478     23  2.500                                             
  local pseudopotential read in
  partial core-charges read in
  partial kinetic energy density read in
  atomic valenz-charges read in
  non local Contribution for L=           0  read in
    real space projection operators read in
  non local Contribution for L=           0  read in
    real space projection operators read in
  non local Contribution for L=           1  read in
    real space projection operators read in
  non local Contribution for L=           1  read in
    real space projection operators read in
  non local Contribution for L=           2  read in
    real space projection operators read in
  non local Contribution for L=           2  read in
    real space projection operators read in
    PAW grid and wavefunctions read in
 
   number of l-projection  operators is LMAX  =           6
   number of lm-projection operators is LMMAX =          18
 
 Optimization of the real space projectors (new method)

 maximal supplied QI-value         = 12.47
 optimisation between [QCUT,QGAM] = [  8.86, 17.71] = [ 21.96, 87.83] Ry 
 Optimized for a Real-space Cutoff    1.90 Angstroem

   l    n(q)    QCUT    max X(q) W(low)/X(q) W(high)/X(q)  e(spline) 
   2      9     8.855    48.111    0.22E-03    0.80E-04    0.10E-05
   2      9     8.855    40.545    0.21E-03    0.76E-04    0.95E-06
   0     10     8.855   121.658    0.27E-04    0.12E-04    0.11E-06
   0     10     8.855    71.177    0.22E-04    0.11E-04    0.99E-07
   1     10     8.855    14.183    0.65E-04    0.10E-03    0.98E-07
   1     10     8.855     8.257    0.43E-04    0.73E-04    0.72E-07
 Optimization of the real space projectors (new method)

 maximal supplied QI-value         = 15.68
 optimisation between [QCUT,QGAM] = [  8.78, 17.72] = [ 21.60, 87.97] Ry 
 Optimized for a Real-space Cutoff    1.96 Angstroem

   l    n(q)    QCUT    max X(q) W(low)/X(q) W(high)/X(q)  e(spline) 
   0     10     8.783    10.201    0.29E-04    0.25E-05    0.69E-07
   0     10     8.783     8.174    0.45E-04    0.57E-05    0.14E-06
   1     10     8.783     3.488    0.76E-05    0.24E-04    0.95E-07
   1     10     8.783     4.917    0.78E-04    0.14E-03    0.46E-06
   2      9     8.783   153.744    0.22E-03    0.34E-04    0.15E-05
   2      9     8.783   126.342    0.22E-03    0.35E-04    0.15E-05
 Optimization of the real space projectors (new method)

 maximal supplied QI-value         = 12.85
 optimisation between [QCUT,QGAM] = [  8.87, 17.73] = [ 22.01, 88.06] Ry 
 Optimized for a Real-space Cutoff    1.90 Angstroem

   l    n(q)    QCUT    max X(q) W(low)/X(q) W(high)/X(q)  e(spline) 
   2      9     8.867    62.315    0.23E-03    0.62E-04    0.11E-05
   2      9     8.867    52.185    0.23E-03    0.62E-04    0.11E-05
   0     10     8.867   103.837    0.15E-04    0.23E-04    0.98E-07
   0     10     8.867    59.728    0.12E-04    0.21E-04    0.89E-07
   1     10     8.867    13.958    0.50E-04    0.22E-04    0.14E-06
   1     10     8.867     8.441    0.36E-04    0.19E-04    0.98E-07
 Optimization of the real space projectors (new method)

 maximal supplied QI-value         = 15.12
 optimisation between [QCUT,QGAM] = [  8.77, 17.69] = [ 21.53, 87.61] Ry 
 Optimized for a Real-space Cutoff    1.74 Angstroem

   l    n(q)    QCUT    max X(q) W(low)/X(q) W(high)/X(q)  e(spline) 
   0      9     8.768    12.107    0.28E-04    0.53E-06    0.29E-07
   0      9     8.768     9.948    0.36E-04    0.50E-05    0.64E-07
   1      9     8.768     3.563    0.14E-04    0.16E-04    0.88E-07
   1      9     8.768     4.524    0.21E-03    0.33E-03    0.19E-06
   2      8     8.768    87.261    0.19E-03    0.25E-03    0.24E-06
   2      8     8.768    70.950    0.19E-03    0.24E-03    0.24E-06
  PAW_PBE Hf 20Jan2003                  :
 energy of atom  1       EATOM=  -75.9011
 kinetic energy error for atom=    0.0071 (will be added to EATOM!!)
  PAW_PBE Nb_sv 25May2007               :
 energy of atom  2       EATOM=-1555.1913
 kinetic energy error for atom=    0.0655 (will be added to EATOM!!)
  PAW_PBE Ta 17Jan2003                  :
 energy of atom  3       EATOM= -130.6506
 kinetic energy error for atom=    0.0121 (will be added to EATOM!!)
  PAW_PBE Zr_sv 04Jan2005               :
 energy of atom  4       EATOM=-1284.2219
 kinetic energy error for atom=    0.0483 (will be added to EATOM!!)
 
 
 POSCAR: generated by pypospack                  
  positions in direct lattice
  No initial velocities read in
 exchange correlation table for  LEXCH =        8
   RHO(1)=    0.500       N(1)  =     2000
   RHO(2)=  100.500       N(2)  =     4000
 


--------------------------------------------------------------------------------------------------------


 ion  position               nearest neighbor table
   1  0.247  0.837  0.167-  16 2.99  10 3.00  11 3.01  31 3.04   8 3.06   7 3.07  35 3.08  21 3.12
                            17 3.28  32 3.30  36 3.34  29 3.36  19 3.44  29 3.48
   2  0.009  0.330  0.664-  13 2.90   9 2.90  22 2.93  20 2.93  23 2.98  27 3.00   3 3.04  24 3.06
                             6 3.24  14 3.27   5 3.28  12 3.36  34 3.36
   3  0.721  0.163  0.819-  16 2.87  14 2.89  25 2.89  21 2.94  30 3.00   5 3.04   2 3.04  24 3.06
                            34 3.11  27 3.27  28 3.41  22 3.48
   4  0.496  0.671  0.660-  22 2.94  18 2.95   9 2.95  17 2.95  20 2.97  13 2.97  28 3.05  32 3.10
                             8 3.21  25 3.26  14 3.37  12 3.39  35 3.41  12 3.45
   5  0.008  0.007  0.654-  23 2.90  27 2.93  17 2.96  24 2.96  18 2.98  32 3.01   3 3.04  28 3.09
                            11 3.17   2 3.28  25 3.32  21 3.52  25 3.52
   6  0.002  0.334  0.347-   9 2.84  20 2.87  23 2.88  27 2.91  19 2.93  33 2.95  36 2.98  15 3.01
                             2 3.24  31 3.39  11 3.40  26 3.41  26 3.43  34 3.60
   7  0.013  0.646  0.995-  13 2.72  19 2.88  22 2.90  32 2.94  33 2.96  28 2.99   1 3.07  29 3.15
                            34 3.22  35 3.27
   8  0.497  0.663  0.346-  17 2.83   9 2.85  18 2.89  20 2.92  19 2.94  33 2.96   1 3.06  29 3.10
                             4 3.21  31 3.35
   9  0.256  0.493  0.499-  14 2.77   6 2.84  26 2.84   8 2.85  31 2.88   2 2.90  12 2.94   4 2.95
                            19 3.27  23 3.32
  10  0.508  0.003  0.336-  18 2.79  17 2.80  15 2.82  27 2.84  23 2.85  36 2.91  29 2.96   1 3.00
                            25 3.25
  11  0.994  0.000  0.344-  18 2.82  17 2.84  15 2.90  27 2.92  23 2.93  36 2.96  29 2.96   1 3.01
                             5 3.17   6 3.40  31 3.40
  12  0.001  0.660  0.659-  22 2.81  13 2.82  20 2.93   9 2.94  28 3.01  18 3.07  32 3.09  17 3.12
                            31 3.13   2 3.36   4 3.39   4 3.45
  13  0.237  0.506  0.826-   7 2.72  12 2.82  35 2.84   2 2.90  14 2.93  34 2.95   4 2.97  30 3.03
                            22 3.28  32 3.41
  14  0.487  0.340  0.662-   9 2.77  20 2.83   3 2.89  23 2.91  13 2.93  24 2.94  22 2.96  27 2.96
                             2 3.27  26 3.29   4 3.37  30 3.45
  15  0.748  0.163  0.177-  10 2.82  21 2.83  16 2.86  11 2.90  26 2.95   6 3.01  34 3.06  30 3.06
                            27 3.28  29 3.32  36 3.41  36 3.42  33 3.45
  16  0.509  0.008  0.007-  24 2.82  15 2.86   3 2.87  29 2.92  36 2.95   1 2.99  32 3.03  28 3.04
                            21 3.29  30 3.36  21 3.55  25 3.60  35 3.64
  17  0.263  0.843  0.488-  25 2.76  10 2.80   8 2.83  11 2.84  31 2.87   4 2.95   5 2.96  12 3.12
                            18 3.27   1 3.28  23 3.30  18 3.57  32 3.63
  18  0.741  0.842  0.494-  10 2.79  25 2.81  11 2.82   8 2.89  31 2.93   4 2.95   5 2.98  12 3.07
                            17 3.27  27 3.33  29 3.35  28 3.52  17 3.57  20 3.58
  19  0.247  0.498  0.178-   7 2.88  26 2.91   6 2.93   8 2.94  35 2.96  31 2.97  30 2.98  34 3.06
                             9 3.27  33 3.36  36 3.40   1 3.44  33 3.47
  20  0.744  0.490  0.504-  14 2.83  26 2.85   6 2.87   8 2.92  12 2.93   2 2.93   4 2.97  31 2.97
                            22 3.21  27 3.28  33 3.32  18 3.58
  21  0.990  0.027  0.998-  15 2.83  24 2.89  36 2.90   3 2.94  32 3.00  28 3.01  29 3.03  34 3.09
                             1 3.12  16 3.29   5 3.52  16 3.55
  22  0.758  0.504  0.818-  12 2.81   7 2.90   2 2.93   4 2.94  14 2.96  35 2.97  34 3.01  30 3.08
                            20 3.21  13 3.28  28 3.33   3 3.48  33 3.68
  23  0.264  0.167  0.492-  26 2.81  10 2.85   6 2.88  25 2.90   5 2.90  14 2.91  11 2.93   2 2.98
                            36 3.23  27 3.23  17 3.30   9 3.32  24 3.46  27 3.60
  24  0.274  0.154  0.831-  16 2.82  25 2.87  21 2.89  14 2.94   5 2.96  30 2.97   2 3.06   3 3.06
                            34 3.09  32 3.21  23 3.46  36 3.53
  25  0.493  0.990  0.654-  17 2.76  18 2.81  24 2.87   3 2.89  23 2.90  27 2.93  32 3.02  28 3.09
                            10 3.25   4 3.26   5 3.32   5 3.52  16 3.60
  26  0.500  0.335  0.340-  23 2.81   9 2.84  20 2.85  27 2.85  19 2.91  33 2.93  36 2.95  15 2.95
                            14 3.29   6 3.41   6 3.43  30 3.46
  27  0.737  0.169  0.499-  10 2.84  26 2.85   6 2.91  11 2.92  25 2.93   5 2.93  14 2.96   2 3.00
                            23 3.23   3 3.27  20 3.28  15 3.28  18 3.33  23 3.60
  28  0.763  0.830  0.839-   7 2.99  12 3.01  21 3.01  16 3.04  35 3.04   4 3.05  25 3.09   5 3.09
                            32 3.24  22 3.33  29 3.34   3 3.41  18 3.52  32 3.59
  29  0.756  0.836  0.166-  16 2.92  11 2.96  10 2.96  21 3.03  31 3.08   8 3.10   7 3.15  35 3.15
                            15 3.32  28 3.34  18 3.35   1 3.36  33 3.41   1 3.48
  30  0.496  0.338  0.000-  24 2.97  19 2.98   3 3.00  36 3.03  13 3.03  33 3.04  15 3.06  22 3.08
                            35 3.19  16 3.36  34 3.39  14 3.45  34 3.45  26 3.46
  31  0.006  0.667  0.352-  17 2.87   9 2.88  18 2.93  19 2.97  20 2.97  33 2.98   1 3.04  29 3.08
                            12 3.13   8 3.35   6 3.39  11 3.40
  32  0.237  0.840  0.844-   7 2.94  21 3.00  35 3.00   5 3.01  25 3.02  16 3.03  12 3.09   4 3.10
                            24 3.21  28 3.24   1 3.30  13 3.41  28 3.59  17 3.63
  33  0.755  0.501  0.179-  26 2.93   6 2.95   8 2.96   7 2.96  31 2.98  35 3.02  30 3.04  34 3.07
                            20 3.32  19 3.36  29 3.41  15 3.45  19 3.47  22 3.68
  34  0.000  0.330  0.994-  13 2.95  22 3.01  36 3.03  19 3.06  15 3.06  33 3.07  24 3.09  21 3.09
                             3 3.11   7 3.22   2 3.36  30 3.39  30 3.45   6 3.60
  35  0.491  0.651  0.993-  13 2.84  19 2.96  22 2.97  32 3.00  33 3.02  28 3.04   1 3.08  29 3.15
                            30 3.19   7 3.27   4 3.41  16 3.64
  36  0.249  0.165  0.176-  21 2.90  10 2.91  16 2.95  26 2.95  11 2.96   6 2.98  30 3.03  34 3.03
                            23 3.23   1 3.34  19 3.40  15 3.41  15 3.42  24 3.53
 
  LATTYP: Found a triclinic cell.
 ALAT       =    12.2832120464
 B/A-ratio  =     0.5561405852
 C/A-ratio  =     0.8289944106
 COS(alpha) =     0.0006870589
 COS(beta)  =     0.0028694915
 COS(gamma) =     0.5570006860
  
  Lattice vectors:
  
 A1 = (   6.8363790888,  -0.0178381966, -10.2049449253)
 A2 = (   6.8311912464,  -0.0027236173,  -0.0035965715)
 A3 = (   0.0029281380, -10.1827020510,  -0.0154088896)


Analysis of symmetry for initial positions (statically):
=====================================================================
 Subroutine PRICEL returns:
 Original cell was already a primitive cell.
 

 Routine SETGRP: Setting up the symmetry group for a 
 triclinic supercell.


 Subroutine GETGRP returns: Found  1 space group operations
 (whereof  1 operations were pure point group operations)
 out of a pool of  2 trial point group operations.


The static configuration has the point symmetry C_1 .


Analysis of symmetry for dynamics (positions and initial velocities):
=====================================================================
 Subroutine PRICEL returns:
 Original cell was already a primitive cell.
 

 Routine SETGRP: Setting up the symmetry group for a 
 triclinic supercell.


 Subroutine GETGRP returns: Found  1 space group operations
 (whereof  1 operations were pure point group operations)
 out of a pool of  2 trial point group operations.


The dynamic configuration has the point symmetry C_1 .


 Subroutine INISYM returns: Found  1 space group operations
 (whereof  1 operations are pure point group operations),
 and found     1 'primitive' translations

 
 
 KPOINTS: k-points                                

Automatic generation of k-mesh.
Space group operators:
 irot       det(A)        alpha          n_x          n_y          n_z        tau_x        tau_y        tau_z
    1     1.000000     0.000000     1.000000     0.000000     0.000000     0.000000     0.000000     0.000000
 
 Subroutine IBZKPT returns following result:
 ===========================================
 
 Found     14 irreducible k-points:
 
 Following reciprocal coordinates:
            Coordinates               Weight
  0.000000  0.000000  0.000000      1.000000
  0.333333  0.000000  0.000000      2.000000
  0.000000  0.333333  0.000000      2.000000
  0.333333  0.333333  0.000000      2.000000
 -0.333333  0.333333 -0.000000      2.000000
 -0.000000 -0.000000  0.333333      2.000000
  0.333333  0.000000  0.333333      2.000000
 -0.333333  0.000000  0.333333      2.000000
 -0.000000  0.333333  0.333333      2.000000
  0.333333  0.333333  0.333333      2.000000
 -0.333333  0.333333  0.333333      2.000000
 -0.000000 -0.333333  0.333333      2.000000
  0.333333 -0.333333  0.333333      2.000000
 -0.333333 -0.333333  0.333333      2.000000
 
 Following cartesian coordinates:
            Coordinates               Weight
  0.000000  0.000000  0.000000      1.000000
  0.243409  0.000070  0.000124      2.000000
  0.000065  0.163294 -0.000242      2.000000
  0.243474  0.163364 -0.000118      2.000000
 -0.243344  0.163224 -0.000366      2.000000
  0.000086 -0.000247  0.162996      2.000000
  0.243494 -0.000177  0.163119      2.000000
 -0.243323 -0.000316  0.162872      2.000000
  0.000151  0.163047  0.162754      2.000000
  0.243559  0.163117  0.162877      2.000000
 -0.243258  0.162978  0.162630      2.000000
  0.000021 -0.163541  0.163237      2.000000
  0.243429 -0.163471  0.163361      2.000000
 -0.243388 -0.163610  0.163114      2.000000
 


--------------------------------------------------------------------------------------------------------




 Dimension of arrays:
   k-points           NKPTS =     14   k-points in BZ     NKDIM =     14   number of bands    NBANDS=    188
   number of dos      NEDOS =    301   number of ions     NIONS =     36
   non local maximal  LDIM  =      6   non local SUM 2l+1 LMDIM =     18
   total plane-waves  NPLWV = 144000
   max r-space proj   IRMAX =   6455   max aug-charges    IRDMAX=  14012
   dimension x,y,z NGX =    40 NGY =   60 NGZ =   60
   dimension x,y,z NGXF=    80 NGYF=  120 NGZF=  120
   support grid    NGXF=    80 NGYF=  120 NGZF=  120
   ions per type =               6   9  12   9
 NGX,Y,Z   is equivalent  to a cutoff of   9.73,  9.80,  9.78 a.u.
 NGXF,Y,Z  is equivalent  to a cutoff of  19.47, 19.59, 19.56 a.u.


 I would recommend the setting:
   dimension x,y,z NGX =    39 NGY =   58 NGZ =   58
 SYSTEM =  automatically generated by mexm         
 POSCAR =  generated by pypospack                  

 Startparameter for this run:
   NWRITE =      2    write-flag & timer
   PREC   = accura    normal or accurate (medium, high low for compatibility)
   ISTART =      0    job   : 0-new  1-cont  2-samecut
   ICHARG =      2    charge: 1-file 2-atom 10-const
   ISPIN  =      1    spin polarized calculation?
   LNONCOLLINEAR =      F non collinear calculations
   LSORBIT =      F    spin-orbit coupling
   INIWAV =      1    electr: 0-lowe 1-rand  2-diag
   LASPH  =      F    aspherical Exc in radial PAW
   METAGGA=      F    non-selfconsistent MetaGGA calc.

 Electronic Relaxation 1
   ENCUT  =  300.0 eV  22.05 Ry    4.70 a.u.   9.65 14.38 14.41*2*pi/ulx,y,z
   ENINI  =  300.0     initial cutoff
   ENAUG  =  461.3 eV  augmentation charge cutoff
   NELM   =     70;   NELMIN=  2; NELMDL= -5     # of ELM steps 
   EDIFF  = 0.1E-04   stopping-criterion for ELM
   LREAL  =      T    real-space projection
   NLSPLINE    = F    spline interpolate recip. space projectors
   LCOMPAT=      F    compatible to vasp.4.4
   GGA_COMPAT  = T    GGA compatible to vasp.4.4-vasp.4.6
   LMAXPAW     = -100 max onsite density
   LMAXMIX     =    2 max onsite mixed and CHGCAR
   VOSKOWN=      0    Vosko Wilk Nusair interpolation
   ROPT   =   -0.00025  -0.00025  -0.00025  -0.00025
 Ionic relaxation
   EDIFFG = -.1E-01   stopping-criterion for IOM
   NSW    =    300    number of steps for IOM
   NBLOCK =      1;   KBLOCK =    300    inner block; outer block 
   IBRION =      2    ionic relax: 0-MD 1-quasi-New 2-CG
   NFREE  =      1    steps in history (QN), initial steepest desc. (CG)
   ISIF   =      3    stress and relaxation
   IWAVPR =     11    prediction:  0-non 1-charg 2-wave 3-comb
   ISYM   =      1    0-nonsym 1-usesym 2-fastsym
   LCORR  =      T    Harris-Foulkes like correction to forces

   POTIM  = 0.1500    time-step for ionic-motion
   TEIN   =    0.0    initial temperature
   TEBEG  =    0.0;   TEEND  =   0.0 temperature during run
   SMASS  =  -3.00    Nose mass-parameter (am)
   estimated Nose-frequenzy (Omega)   =  0.10E-29 period in steps =****** mass=  -0.107E-26a.u.
   SCALEE = 1.0000    scale energy and forces
   NPACO  =    256;   APACO  = 16.0  distance and # of slots for P.C.
   PSTRESS=    0.0 pullay stress

  Mass of Ions in am
   POMASS = 178.49 92.91180.95 91.22
  Ionic Valenz
   ZVAL   =   4.00 13.00  5.00 12.00
  Atomic Wigner-Seitz radii
   RWIGS  =  -1.00 -1.00 -1.00 -1.00
  virtual crystal weights 
   VCA    =   1.00  1.00  1.00  1.00
   NELECT =     309.0000    total number of electrons
   NUPDOWN=      -1.0000    fix difference up-down

 DOS related values:
   EMIN   =  10.00;   EMAX   =-10.00  energy-range for DOS
   EFERMI =   0.00
   ISMEAR =     1;   SIGMA  =   0.15  broadening in eV -4-tet -1-fermi 0-gaus

 Electronic relaxation 2 (details)
   IALGO  =     68    algorithm
   LDIAG  =      T    sub-space diagonalisation (order eigenvalues)
   LSUBROT=      F    optimize rotation matrix (better conditioning)
   TURBO    =      0    0=normal 1=particle mesh
   IRESTART =      0    0=no restart 2=restart with 2 vectors
   NREBOOT  =      0    no. of reboots
   NMIN     =      0    reboot dimension
   EREF     =   0.00    reference energy to select bands
   IMIX   =      4    mixing-type and parameters
     AMIX     =   0.40;   BMIX     =  1.00
     AMIX_MAG =   1.60;   BMIX_MAG =  1.00
     AMIN     =   0.10
     WC   =   100.;   INIMIX=   1;  MIXPRE=   1;  MAXMIX= -45

 Intra band minimization:
   WEIMIN = 0.0010     energy-eigenvalue tresh-hold
   EBREAK =  0.13E-07  absolut break condition
   DEPER  =   0.30     relativ break condition  

   TIME   =   0.40     timestep for ELM

  volume/ion in A,a.u.               =      19.71       133.02
  Fermi-wavevector in a.u.,A,eV,Ry     =   1.240859  2.344883 20.949305  1.539730
  Thomas-Fermi vector in A             =   2.375281
 
 Write flags
   LWAVE  =      F    write WAVECAR
   LCHARG =      F    write CHGCAR
   LVTOT  =      F    write LOCPOT, total local potential
   LVHAR  =      F    write LOCPOT, Hartree potential only
   LELF   =      F    write electronic localiz. function (ELF)
   LORBIT =      0    0 simple, 1 ext, 2 COOP (PROOUT)


 Dipole corrections
   LMONO  =      F    monopole corrections only (constant potential shift)
   LDIPOL =      F    correct potential (dipole corrections)
   IDIPOL =      0    1-x, 2-y, 3-z, 4-all directions 
   EPSILON=  1.0000000 bulk dielectric constant

 Exchange correlation treatment:
   GGA     =    --    GGA type
   LEXCH   =     8    internal setting for exchange type
   VOSKOWN=      0    Vosko Wilk Nusair interpolation
   LHFCALC =     F    Hartree Fock is set to
   LHFONE  =     F    Hartree Fock one center treatment
   AEXX    =    0.0000 exact exchange contribution

 Linear response parameters
   LEPSILON=     F    determine dielectric tensor
   LRPA    =     F    only Hartree local field effects (RPA)
   LNABLA  =     F    use nabla operator in PAW spheres
   LVEL    =     F    velocity operator in full k-point grid
   LINTERFAST=   F  fast interpolation
   KINTER  =     0    interpolate to denser k-point grid
   CSHIFT  =0.1000    complex shift for real part using Kramers Kronig
   OMEGAMAX=  -1.0    maximum frequency
   DEG_THRESHOLD= 0.2000000E-02 threshold for treating states as degnerate
   RTIME   =    0.100 relaxation time in fs

 Orbital magnetization related:
   ORBITALMAG=     F  switch on orbital magnetization
   LCHIMAG   =     F  perturbation theory with respect to B field
   DQ        =  0.001000  dq finite difference perturbation B field



--------------------------------------------------------------------------------------------------------


 conjugate gradient relaxation of ions
 charge density and potential will be updated during run
 non-spin polarized calculation
 RMM-DIIS sequential band-by-band and
  variant of blocked Davidson during initial phase
 perform sub-space diagonalisation
    before iterative eigenvector-optimisation
 modified Broyden-mixing scheme, WC =      100.0
 initial mixing is a Kerker type mixing with AMIX =  0.4000 and BMIX =      1.0000
 Hartree-type preconditioning will be used
 using additional bands           33
 real space projection scheme for non local part
 use partial core corrections
 calculate Harris-corrections to forces 
   (improved forces if not selfconsistent)
 use gradient corrections 
 use of overlap-Matrix (Vanderbilt PP)
 Methfessel and Paxton  Order N= 1 SIGMA  =   0.15


--------------------------------------------------------------------------------------------------------


  energy-cutoff  :      300.00
  volume of cell :      709.60
      direct lattice vectors                 reciprocal lattice vectors
     6.831191246 -0.002723617 -0.003596572     0.146387408  0.000041983  0.000074382
    -0.002928138 10.182702051  0.015408890     0.000039078  0.098205992 -0.000145485
    -0.005187842  0.015114579 10.201348354     0.000051551 -0.000148323  0.098026503

  length of vectors
     6.831192736 10.182714131 10.201360870     0.146387433  0.098206108  0.098026629


 
 k-points in units of 2pi/SCALE and weight: k-points                                
   0.00000000  0.00000000  0.00000000       0.037
   0.24340859  0.00006981  0.00012368       0.074
   0.00006498  0.16329398 -0.00024191       0.074
   0.24347357  0.16336378 -0.00011823       0.074
  -0.24334361  0.16322417 -0.00036559       0.074
   0.00008572 -0.00024663  0.16299553       0.074
   0.24349431 -0.00017682  0.16311921       0.074
  -0.24332287 -0.00031643  0.16287185       0.074
   0.00015070  0.16304735  0.16275362       0.074
   0.24355929  0.16311716  0.16287730       0.074
  -0.24325789  0.16297754  0.16262994       0.074
   0.00002074 -0.16354060  0.16323744       0.074
   0.24342933 -0.16347080  0.16336112       0.074
  -0.24338785 -0.16361041  0.16311376       0.074
 
 k-points in reciprocal lattice and weights: k-points                                
   0.00000000  0.00000000  0.00000000       0.037
   0.33333333  0.00000000  0.00000000       0.074
   0.00000000  0.33333333  0.00000000       0.074
   0.33333333  0.33333333  0.00000000       0.074
  -0.33333333  0.33333333 -0.00000000       0.074
  -0.00000000 -0.00000000  0.33333333       0.074
   0.33333333  0.00000000  0.33333333       0.074
  -0.33333333  0.00000000  0.33333333       0.074
  -0.00000000  0.33333333  0.33333333       0.074
   0.33333333  0.33333333  0.33333333       0.074
  -0.33333333  0.33333333  0.33333333       0.074
  -0.00000000 -0.33333333  0.33333333       0.074
   0.33333333 -0.33333333  0.33333333       0.074
  -0.33333333 -0.33333333  0.33333333       0.074
 
 position of ions in fractional coordinates (direct lattice) 
   0.24727700  0.83650100  0.16662200
   0.00938300  0.32972700  0.66421800
   0.72138400  0.16313800  0.81933000
   0.49632600  0.67062800  0.66021500
   0.00817200  0.00736900  0.65419700
   0.00166600  0.33391500  0.34694100
   0.01265500  0.64603600  0.99504900
   0.49670900  0.66299600  0.34579700
   0.25593200  0.49286500  0.49885200
   0.50792800  0.00286300  0.33566400
   0.99441700  0.00045900  0.34367900
   0.00078700  0.65971400  0.65903200
   0.23747300  0.50599900  0.82645700
   0.48746800  0.33988000  0.66226600
   0.74842800  0.16265000  0.17689800
   0.50929200  0.00843100  0.00667200
   0.26264900  0.84275200  0.48776000
   0.74058000  0.84162600  0.49361900
   0.24726700  0.49837700  0.17834700
   0.74358100  0.49012300  0.50420700
   0.99015700  0.02672500  0.99845500
   0.75800400  0.50392300  0.81806400
   0.26425300  0.16699200  0.49225700
   0.27429200  0.15371800  0.83068300
   0.49290900  0.99042600  0.65434900
   0.50009600  0.33455300  0.33953700
   0.73746700  0.16855700  0.49871800
   0.76275100  0.83037900  0.83856100
   0.75613400  0.83640900  0.16577400
   0.49591900  0.33808200  0.00020800
   0.00588100  0.66669200  0.35184500
   0.23746500  0.83991100  0.84365800
   0.75484600  0.50130300  0.17867700
   0.00043600  0.33012600  0.99370300
   0.49072800  0.65140000  0.99347800
   0.24928500  0.16476700  0.17621000
 
 position of ions in cartesian coordinates  (Angst):
   1.68588268  8.51968538  1.71176927
   0.05968572  3.36752562  6.78096618
   4.92318382  1.67160470  8.35819001
   3.38510904  6.83743218  6.74363176
   0.05240905  0.08490199  6.67377565
   0.00860314  3.40539629  3.54440527
   0.07939489  6.59339738 10.16075066
   3.38937889  6.75496446  3.53602524
   1.74428930  5.02554032  5.09563705
   3.46800355  0.03284309  3.42244271
   6.79126841  0.00716001  3.50241978
   0.00002546  6.72762995  6.73317764
   1.61645432  5.16428182  8.43791855
   3.32555619  3.46957897  6.75949013
   5.11126082  1.65685180  1.80441260
   3.47901175  0.08456409  0.06636160
   1.78920743  8.58814945  4.98785091
   5.05401840  8.57547058  5.04588435
   1.68674361  5.07684668  1.82617000
   5.07549312  4.99637212  5.14846916
   6.75869375  0.28452713 10.18243790
   5.17235075  5.14159795  8.35039452
   1.80212005  1.70715031  5.02330789
   1.86898155  1.57707295  8.47546877
   3.36086088 10.09376058  6.68873068
   3.41351034  3.41042341  3.46709168
   5.03469729  1.72189504  5.08754097
   5.20371617  8.46609900  8.56450481
   5.16198683  8.51734982  1.70128697
   3.38672650  3.44124073  0.00554774
   0.03639675  6.79402797  3.59954524
   1.61533269  8.56466823  8.61853719
   5.15410256  5.10526380  1.82775598
  -0.00314343  3.37659291 10.14219577
   3.34519542  6.64669156 10.14308757
   1.70151690  1.67975765  1.79922190
 


--------------------------------------------------------------------------------------------------------


 k-point  1 :   0.0000 0.0000 0.0000  plane waves:    8421
 k-point  2 :   0.3333 0.0000 0.0000  plane waves:    8365
 k-point  3 :   0.0000 0.3333 0.0000  plane waves:    8381
 k-point  4 :   0.3333 0.3333 0.0000  plane waves:    8363
 k-point  5 :  -0.3333 0.3333-0.0000  plane waves:    8364
 k-point  6 :  -0.0000-0.0000 0.3333  plane waves:    8377
 k-point  7 :   0.3333 0.0000 0.3333  plane waves:    8366
 k-point  8 :  -0.3333 0.0000 0.3333  plane waves:    8364
 k-point  9 :  -0.0000 0.3333 0.3333  plane waves:    8358
 k-point 10 :   0.3333 0.3333 0.3333  plane waves:    8362
 k-point 11 :  -0.3333 0.3333 0.3333  plane waves:    8364
 k-point 12 :  -0.0000-0.3333 0.3333  plane waves:    8350
 k-point 13 :   0.3333-0.3333 0.3333  plane waves:    8362
 k-point 14 :  -0.3333-0.3333 0.3333  plane waves:    8361

 maximum and minimum number of plane-waves per node :      1701     1646

 maximum number of plane-waves:      8421
 maximum index in each direction: 
   IXMAX=    9   IYMAX=   14   IZMAX=   14
   IXMIN=   -9   IYMIN=  -14   IZMIN=  -14

 NGX is ok and might be reduce to  38
 NGY is ok and might be reduce to  58
 NGZ is ok and might be reduce to  58

 real space projection operators:
  total allocation   :      27774.70 KBytes
  max/ min on nodes  :       5595.33       5513.77


 parallel 3D FFT for wavefunctions:
    minimum data exchange during FFTs selected (reduces bandwidth)
 parallel 3D FFT for charge:
    minimum data exchange during FFTs selected (reduces bandwidth)


 total amount of memory used by VASP on root node    68347. kBytes
========================================================================

   base      :      30000. kBytes
   nonlr-proj:      10720. kBytes
   fftplans  :       2814. kBytes
   grid      :       5360. kBytes
   one-center:        124. kBytes
   wavefun   :      19329. kBytes
 
     INWAV:  cpu time    0.0000: real time    0.0002
 Broyden mixing: mesh for mixing (old mesh)
   NGX = 19   NGY = 29   NGZ = 29
  (NGX  = 80   NGY  =120   NGZ  =120)
  gives a total of  15979 points

 initial charge density was supplied:
 charge density of overlapping atoms calculated
 number of electron     309.0000000 magnetization 
 keeping initial charge density in first step


--------------------------------------------------------------------------------------------------------


 Maximum index for non-local projection operator         1259
 Maximum index for augmentation-charges          686 (set IRDMAX)


--------------------------------------------------------------------------------------------------------


 First call to EWALD:  gamma=   0.199
 Maximum number of real-space cells 3x 2x 2
 Maximum number of reciprocal cells 2x 3x 3

 FEWALD executed in parallel
    FEWALD:  cpu time    0.0295: real time    0.0296


----------------------------------------- Iteration    1(   1)  ---------------------------------------


    POTLOK:  cpu time    0.0479: real time    0.0761
    SETDIJ:  cpu time    0.2154: real time    0.2257
     EDDAV:  cpu time    1.1601: real time    1.1790
       DOS:  cpu time    0.0013: real time    0.0013
    --------------------------------------------
      LOOP:  cpu time    1.4294: real time    1.6960

 eigenvalue-minimisations  :  5704
 total energy-change (2. order) : 0.2048937E+04  (-0.1171611E+05)
 number of electron     309.0000000 magnetization 
 augmentation part      309.0000000 magnetization 

 Free energy of the ion-electron system (eV)
  ---------------------------------------------------
  alpha Z        PSCENC =      1678.49160449
  Ewald energy   TEWEN  =    -21445.95503142
  -Hartree energ DENC   =     -7116.68161023
  -exchange      EXHF   =         0.00000000
  -V(xc)+E(xc)   XCENC  =      -156.36128918
  PAW double counting   =     23153.31961253   -21569.01725749
  entropy T*S    EENTRO =         0.00060451
  eigenvalues    EBANDS =       -71.58013066
  atomic energy  EATOM  =     27576.72066277
  Solvation  Ediel_sol  =         0.00000000
  ---------------------------------------------------
  free energy    TOTEN  =      2048.93716531 eV

  energy without entropy =     2048.93656080  energy(sigma->0) =     2048.93696381


--------------------------------------------------------------------------------------------------------




----------------------------------------- Iteration    1(   2)  ---------------------------------------


     EDDAV:  cpu time    1.0887: real time    1.0926
       DOS:  cpu time    0.0012: real time    0.0012
    --------------------------------------------
      LOOP:  cpu time    1.0912: real time    1.1964

 eigenvalue-minimisations  :  5948
 total energy-change (2. order) :-0.2127152E+04  (-0.2050853E+04)
 number of electron     309.0000000 magnetization 
 augmentation part      309.0000000 magnetization 

 Free energy of the ion-electron system (eV)
  ---------------------------------------------------
  alpha Z        PSCENC =      1678.49160449
  Ewald energy   TEWEN  =    -21445.95503142
  -Hartree energ DENC   =     -7116.68161023
  -exchange      EXHF   =         0.00000000
  -V(xc)+E(xc)   XCENC  =      -156.36128918
  PAW double counting   =     23153.31961253   -21569.01725749
  entropy T*S    EENTRO =        -0.00519136
  eigenvalues    EBANDS =     -2198.72648080
  atomic energy  EATOM  =     27576.72066277
  Solvation  Ediel_sol  =         0.00000000
  ---------------------------------------------------
  free energy    TOTEN  =       -78.21498070 eV

  energy without entropy =      -78.20978934  energy(sigma->0) =      -78.21325025


--------------------------------------------------------------------------------------------------------




----------------------------------------- Iteration    1(   3)  ---------------------------------------


     EDDAV:  cpu time    1.5230: real time    1.5313
       DOS:  cpu time    0.0015: real time    0.0015
    --------------------------------------------
      LOOP:  cpu time    1.5248: real time    1.5572

 eigenvalue-minimisations  :  8992
 total energy-change (2. order) :-0.2698084E+03  (-0.2561640E+03)
 number of electron     309.0000000 magnetization 
 augmentation part      309.0000000 magnetization 

 Free energy of the ion-electron system (eV)
  ---------------------------------------------------
  alpha Z        PSCENC =      1678.49160449
  Ewald energy   TEWEN  =    -21445.95503142
  -Hartree energ DENC   =     -7116.68161023
  -exchange      EXHF   =         0.00000000
  -V(xc)+E(xc)   XCENC  =      -156.36128918
  PAW double counting   =     23153.31961253   -21569.01725749
  entropy T*S    EENTRO =         0.00960444
  eigenvalues    EBANDS =     -2468.54968826
  atomic energy  EATOM  =     27576.72066277
  Solvation  Ediel_sol  =         0.00000000
  ---------------------------------------------------
  free energy    TOTEN  =      -348.02339236 eV

  energy without entropy =     -348.03299680  energy(sigma->0) =     -348.02659384


--------------------------------------------------------------------------------------------------------




----------------------------------------- Iteration    1(   4)  ---------------------------------------


     EDDAV:  cpu time    1.4292: real time    1.4337
       DOS:  cpu time    0.0014: real time    0.0015
    --------------------------------------------
      LOOP:  cpu time    1.4310: real time    1.4598

 eigenvalue-minimisations  :  8656
 total energy-change (2. order) :-0.3085404E+02  (-0.2946051E+02)
 number of electron     309.0000000 magnetization 
 augmentation part      309.0000000 magnetization 

 Free energy of the ion-electron system (eV)
  ---------------------------------------------------
  alpha Z        PSCENC =      1678.49160449
  Ewald energy   TEWEN  =    -21445.95503142
  -Hartree energ DENC   =     -7116.68161023
  -exchange      EXHF   =         0.00000000
  -V(xc)+E(xc)   XCENC  =      -156.36128918
  PAW double counting   =     23153.31961253   -21569.01725749
  entropy T*S    EENTRO =         0.01772594
  eigenvalues    EBANDS =     -2499.41185114
  atomic energy  EATOM  =     27576.72066277
  Solvation  Ediel_sol  =         0.00000000
  ---------------------------------------------------
  free energy    TOTEN  =      -378.87743373 eV

  energy without entropy =     -378.89515968  energy(sigma->0) =     -378.88334238


--------------------------------------------------------------------------------------------------------




----------------------------------------- Iteration    1(   5)  ---------------------------------------


     EDDAV:  cpu time    1.4394: real time    1.4438
       DOS:  cpu time    0.0014: real time    0.0014
    CHARGE:  cpu time    0.0321: real time    0.0322
    MIXING:  cpu time    0.0014: real time    0.0014
    --------------------------------------------
      LOOP:  cpu time    1.4746: real time    1.5047

 eigenvalue-minimisations  :  8424
 total energy-change (2. order) :-0.3083255E+01  (-0.3041875E+01)
 number of electron     309.0000004 magnetization 
 augmentation part       18.0153340 magnetization 

 Broyden mixing:
  rms(total) = 0.67234E+01    rms(broyden)= 0.67229E+01
  rms(prec ) = 0.70031E+01
  weight for this iteration     100.00

 Free energy of the ion-electron system (eV)
  ---------------------------------------------------
  alpha Z        PSCENC =      1678.49160449
  Ewald energy   TEWEN  =    -21445.95503142
  -Hartree energ DENC   =     -7116.68161023
  -exchange      EXHF   =         0.00000000
  -V(xc)+E(xc)   XCENC  =      -156.36128918
  PAW double counting   =     23153.31961253   -21569.01725749
  entropy T*S    EENTRO =         0.02079082
  eigenvalues    EBANDS =     -2502.49817096
  atomic energy  EATOM  =     27576.72066277
  Solvation  Ediel_sol  =         0.00000000
  ---------------------------------------------------
  free energy    TOTEN  =      -381.96068869 eV

  energy without entropy =     -381.98147951  energy(sigma->0) =     -381.96761896


--------------------------------------------------------------------------------------------------------




----------------------------------------- Iteration    1(   6)  ---------------------------------------


    POTLOK:  cpu time    0.0307: real time    0.0308
    SETDIJ:  cpu time    0.0037: real time    0.0037
    EDDIAG:  cpu time    0.0831: real time    0.0833
  RMM-DIIS:  cpu time    0.8300: real time    0.8325
    ORTHCH:  cpu time    0.0331: real time    0.0332
       DOS:  cpu time    0.0262: real time    0.0263
    CHARGE:  cpu time    0.0506: real time    0.0507
    MIXING:  cpu time    0.0018: real time    0.0170
    --------------------------------------------
      LOOP:  cpu time    1.0596: real time    1.0973

 eigenvalue-minimisations  :  7430
 total energy-change (2. order) : 0.1024898E+02  (-0.2541347E+01)
 number of electron     309.0000004 magnetization 
 augmentation part       18.7608556 magnetization 

 Broyden mixing:
  rms(total) = 0.31889E+01    rms(broyden)= 0.31888E+01
  rms(prec ) = 0.36051E+01
  weight for this iteration     100.00

 eigenvalues of (default mixing * dielectric matrix)
  average eigenvalue GAMMA=   1.8034
  1.8034

 Free energy of the ion-electron system (eV)
  ---------------------------------------------------
  alpha Z        PSCENC =      1678.49160449
  Ewald energy   TEWEN  =    -21445.95503142
  -Hartree energ DENC   =     -6919.21857357
  -exchange      EXHF   =         0.00000000
  -V(xc)+E(xc)   XCENC  =      -161.21487265
  PAW double counting   =     28940.68203491   -27365.36835887
  entropy T*S    EENTRO =         0.01590390
  eigenvalues    EBANDS =     -2675.86507542
  atomic energy  EATOM  =     27576.72066277
  Solvation  Ediel_sol  =         0.00000000
  ---------------------------------------------------
  free energy    TOTEN  =      -371.71170587 eV

  energy without entropy =     -371.72760977  energy(sigma->0) =     -371.71700717


--------------------------------------------------------------------------------------------------------




----------------------------------------- Iteration    1(   7)  ---------------------------------------


    POTLOK:  cpu time    0.0291: real time    0.0292
    SETDIJ:  cpu time    0.0180: real time    0.0181
    EDDIAG:  cpu time    0.1242: real time    0.1248
  RMM-DIIS:  cpu time    0.9134: real time    0.9161
    ORTHCH:  cpu time    0.0373: real time    0.0374
       DOS:  cpu time    0.0774: real time    0.0777
    CHARGE:  cpu time    0.0363: real time    0.0364
    MIXING:  cpu time    0.0012: real time    0.0012
    --------------------------------------------
      LOOP:  cpu time    1.2375: real time    1.2615

 eigenvalue-minimisations  :  7866
 total energy-change (2. order) :-0.4945918E+01  (-0.3275919E+01)
 number of electron     309.0000004 magnetization 
 augmentation part       19.1754298 magnetization 

 Broyden mixing:
  rms(total) = 0.14805E+01    rms(broyden)= 0.14802E+01
  rms(prec ) = 0.43150E+01
  weight for this iteration     100.00

 eigenvalues of (default mixing * dielectric matrix)
  average eigenvalue GAMMA=   1.1329
  1.8220  0.4438

 Free energy of the ion-electron system (eV)
  ---------------------------------------------------
  alpha Z        PSCENC =      1678.49160449
  Ewald energy   TEWEN  =    -21445.95503142
  -Hartree energ DENC   =     -6869.42261003
  -exchange      EXHF   =         0.00000000
  -V(xc)+E(xc)   XCENC  =      -160.39058175
  PAW double counting   =     33982.34954340   -32399.81294080
  entropy T*S    EENTRO =         0.00732739
  eigenvalues    EBANDS =     -2738.64559816
  atomic energy  EATOM  =     27576.72066277
  Solvation  Ediel_sol  =         0.00000000
  ---------------------------------------------------
  free energy    TOTEN  =      -376.65762411 eV

  energy without entropy =     -376.66495150  energy(sigma->0) =     -376.66006658


--------------------------------------------------------------------------------------------------------




----------------------------------------- Iteration    1(   8)  ---------------------------------------


    POTLOK:  cpu time    0.0353: real time    0.0354
    SETDIJ:  cpu time    0.0167: real time    0.0168
    EDDIAG:  cpu time    0.1455: real time    0.1489
  RMM-DIIS:  cpu time    0.7851: real time    0.8431
    ORTHCH:  cpu time    0.0141: real time    0.0142
       DOS:  cpu time    0.0008: real time    0.0008
    CHARGE:  cpu time    0.0317: real time    0.0318
    MIXING:  cpu time    0.0012: real time    0.0012
    --------------------------------------------
      LOOP:  cpu time    1.0313: real time    1.1370

 eigenvalue-minimisations  :  7594
 total energy-change (2. order) : 0.9293992E+01  (-0.9056581E+00)
 number of electron     309.0000004 magnetization 
 augmentation part       18.9804298 magnetization 

 Broyden mixing:
  rms(total) = 0.48297E+00    rms(broyden)= 0.48243E+00
  rms(prec ) = 0.81662E+00
  weight for this iteration     100.00

 eigenvalues of (default mixing * dielectric matrix)
  average eigenvalue GAMMA=   1.0722
  1.8586  0.9770  0.3811

 Free energy of the ion-electron system (eV)
  ---------------------------------------------------
  alpha Z        PSCENC =      1678.49160449
  Ewald energy   TEWEN  =    -21445.95503142
  -Hartree energ DENC   =     -6835.23415270
  -exchange      EXHF   =         0.00000000
  -V(xc)+E(xc)   XCENC  =      -160.37865342
  PAW double counting   =     35476.34167624   -33891.26586775
  entropy T*S    EENTRO =         0.00975669
  eigenvalues    EBANDS =     -2766.09362682
  atomic energy  EATOM  =     27576.72066277
  Solvation  Ediel_sol  =         0.00000000
  ---------------------------------------------------
  free energy    TOTEN  =      -367.36363193 eV

  energy without entropy =     -367.37338862  energy(sigma->0) =     -367.36688416


--------------------------------------------------------------------------------------------------------




----------------------------------------- Iteration    1(   9)  ---------------------------------------


    POTLOK:  cpu time    0.0286: real time    0.0308
    SETDIJ:  cpu time    0.0036: real time    0.0038
    EDDIAG:  cpu time    0.0821: real time    0.1361
  RMM-DIIS:  cpu time    0.8381: real time    0.8495
    ORTHCH:  cpu time    0.0130: real time    0.0130
       DOS:  cpu time    0.0028: real time    0.0028
    CHARGE:  cpu time    0.0534: real time    0.0535
    MIXING:  cpu time    0.0013: real time    0.0013
    --------------------------------------------
      LOOP:  cpu time    1.0234: real time    1.1133

 eigenvalue-minimisations  :  7983
 total energy-change (2. order) : 0.4150919E+00  (-0.2808390E+00)
 number of electron     309.0000004 magnetization 
 augmentation part       18.8422255 magnetization 

 Broyden mixing:
  rms(total) = 0.31754E+00    rms(broyden)= 0.31740E+00
  rms(prec ) = 0.43361E+00
  weight for this iteration     100.00

 eigenvalues of (default mixing * dielectric matrix)
  average eigenvalue GAMMA=   1.0833
  1.8473  1.6506  0.4489  0.3865

 Free energy of the ion-electron system (eV)
  ---------------------------------------------------
  alpha Z        PSCENC =      1678.49160449
  Ewald energy   TEWEN  =    -21445.95503142
  -Hartree energ DENC   =     -6831.23331181
  -exchange      EXHF   =         0.00000000
  -V(xc)+E(xc)   XCENC  =      -160.19338019
  PAW double counting   =     35747.57778932   -34158.80151825
  entropy T*S    EENTRO =         0.00686453
  eigenvalues    EBANDS =     -2773.56221951
  atomic energy  EATOM  =     27576.72066277
  Solvation  Ediel_sol  =         0.00000000
  ---------------------------------------------------
  free energy    TOTEN  =      -366.94854008 eV

  energy without entropy =     -366.95540461  energy(sigma->0) =     -366.95082826


--------------------------------------------------------------------------------------------------------




----------------------------------------- Iteration    1(  10)  ---------------------------------------


    POTLOK:  cpu time    0.0282: real time    0.0284
    SETDIJ:  cpu time    0.0037: real time    0.0037
    EDDIAG:  cpu time    0.0814: real time    0.0817
  RMM-DIIS:  cpu time    0.8173: real time    0.8832
    ORTHCH:  cpu time    0.0133: real time    0.0134
       DOS:  cpu time    0.0015: real time    0.0016
    CHARGE:  cpu time    0.0828: real time    0.0860
    MIXING:  cpu time    0.0013: real time    0.0160
    --------------------------------------------
      LOOP:  cpu time    1.0301: real time    1.1393

 eigenvalue-minimisations  :  8036
 total energy-change (2. order) : 0.9881596E-02  (-0.6633404E-01)
 number of electron     309.0000004 magnetization 
 augmentation part       18.7217609 magnetization 

 Broyden mixing:
  rms(total) = 0.18689E+00    rms(broyden)= 0.18683E+00
  rms(prec ) = 0.33444E+00
  weight for this iteration     100.00

 eigenvalues of (default mixing * dielectric matrix)
  average eigenvalue GAMMA=   1.0791
  2.0356  1.8556  0.6683  0.3916  0.4444

 Free energy of the ion-electron system (eV)
  ---------------------------------------------------
  alpha Z        PSCENC =      1678.49160449
  Ewald energy   TEWEN  =    -21445.95503142
  -Hartree energ DENC   =     -6839.32050396
  -exchange      EXHF   =         0.00000000
  -V(xc)+E(xc)   XCENC  =      -159.42069156
  PAW double counting   =     36029.34939395   -34433.63239476
  entropy T*S    EENTRO =         0.00908539
  eigenvalues    EBANDS =     -2773.18078337
  atomic energy  EATOM  =     27576.72066277
  Solvation  Ediel_sol  =         0.00000000
  ---------------------------------------------------
  free energy    TOTEN  =      -366.93865848 eV

  energy without entropy =     -366.94774387  energy(sigma->0) =     -366.94168694


--------------------------------------------------------------------------------------------------------




----------------------------------------- Iteration    1(  11)  ---------------------------------------


    POTLOK:  cpu time    0.0279: real time    0.0290
    SETDIJ:  cpu time    0.0321: real time    0.0340
    EDDIAG:  cpu time    0.1133: real time    0.1233
  RMM-DIIS:  cpu time    0.8491: real time    0.8528
    ORTHCH:  cpu time    0.0131: real time    0.0131
       DOS:  cpu time    0.0011: real time    0.0011
    CHARGE:  cpu time    0.0310: real time    0.0311
    MIXING:  cpu time    0.0014: real time    0.0014
    --------------------------------------------
      LOOP:  cpu time    1.0696: real time    1.1221

 eigenvalue-minimisations  :  7840
 total energy-change (2. order) : 0.3652204E-01  (-0.2015832E-01)
 number of electron     309.0000004 magnetization 
 augmentation part       18.6704319 magnetization 

 Broyden mixing:
  rms(total) = 0.93709E-01    rms(broyden)= 0.93643E-01
  rms(prec ) = 0.20846E+00
  weight for this iteration     100.00

 eigenvalues of (default mixing * dielectric matrix)
  average eigenvalue GAMMA=   1.0340
  2.1855  1.8166  0.9436  0.4894  0.3736  0.3955

 Free energy of the ion-electron system (eV)
  ---------------------------------------------------
  alpha Z        PSCENC =      1678.49160449
  Ewald energy   TEWEN  =    -21445.95503142
  -Hartree energ DENC   =     -6850.40832994
  -exchange      EXHF   =         0.00000000
  -V(xc)+E(xc)   XCENC  =      -158.71597635
  PAW double counting   =     36235.36738985   -34634.50275368
  entropy T*S    EENTRO =         0.00678691
  eigenvalues    EBANDS =     -2767.90648907
  atomic energy  EATOM  =     27576.72066277
  Solvation  Ediel_sol  =         0.00000000
  ---------------------------------------------------
  free energy    TOTEN  =      -366.90213644 eV

  energy without entropy =     -366.90892335  energy(sigma->0) =     -366.90439875


--------------------------------------------------------------------------------------------------------




----------------------------------------- Iteration    1(  12)  ---------------------------------------


    POTLOK:  cpu time    0.0289: real time    0.0290
    SETDIJ:  cpu time    0.0296: real time    0.0297
    EDDIAG:  cpu time    0.0928: real time    0.0930
  RMM-DIIS:  cpu time    0.8539: real time    0.8583
    ORTHCH:  cpu time    0.0131: real time    0.0131
       DOS:  cpu time    0.0011: real time    0.0011
    CHARGE:  cpu time    0.0333: real time    0.0334
    MIXING:  cpu time    0.0014: real time    0.0014
    --------------------------------------------
      LOOP:  cpu time    1.0547: real time    1.0953

 eigenvalue-minimisations  :  8033
 total energy-change (2. order) : 0.1306354E-01  (-0.8751395E-02)
 number of electron     309.0000004 magnetization 
 augmentation part       18.6587950 magnetization 

 Broyden mixing:
  rms(total) = 0.48841E-01    rms(broyden)= 0.48812E-01
  rms(prec ) = 0.84355E-01
  weight for this iteration     100.00

 eigenvalues of (default mixing * dielectric matrix)
  average eigenvalue GAMMA=   0.9974
  2.2015  1.7943  1.2197  0.5625  0.4955  0.3798  0.3287

 Free energy of the ion-electron system (eV)
  ---------------------------------------------------
  alpha Z        PSCENC =      1678.49160449
  Ewald energy   TEWEN  =    -21445.95503142
  -Hartree energ DENC   =     -6855.56832899
  -exchange      EXHF   =         0.00000000
  -V(xc)+E(xc)   XCENC  =      -158.38291823
  PAW double counting   =     36375.37695845   -34771.68759554
  entropy T*S    EENTRO =         0.00951176
  eigenvalues    EBANDS =     -2765.89393618
  atomic energy  EATOM  =     27576.72066277
  Solvation  Ediel_sol  =         0.00000000
  ---------------------------------------------------
  free energy    TOTEN  =      -366.88907290 eV

  energy without entropy =     -366.89858466  energy(sigma->0) =     -366.89224349


--------------------------------------------------------------------------------------------------------




----------------------------------------- Iteration    1(  13)  ---------------------------------------


    POTLOK:  cpu time    0.0286: real time    0.0287
    SETDIJ:  cpu time    0.0037: real time    0.0037
    EDDIAG:  cpu time    0.0801: real time    0.0805
  RMM-DIIS:  cpu time    0.8328: real time    0.8356
    ORTHCH:  cpu time    0.0132: real time    0.0132
       DOS:  cpu time    0.0034: real time    0.0034
    CHARGE:  cpu time    0.0312: real time    0.0313
    MIXING:  cpu time    0.0015: real time    0.0015
    --------------------------------------------
      LOOP:  cpu time    0.9950: real time    1.0281

 eigenvalue-minimisations  :  7951
 total energy-change (2. order) : 0.3097261E-02  (-0.2104561E-02)
 number of electron     309.0000004 magnetization 
 augmentation part       18.6594813 magnetization 

 Broyden mixing:
  rms(total) = 0.26995E-01    rms(broyden)= 0.26984E-01
  rms(prec ) = 0.43947E-01
  weight for this iteration     100.00

 eigenvalues of (default mixing * dielectric matrix)
  average eigenvalue GAMMA=   1.0260
  2.3039  1.8878  1.4079  0.8987  0.5537  0.4411  0.3864  0.3285

 Free energy of the ion-electron system (eV)
  ---------------------------------------------------
  alpha Z        PSCENC =      1678.49160449
  Ewald energy   TEWEN  =    -21445.95503142
  -Hartree energ DENC   =     -6855.41264527
  -exchange      EXHF   =         0.00000000
  -V(xc)+E(xc)   XCENC  =      -158.39547564
  PAW double counting   =     36444.70807821   -34840.15161337
  entropy T*S    EENTRO =         0.00835695
  eigenvalues    EBANDS =     -2766.89991234
  atomic energy  EATOM  =     27576.72066277
  Solvation  Ediel_sol  =         0.00000000
  ---------------------------------------------------
  free energy    TOTEN  =      -366.88597564 eV

  energy without entropy =     -366.89433259  energy(sigma->0) =     -366.88876129


--------------------------------------------------------------------------------------------------------




----------------------------------------- Iteration    1(  14)  ---------------------------------------


    POTLOK:  cpu time    0.0291: real time    0.0293
    SETDIJ:  cpu time    0.0037: real time    0.0037
    EDDIAG:  cpu time    0.0854: real time    0.0859
  RMM-DIIS:  cpu time    0.8617: real time    0.8655
    ORTHCH:  cpu time    0.0131: real time    0.0132
       DOS:  cpu time    0.0032: real time    0.0032
    CHARGE:  cpu time    0.0320: real time    0.0320
    MIXING:  cpu time    0.0016: real time    0.0016
    --------------------------------------------
      LOOP:  cpu time    1.0304: real time    1.0534

 eigenvalue-minimisations  :  8276
 total energy-change (2. order) : 0.1465980E-03  (-0.7215818E-03)
 number of electron     309.0000004 magnetization 
 augmentation part       18.6590717 magnetization 

 Broyden mixing:
  rms(total) = 0.18657E-01    rms(broyden)= 0.18653E-01
  rms(prec ) = 0.32893E-01
  weight for this iteration     100.00

 eigenvalues of (default mixing * dielectric matrix)
  average eigenvalue GAMMA=   1.0319
  2.4637  2.0211  1.4596  1.1493  0.5399  0.5399  0.3940  0.3940  0.3252

 Free energy of the ion-electron system (eV)
  ---------------------------------------------------
  alpha Z        PSCENC =      1678.49160449
  Ewald energy   TEWEN  =    -21445.95503142
  -Hartree energ DENC   =     -6855.15694421
  -exchange      EXHF   =         0.00000000
  -V(xc)+E(xc)   XCENC  =      -158.39956767
  PAW double counting   =     36479.02563110   -34873.89589098
  entropy T*S    EENTRO =         0.00891698
  eigenvalues    EBANDS =     -2767.72521008
  atomic energy  EATOM  =     27576.72066277
  Solvation  Ediel_sol  =         0.00000000
  ---------------------------------------------------
  free energy    TOTEN  =      -366.88582904 eV

  energy without entropy =     -366.89474602  energy(sigma->0) =     -366.88880137


--------------------------------------------------------------------------------------------------------




----------------------------------------- Iteration    1(  15)  ---------------------------------------


    POTLOK:  cpu time    0.0289: real time    0.0291
    SETDIJ:  cpu time    0.0037: real time    0.0037
    EDDIAG:  cpu time    0.0862: real time    0.0867
  RMM-DIIS:  cpu time    0.8657: real time    0.8700
    ORTHCH:  cpu time    0.0137: real time    0.0137
       DOS:  cpu time    0.0094: real time    0.0094
    CHARGE:  cpu time    0.0578: real time    0.0579
    MIXING:  cpu time    0.0020: real time    0.0020
    --------------------------------------------
      LOOP:  cpu time    1.0680: real time    1.0975

 eigenvalue-minimisations  :  8084
 total energy-change (2. order) : 0.1206526E-03  (-0.3232728E-03)
 number of electron     309.0000004 magnetization 
 augmentation part       18.6573017 magnetization 

 Broyden mixing:
  rms(total) = 0.93126E-02    rms(broyden)= 0.93087E-02
  rms(prec ) = 0.15158E-01
  weight for this iteration     100.00

 eigenvalues of (default mixing * dielectric matrix)
  average eigenvalue GAMMA=   1.0122
  2.5326  2.0421  1.5265  1.2367  0.6417  0.6417  0.4090  0.4090  0.3600  0.3225

 Free energy of the ion-electron system (eV)
  ---------------------------------------------------
  alpha Z        PSCENC =      1678.49160449
  Ewald energy   TEWEN  =    -21445.95503142
  -Hartree energ DENC   =     -6855.88399860
  -exchange      EXHF   =         0.00000000
  -V(xc)+E(xc)   XCENC  =      -158.37668328
  PAW double counting   =     36506.19197196   -34900.53310037
  entropy T*S    EENTRO =         0.00874435
  eigenvalues    EBANDS =     -2767.54987829
  atomic energy  EATOM  =     27576.72066277
  Solvation  Ediel_sol  =         0.00000000
  ---------------------------------------------------
  free energy    TOTEN  =      -366.88570839 eV

  energy without entropy =     -366.89445274  energy(sigma->0) =     -366.88862317


--------------------------------------------------------------------------------------------------------




----------------------------------------- Iteration    1(  16)  ---------------------------------------


    POTLOK:  cpu time    0.0295: real time    0.0299
    SETDIJ:  cpu time    0.0052: real time    0.0052
    EDDIAG:  cpu time    0.1171: real time    0.1183
  RMM-DIIS:  cpu time    0.9264: real time    0.9294
    ORTHCH:  cpu time    0.0135: real time    0.0136
       DOS:  cpu time    0.0014: real time    0.0014
    CHARGE:  cpu time    0.0326: real time    0.0327
    MIXING:  cpu time    0.0017: real time    0.0017
    --------------------------------------------
      LOOP:  cpu time    1.1280: real time    1.1585

 eigenvalue-minimisations  :  7864
 total energy-change (2. order) :-0.3671205E-04  (-0.1531143E-03)
 number of electron     309.0000004 magnetization 
 augmentation part       18.6576440 magnetization 

 Broyden mixing:
  rms(total) = 0.49829E-02    rms(broyden)= 0.49804E-02
  rms(prec ) = 0.89037E-02
  weight for this iteration     100.00

 eigenvalues of (default mixing * dielectric matrix)
  average eigenvalue GAMMA=   1.0056
  2.6009  2.0532  1.4766  1.4766  0.7303  0.7303  0.4706  0.4706  0.3763  0.3236
  0.3530

 Free energy of the ion-electron system (eV)
  ---------------------------------------------------
  alpha Z        PSCENC =      1678.49160449
  Ewald energy   TEWEN  =    -21445.95503142
  -Hartree energ DENC   =     -6856.02349135
  -exchange      EXHF   =         0.00000000
  -V(xc)+E(xc)   XCENC  =      -158.37418083
[...]
     98       5.3597      2.00000
     99       5.4080      2.00000
    100       5.4440      2.00000
    101       5.4872      2.00000
    102       5.5296      2.00000
    103       5.5637      2.00000
    104       5.5961      2.00000
    105       5.6450      2.00000
    106       5.6857      2.00000
    107       5.7911      2.00000
    108       5.8229      2.00000
    109       5.8984      2.00000
    110       5.9450      2.00000
    111       5.9834      2.00000
    112       6.0408      2.00000
    113       6.0949      2.00000
    114       6.2573      2.00000
    115       6.3271      2.00000
    116       6.3887      2.00000
    117       6.4062      2.00000
    118       6.4392      2.00000
    119       6.4701      2.00000
    120       6.4963      2.00000
    121       6.5259      2.00000
    122       6.5653      2.00000
    123       6.5872      2.00000
    124       6.6172      2.00000
    125       6.6587      2.00000
    126       6.6972      2.00000
    127       6.7202      2.00000
    128       6.7452      2.00000
    129       6.7936      2.00000
    130       6.8303      2.00000
    131       6.8718      2.00000
    132       6.9106      2.00000
    133       6.9295      2.00000
    134       6.9775      2.00000
    135       7.0115      2.00000
    136       7.0809      2.00000
    137       7.1229      2.00000
    138       7.1638      2.00000
    139       7.2127      2.00000
    140       7.2315      2.00000
    141       7.2964      2.00001
    142       7.3315      2.00004
    143       7.3787      2.00023
    144       7.4059      2.00059
    145       7.4311      2.00136
    146       7.4678      2.00404
    147       7.4944      2.00812
    148       7.5491      2.02666
    149       7.5845      2.04673
    150       7.6127      2.06313
    151       7.6457      2.07041
    152       7.6695      2.05534
    153       7.6972      2.00004
    154       7.7495      1.73269
    155       7.7670      1.59041
    156       7.8043      1.21549
    157       7.8278      0.95191
    158       7.8517      0.68859
    159       7.8956      0.28143
    160       7.9342      0.05507
    161       7.9962     -0.06908
    162       8.0159     -0.06997
    163       8.0574     -0.04993
    164       8.1071     -0.02242
    165       8.1182     -0.01792
    166       8.1682     -0.00545
    167       8.2142     -0.00143
    168       8.2315     -0.00082
    169       8.2869     -0.00011
    170       8.3152     -0.00004
    171       8.3628     -0.00000
    172       8.3957     -0.00000
    173       8.4569     -0.00000
    174       8.4964     -0.00000
    175       8.6536     -0.00000
    176       8.7264     -0.00000
    177       8.9000     -0.00000
    178       8.9955     -0.00000
    179       9.1092     -0.00000
    180       9.6480     -0.00000
    181       9.7390     -0.00000
    182       9.7663     -0.00000
    183       9.8574     -0.00000
    184       9.9201     -0.00000
    185       9.9765     -0.00000
    186      10.0077     -0.00000
    187      10.1317     -0.00000
    188      10.2019     -0.00000


--------------------------------------------------------------------------------------------------------


 soft charge-density along one line, spin component           1
         0         1         2         3         4         5         6         7         8         9
 total charge-density along one line
 
 pseudopotential strength for first ion, spin component:           1
 -5.044   0.001  -0.001  -0.000   0.000  -6.290   0.001  -0.001
  0.001  -5.038   0.000   0.001  -0.000   0.001  -6.282   0.000
 -0.001   0.000  -5.040  -0.001   0.002  -0.001   0.000  -6.283
 -0.000   0.001  -0.001  -5.044  -0.002  -0.001   0.001  -0.001
  0.000  -0.000   0.002  -0.002  -5.042   0.000  -0.000   0.003
 -6.290   0.001  -0.001  -0.001   0.000  -7.823   0.001  -0.002
  0.001  -6.282   0.000   0.001  -0.000   0.001  -7.813   0.000
 -0.001   0.000  -6.283  -0.001   0.003  -0.002   0.000  -7.814
 -0.001   0.001  -0.001  -6.290  -0.002  -0.001   0.001  -0.002
  0.000  -0.000   0.003  -0.002  -6.287   0.000  -0.000   0.004
 -0.001   0.000  -0.001   0.001   0.003  -0.001   0.000  -0.002
 -0.002   0.000  -0.002   0.001   0.004  -0.002   0.000  -0.003
 -0.000   0.001   0.002   0.002   0.001  -0.000   0.002   0.003
  0.002  -0.006  -0.004  -0.001  -0.001   0.003  -0.008  -0.005
 -0.009   0.002   0.000  -0.001  -0.002  -0.011   0.003   0.001
 -0.000  -0.003  -0.003  -0.004  -0.000  -0.000  -0.004  -0.003
 -0.004   0.009   0.004   0.001   0.002  -0.005   0.011   0.005
  0.013  -0.004  -0.000   0.001   0.002   0.016  -0.005  -0.000
 total augmentation occupancy for first ion, spin component:           1
  3.556   0.093  -0.093  -0.047   0.006  -1.840  -0.048   0.049   0.026  -0.004   0.058  -0.014   0.014  -0.043   0.116   0.000
  0.093   3.832   0.038   0.057  -0.018  -0.048  -1.987  -0.021  -0.028   0.009  -0.006   0.003  -0.018   0.029  -0.050  -0.001
 -0.093   0.038   3.936  -0.089   0.067   0.049  -0.021  -2.078   0.039  -0.048   0.095  -0.028  -0.032   0.056   0.008  -0.001
 -0.047   0.057  -0.089   3.558  -0.171   0.026  -0.028   0.040  -1.841   0.084  -0.060   0.006  -0.033   0.043   0.042  -0.001
  0.006  -0.018   0.067  -0.171   3.824  -0.004   0.009  -0.047   0.084  -2.004  -0.139   0.047   0.042   0.028   0.025   0.000
 -1.840  -0.048   0.049   0.026  -0.004   0.963   0.024  -0.026  -0.014   0.002  -0.033   0.007  -0.006   0.020  -0.058  -0.000
 -0.048  -1.987  -0.021  -0.028   0.009   0.024   1.042   0.012   0.014  -0.005   0.005  -0.002   0.009  -0.016   0.023   0.000
  0.049  -0.021  -2.078   0.040  -0.047  -0.026   0.012   1.106  -0.018   0.032  -0.055   0.015   0.013  -0.034  -0.003   0.001
  0.026  -0.028   0.039  -1.841   0.084  -0.014   0.014  -0.018   0.963  -0.041   0.028  -0.003   0.016  -0.020  -0.019   0.001
 -0.004   0.009  -0.048   0.084  -2.004   0.002  -0.005   0.032  -0.041   1.058   0.080  -0.025  -0.024  -0.013  -0.013  -0.000
  0.058  -0.006   0.095  -0.060  -0.139  -0.033   0.005  -0.055   0.028   0.080   2.344  -0.297   0.006   0.009   0.001   0.002
 -0.014   0.003  -0.028   0.006   0.047   0.007  -0.002   0.015  -0.003  -0.025  -0.297   0.040   0.002   0.000   0.001  -0.000
  0.014  -0.018  -0.032  -0.033   0.042  -0.006   0.009   0.013   0.016  -0.024   0.006   0.002   0.303  -0.000  -0.002   0.005
 -0.043   0.029   0.056   0.043   0.028   0.020  -0.016  -0.034  -0.020  -0.013   0.009   0.000  -0.000   0.302   0.004  -0.000
  0.116  -0.050   0.008   0.042   0.025  -0.058   0.023  -0.003  -0.019  -0.013   0.001   0.001  -0.002   0.004   0.273  -0.000
  0.000  -0.001  -0.001  -0.001   0.000  -0.000   0.000   0.001   0.001  -0.000   0.002  -0.000   0.005  -0.000  -0.000   0.000
 -0.001   0.004   0.003   0.001   0.001   0.001  -0.002  -0.002  -0.001  -0.000   0.000  -0.000  -0.000   0.005   0.000  -0.000
  0.006  -0.002  -0.001   0.001   0.002  -0.003   0.001   0.000  -0.000  -0.001   0.000  -0.000  -0.000   0.000   0.005  -0.000


------------------------ aborting loop because EDIFF is reached ----------------------------------------


    CHARGE:  cpu time    0.0302: real time    0.0303
    FORLOC:  cpu time    0.0133: real time    0.0133
    FORNL :  cpu time    0.3242: real time    0.3252
    STRESS:  cpu time    1.0375: real time    1.0449
    FORCOR:  cpu time    0.0431: real time    0.0432
    FORHAR:  cpu time    0.0185: real time    0.0186
    MIXING:  cpu time    0.0013: real time    0.0013
    OFIELD:  cpu time    0.0000: real time    0.0000

  FORCE on cell =-STRESS in cart. coord.  units (eV):
  Direction    XX          YY          ZZ          XY          YZ          ZX
  --------------------------------------------------------------------------------------
  Alpha Z  1668.88061  1668.88061  1668.88061
  Ewald   -6320.77304 -7557.80324 -7507.46943  -367.56927  -585.69741  -140.98415
  Hartree  3060.69454  1891.82053  1938.14277  -321.40348  -493.02527  -126.46504
  E(xc)   -1356.11136 -1356.18674 -1356.33566    -0.23874    -0.27229    -0.12972
  Local   -2244.41042   159.28155    63.23830   688.85575  1078.32626   266.10220
  n-local  -330.64071  -333.46851  -329.99201    -1.68102     1.39910    -1.01192
  augment   230.35215   230.68410   230.14288     0.24538    -0.24208     0.38051
  Kinetic  5292.08819  5296.88294  5293.44924     1.78827    -0.48629     2.09770
  Fock        0.00000     0.00000     0.00000     0.00000     0.00000     0.00000
  -------------------------------------------------------------------------------------
  Total       0.07995     0.09123     0.05669    -0.00312     0.00202    -0.01042
  in kB       0.17949     0.20479     0.12726    -0.00700     0.00454    -0.02339
  external pressure =        0.17 kB  Pullay stress =        0.00 kB


 VOLUME and BASIS-vectors are now :
 -----------------------------------------------------------------------------
  energy-cutoff  :      300.00
  volume of cell :      713.69
      direct lattice vectors                 reciprocal lattice vectors
     6.880345432 -0.012907416 -0.009217610     0.145342284  0.000257834  0.000194210
    -0.018071211 10.174598618  0.016239235     0.000184174  0.098284548 -0.000153860
    -0.013651128  0.015985315 10.194961868     0.000131116 -0.000156321  0.098088085

  length of vectors
     6.880363713 10.174627626 10.194983539     0.145342642  0.098284841  0.098088297


 FORCES acting on ions
    electron-ion (+dipol)            ewald-force                    non-local-force                 convergence-correction
 -----------------------------------------------------------------------------------------------
   0.116E+01 -.383E+02 0.184E+02   -.946E+00 0.388E+02 -.182E+02   -.212E+00 -.503E+00 -.222E+00   -.185E-02 -.369E-02 0.104E-01
   0.542E+02 0.122E+03 0.244E+02   -.540E+02 -.121E+03 -.248E+02   -.189E+00 -.172E+00 0.383E+00   -.522E-02 -.124E-01 -.666E-02
   -.337E+02 0.500E+02 0.735E+02   0.329E+02 -.506E+02 -.736E+02   0.758E+00 0.551E+00 0.118E+00   0.596E-03 0.634E-03 -.986E-02
   -.405E+02 -.586E+02 0.235E+02   0.405E+02 0.583E+02 -.239E+02   -.343E-01 0.273E+00 0.337E+00   0.473E-02 0.542E-02 -.939E-02
   0.835E+01 -.725E+02 -.125E+02   -.810E+01 0.730E+02 0.117E+02   -.247E+00 -.434E+00 0.755E+00   -.750E-03 0.643E-02 -.861E-02
   0.708E+01 0.311E+02 -.691E+02   -.710E+01 -.308E+02 0.698E+02   0.193E-01 -.327E+00 -.717E+00   -.248E-02 -.130E-02 0.903E-03
   0.187E+02 -.923E+02 -.670E+02   -.180E+02 0.911E+02 0.667E+02   -.723E+00 0.125E+01 0.255E+00   -.138E-01 -.172E-01 0.448E-01
   0.102E+02 -.495E+02 -.135E+03   -.108E+02 0.491E+02 0.137E+03   0.549E+00 0.358E+00 -.102E+01   0.762E-02 -.245E-02 -.628E-02
   0.526E+02 0.207E+03 0.217E+02   -.516E+02 -.207E+03 -.218E+02   -.959E+00 0.411E+00 0.143E+00   0.335E-02 -.171E-01 -.414E-01
   0.909E+02 -.408E+02 -.267E+03   -.905E+02 0.409E+02 0.268E+03   -.380E+00 -.950E-01 -.969E+00   -.505E-03 0.744E-02 0.396E-01
   -.875E+02 -.950E+02 -.289E+03   0.872E+02 0.950E+02 0.291E+03   0.304E+00 0.705E-01 -.127E+01   -.319E-02 0.975E-02 0.337E-01
   0.140E+03 -.121E+03 0.139E+03   -.140E+03 0.120E+03 -.139E+03   0.205E+00 0.109E+01 0.244E+00   -.179E-01 0.209E-01 -.315E-01
   -.377E+02 0.194E+03 0.166E+03   0.370E+02 -.194E+03 -.166E+03   0.615E+00 -.651E+00 0.423E+00   -.569E-03 -.232E-01 0.151E-01
   -.160E+03 0.318E+03 0.310E+02   0.159E+03 -.318E+03 -.315E+02   0.194E+00 -.561E+00 0.537E+00   0.253E-01 -.422E-01 -.235E-01
   -.457E+02 -.887E+02 0.324E+02   0.452E+02 0.875E+02 -.326E+02   0.448E+00 0.114E+01 0.119E+00   0.157E-02 0.184E-01 0.291E-01
   0.257E+02 -.236E+02 0.112E+03   -.256E+02 0.243E+02 -.112E+03   -.123E+00 -.655E+00 -.175E+00   0.905E-04 0.469E-02 -.157E-02
   -.450E+01 -.785E+02 -.105E+03   0.519E+01 0.791E+02 0.105E+03   -.694E+00 -.633E+00 0.410E+00   0.215E-02 0.104E-01 -.560E-02
   0.613E+01 -.542E+02 -.132E+03   -.679E+01 0.549E+02 0.132E+03   0.656E+00 -.676E+00 0.306E+00   -.164E-02 0.876E-02 -.569E-02
   0.152E+02 0.613E+02 -.583E+02   -.149E+02 -.611E+02 0.588E+02   -.328E+00 -.237E+00 -.480E+00   -.964E-03 -.255E-04 0.839E-02
   -.302E+02 0.809E+02 -.263E+02   0.296E+02 -.811E+02 0.264E+02   0.563E+00 0.231E+00 -.362E-01   -.144E-02 -.683E-02 -.115E-01
   -.219E+02 -.211E+02 0.113E+03   0.216E+02 0.218E+02 -.113E+03   0.344E+00 -.688E+00 0.196E+00   0.282E-03 0.365E-02 -.131E-02
   0.200E+02 0.751E+02 0.840E+02   -.197E+02 -.749E+02 -.845E+02   -.347E+00 -.192E+00 0.527E+00   -.178E-03 -.900E-02 0.215E-02
   0.484E+02 0.642E+01 -.975E+02   -.474E+02 -.664E+01 0.971E+02   -.999E+00 0.223E+00 0.457E+00   0.175E-02 -.588E-02 0.862E-03
   0.322E+02 0.714E+02 0.855E+02   -.314E+02 -.721E+02 -.853E+02   -.837E+00 0.756E+00 -.176E+00   -.689E-03 -.737E-03 -.119E-01
   -.972E+01 -.530E+02 -.173E+02   0.949E+01 0.529E+02 0.164E+02   0.223E+00 0.603E-01 0.910E+00   0.429E-03 0.947E-02 -.128E-01
   -.880E+01 0.362E+02 -.651E+02   0.876E+01 -.362E+02 0.655E+02   0.434E-01 -.751E-01 -.482E+00   0.340E-02 -.794E-03 0.229E-02
   -.520E+02 -.229E+02 -.116E+03   0.510E+02 0.227E+02 0.116E+03   0.104E+01 0.191E+00 -.407E-01   -.971E-03 -.327E-02 0.130E-02
   0.931E+02 -.317E+03 0.212E+03   -.926E+02 0.317E+03 -.212E+03   -.468E+00 -.419E+00 -.107E+00   0.439E-02 0.152E-01 -.138E-01
   -.132E+02 -.986E+02 0.726E+02   0.131E+02 0.992E+02 -.725E+02   0.725E-01 -.594E+00 -.149E+00   0.615E-02 -.181E-01 0.340E-01
   -.320E+02 0.184E+03 0.113E+03   0.317E+02 -.184E+03 -.113E+03   0.300E+00 -.351E+00 0.105E+00   0.714E-02 -.398E-03 0.181E-01
   -.342E+01 -.127E+02 -.756E+02   0.378E+01 0.122E+02 0.763E+02   -.355E+00 0.456E+00 -.711E+00   -.961E-02 0.175E-02 -.160E-01
   -.844E+02 -.371E+03 0.156E+03   0.841E+02 0.372E+03 -.156E+03   0.281E+00 -.598E+00 -.352E+00   -.640E-02 0.255E-01 -.146E-01
   -.233E+02 0.181E+03 -.134E+03   0.228E+02 -.181E+03 0.134E+03   0.512E+00 -.118E+00 -.472E+00   0.446E-02 0.392E-04 0.221E-01
   0.376E+02 0.222E+03 0.134E+03   -.373E+02 -.223E+03 -.134E+03   -.233E+00 0.920E-01 0.431E+00   -.831E-02 0.205E-02 0.164E-01
   -.211E+02 -.112E+03 0.404E+02   0.204E+02 0.111E+03 -.410E+02   0.714E+00 0.982E+00 0.539E+00   0.125E-01 -.111E-01 0.355E-01
   0.473E+02 -.215E+02 0.143E+02   -.468E+02 0.207E+02 -.140E+02   -.436E+00 0.812E+00 -.291E+00   -.398E-02 0.146E-01 0.275E-01
 -----------------------------------------------------------------------------------------------
   -.285E+00 -.963E+00 0.371E+00   0.142E-12 0.711E-13 -.817E-13   0.280E+00 0.969E+00 -.479E+00   0.554E-02 -.104E-01 0.110E+00
 
 
 POSITION                                       TOTAL-FORCE (eV/Angst)
 -----------------------------------------------------------------------------------
      1.68514      8.48733      1.73969         0.004086      0.003913      0.005953
      0.05241      3.35467      6.73018        -0.000837     -0.000721      0.000397
      4.97482      1.70249      8.37985        -0.003174      0.007787      0.000750
      3.39294      6.84650      6.77832        -0.002600     -0.002826      0.003229
      0.03374      0.11579      6.64872        -0.000332      0.000999     -0.003507
     -0.02370      3.38295      3.51031        -0.001975     -0.000378     -0.006739
      0.06315      6.58606     10.15331        -0.003435     -0.004445      0.000642
      3.39673      6.75946      3.54754         0.003243     -0.000038     -0.002309
      1.80037      5.02891      5.11096         0.001095     -0.003342     -0.000549
      3.49935      0.00006      3.42364         0.002107     -0.000093      0.000779
      6.84265      0.02605      3.50412         0.001608      0.000844      0.001862
     -0.02448      6.72340      6.73327        -0.001757      0.001388      0.004440
      1.59249      5.14093      8.42827        -0.005048     -0.003851     -0.000535
      3.32786      3.45124      6.76355        -0.001190      0.001166      0.003157
      5.10600      1.60872      1.75026        -0.004999      0.002953      0.003574
      3.50336      0.04094      0.02228         0.002584     -0.003750      0.002695
      1.77312      8.57023      4.99832         0.000548     -0.002507      0.004756
      5.08378      8.54737      5.04993         0.001197     -0.002155      0.003168
      1.77143      5.16353      1.79083         0.000452      0.002988     -0.001937
      5.05595      5.00782      5.20455        -0.000867     -0.001995      0.000771
      6.81835      0.26528      0.00338         0.000225      0.000188      0.001962
      5.18985      5.06535      8.33087        -0.001550     -0.007870      0.001086
      1.89263      1.67058      5.02547         0.001077     -0.000221     -0.005129
      1.84560      1.57313      8.47827         0.002770      0.002903      0.000520
      3.37179     10.06700      6.72128        -0.000547      0.004128      0.001229
      3.45414      3.41303      3.42674         0.004010     -0.003145     -0.007201
      4.98314      1.67820      5.10590         0.002234      0.000834     -0.004453
      5.25969      8.48045      8.55515        -0.002655     -0.001535     -0.004634
      5.20067      8.49285      1.72108        -0.003213      0.000567      0.002068
      3.38173      3.43623      0.00743        -0.002923     -0.000436      0.002785
      0.03672      6.73282      3.60570        -0.000967      0.002227      0.000578
      1.55436      8.57577      8.60232         0.000091     -0.001297     -0.005092
      5.10769      5.20306      1.75941         0.004927      0.003307     -0.005719
     -0.00409      3.38244     10.17418         0.000914      0.000937      0.002679
      3.34449      6.70378     10.06493         0.000755      0.003576     -0.002762
      1.76658      1.59694      1.77623         0.004148     -0.000100      0.001486
 -----------------------------------------------------------------------------------
    total drift:                                0.000378     -0.003463      0.002013


--------------------------------------------------------------------------------------------------------



  FREE ENERGIE OF THE ION-ELECTRON SYSTEM (eV)
  ---------------------------------------------------
  free  energy   TOTEN  =      -367.10299905 eV

  energy  without entropy=     -367.11524285  energy(sigma->0) =     -367.10708032
 
 d Force = 0.1121969E-03[ 0.843E-04, 0.140E-03]  d Energy = 0.1222910E-03-0.101E-04
 d Force = 0.1182939E-01[ 0.101E-01, 0.136E-01]  d Ewald  = 0.1167031E+01-0.116E+01


--------------------------------------------------------------------------------------------------------


    POTLOK:  cpu time    0.0330: real time    0.0360


--------------------------------------------------------------------------------------------------------




--------------------------------------------------------------------------------------------------------


  
 reached required accuracy - stopping structural energy minimisation
     LOOP+:  cpu time    6.3068: real time    6.7222
    4ORBIT:  cpu time    0.0000: real time    0.0000

 total amount of memory used by VASP on root node    68347. kBytes
========================================================================

   base      :      30000. kBytes
   nonlr-proj:      10720. kBytes
   fftplans  :       2814. kBytes
   grid      :       5360. kBytes
   one-center:        124. kBytes
   wavefun   :      19329. kBytes
 
  
  
 General timing and accounting informations for this job:
 ========================================================
  
                  Total CPU time used (sec):      272.925
                            User time (sec):      271.915
                          System time (sec):        1.010
                         Elapsed time (sec):      296.162
  
                   Maximum memory used (kb):      295032.
                   Average memory used (kb):           0.
  
                          Minor page faults:       129427
                          Major page faults:           35
                 Voluntary context switches:         9340
