<?xml version="1.0" encoding="ISO-8859-1"?>
<modeling>
 <generator>
  <i name="program" type="string">vasp </i>
  <i name="version" type="string">5.4.1  </i>
  <i name="subversion" type="string">05Feb16 (build Jan 29 2020 16:04:39) complex                          parallel </i>
  <i name="platform" type="string">IFC91_ompi </i>
  <i name="date" type="string">2020 06 15 </i>
  <i name="time" type="string">06:13:01 </i>
 </generator>
 <incar>
  <i type="string" name="SYSTEM"> automatically generated by mexm</i>
  <i type="int" name="ISTART">     0</i>
  <i type="string" name="PREC">accurate               ! avoid wrap aro</i>
  <i type="string" name="ALGO"> Fast                   ! blocked Davids</i>
  <i type="int" name="ISPIN">     1</i>
  <i type="int" name="ICHARG">     2</i>
  <i type="int" name="NELM">    70</i>
  <i type="int" name="IBRION">     2</i>
  <i name="EDIFF">      0.00001000</i>
  <i name="EDIFFG">     -0.01000000</i>
  <i type="int" name="NSW">   300</i>
  <i type="int" name="ISIF">     3</i>
  <i type="int" name="ISYM">     1</i>
  <i name="ENCUT">    300.00000000</i>
  <i name="POTIM">      0.15000000</i>
  <i type="string" name="LREAL"> Auto                  ! unpublished met</i>
  <i type="int" name="ISMEAR">     1</i>
  <i name="SIGMA">      0.15000000</i>
  <i type="logical" name="LWAVE"> F  </i>
  <i type="logical" name="LCHARG"> F  </i>
  <i type="logical" name="LVTOT"> F  </i>
  <v type="int" name="KPOINT_BSE">    -1     0     0     0</v>
  <i type="int" name="NELM">    70</i>
 </incar>
 <kpoints>
  <generation param="Gamma">
   <v type="int" name="divisions">       3        3        3 </v>
   <v name="usershift">      0.00000000       0.00000000       0.00000000 </v>
   <v name="genvec1">      0.33333333      -0.00000000       0.00000000 </v>
   <v name="genvec2">     -0.00000000       0.33333333       0.00000000 </v>
   <v name="genvec3">     -0.00000000       0.00000000       0.33333333 </v>
   <v name="shift">      0.00000000       0.00000000       0.00000000 </v>
  </generation>
  <varray name="kpointlist" >
   <v>       0.00000000       0.00000000       0.00000000 </v>
   <v>       0.33333333       0.00000000       0.00000000 </v>
   <v>      -0.00000000       0.33333333      -0.00000000 </v>
   <v>       0.33333333       0.33333333       0.00000000 </v>
   <v>      -0.33333333       0.33333333      -0.00000000 </v>
   <v>       0.00000000       0.00000000       0.33333333 </v>
   <v>       0.33333333      -0.00000000       0.33333333 </v>
   <v>      -0.33333333       0.00000000       0.33333333 </v>
   <v>       0.00000000       0.33333333       0.33333333 </v>
   <v>       0.33333333       0.33333333       0.33333333 </v>
   <v>      -0.33333333       0.33333333       0.33333333 </v>
   <v>       0.00000000      -0.33333333       0.33333333 </v>
   <v>       0.33333333      -0.33333333       0.33333333 </v>
   <v>      -0.33333333      -0.33333333       0.33333333 </v>
  </varray>
  <varray name="weights" >
   <v>       0.03703704 </v>
   <v>       0.07407407 </v>
   <v>       0.07407407 </v>
   <v>       0.07407407 </v>
   <v>       0.07407407 </v>
   <v>       0.07407407 </v>
   <v>       0.07407407 </v>
   <v>       0.07407407 </v>
   <v>       0.07407407 </v>
   <v>       0.07407407 </v>
   <v>       0.07407407 </v>
   <v>       0.07407407 </v>
   <v>       0.07407407 </v>
   <v>       0.07407407 </v>
  </varray>
 </kpoints>
 <parameters>
  <separator name="general" >
   <i type="string" name="SYSTEM">automatically generated by mexm</i>
   <i type="logical" name="LCOMPAT"> F  </i>
  </separator>
  <separator name="electronic" >
   <i type="string" name="PREC">accura</i>
   <i name="ENMAX">    300.00000000</i>
   <i name="ENAUG">    461.25700000</i>
   <i name="EDIFF">      0.00001000</i>
   <i type="int" name="IALGO">    68</i>
   <i type="int" name="IWAVPR">    11</i>
   <i type="int" name="NBANDS">   204</i>
   <i name="NELECT">    337.00000000</i>
   <i type="int" name="TURBO">     0</i>
   <i type="int" name="IRESTART">     0</i>
   <i type="int" name="NREBOOT">     0</i>
   <i type="int" name="NMIN">     0</i>
   <i name="EREF">      0.00000000</i>
   <separator name="electronic smearing" >
    <i type="int" name="ISMEAR">     1</i>
    <i name="SIGMA">      0.15000000</i>
    <i name="KSPACING">      0.50000000</i>
    <i type="logical" name="KGAMMA"> T  </i>
   </separator>
   <separator name="electronic projectors" >
    <i type="logical" name="LREAL"> T  </i>
    <v name="ROPT">     -0.00025000     -0.00025000     -0.00025000     -0.00025000</v>
    <i type="int" name="LMAXPAW">  -100</i>
    <i type="int" name="LMAXMIX">     2</i>
    <i type="logical" name="NLSPLINE"> F  </i>
   </separator>
   <separator name="electronic startup" >
    <i type="int" name="ISTART">     0</i>
    <i type="int" name="ICHARG">     2</i>
    <i type="int" name="INIWAV">     1</i>
   </separator>
   <separator name="electronic spin" >
    <i type="int" name="ISPIN">     1</i>
    <i type="logical" name="LNONCOLLINEAR"> F  </i>
    <v name="MAGMOM">      1.00000000      1.00000000      1.00000000      1.00000000      1.00000000      1.00000000      1.00000000      1.00000000      1.00000000      1.00000000      1.00000000      1.00000000      1.00000000      1.00000000      1.00000000      1.00000000      1.00000000      1.00000000      1.00000000      1.00000000
      1.00000000      1.00000000      1.00000000      1.00000000      1.00000000      1.00000000      1.00000000      1.00000000      1.00000000      1.00000000      1.00000000      1.00000000      1.00000000      1.00000000      1.00000000      1.00000000</v>
    <i name="NUPDOWN">     -1.00000000</i>
    <i type="logical" name="LSORBIT"> F  </i>
    <v name="SAXIS">      0.00000000      0.00000000      1.00000000</v>
    <i type="logical" name="LSPIRAL"> F  </i>
    <v name="QSPIRAL">      0.00000000      0.00000000      0.00000000</v>
    <i type="logical" name="LZEROZ"> F  </i>
   </separator>
   <separator name="electronic exchange-correlation" >
    <i type="logical" name="LASPH"> F  </i>
    <i type="logical" name="LMETAGGA"> F  </i>
   </separator>
   <separator name="electronic convergence" >
    <i type="int" name="NELM">    70</i>
    <i type="int" name="NELMDL">    -5</i>
    <i type="int" name="NELMIN">     2</i>
    <i name="ENINI">    300.00000000</i>
    <separator name="electronic convergence detail" >
     <i type="logical" name="LDIAG"> T  </i>
     <i type="logical" name="LSUBROT"> F  </i>
     <i name="WEIMIN">      0.00100000</i>
     <i name="EBREAK">      0.00000001</i>
     <i name="DEPER">      0.30000000</i>
     <i type="int" name="NRMM">     4</i>
     <i name="TIME">      0.40000000</i>
    </separator>
   </separator>
   <separator name="electronic mixer" >
    <i name="AMIX">      0.40000000</i>
    <i name="BMIX">      1.00000000</i>
    <i name="AMIN">      0.10000000</i>
    <i name="AMIX_MAG">      1.60000000</i>
    <i name="BMIX_MAG">      1.00000000</i>
    <separator name="electronic mixer details" >
     <i type="int" name="IMIX">     4</i>
     <i type="logical" name="MIXFIRST"> F  </i>
     <i type="int" name="MAXMIX">   -45</i>
     <i name="WC">    100.00000000</i>
     <i type="int" name="INIMIX">     1</i>
     <i type="int" name="MIXPRE">     1</i>
     <i type="int" name="MREMOVE">     5</i>
    </separator>
   </separator>
   <separator name="electronic dipolcorrection" >
    <i type="logical" name="LDIPOL"> F  </i>
    <i type="logical" name="LMONO"> F  </i>
    <i type="int" name="IDIPOL">     0</i>
    <i name="EPSILON">      1.00000000</i>
    <v name="DIPOL">   -100.00000000   -100.00000000   -100.00000000</v>
    <i name="EFIELD">      0.00000000</i>
   </separator>
  </separator>
  <separator name="grids" >
   <i type="int" name="NGX">    40</i>
   <i type="int" name="NGY">    60</i>
   <i type="int" name="NGZ">    60</i>
   <i type="int" name="NGXF">    80</i>
   <i type="int" name="NGYF">   120</i>
   <i type="int" name="NGZF">   120</i>
   <i type="logical" name="ADDGRID"> F  </i>
  </separator>
  <separator name="ionic" >
   <i type="int" name="NSW">   300</i>
   <i type="int" name="IBRION">     2</i>
   <i type="int" name="ISIF">     3</i>
   <i name="PSTRESS">      0.00000000</i>
   <i name="EDIFFG">     -0.01000000</i>
   <i type="int" name="NFREE">     1</i>
   <i name="POTIM">      0.15000000</i>
   <i name="SMASS">     -3.00000000</i>
   <i name="SCALEE">      1.00000000</i>
  </separator>
  <separator name="ionic md" >
   <i name="TEBEG">      0.00010000</i>
   <i name="TEEND">      0.00010000</i>
   <i type="int" name="NBLOCK">     1</i>
   <i type="int" name="KBLOCK">   300</i>
   <i type="int" name="NPACO">   256</i>
   <i name="APACO">     16.00000000</i>
  </separator>
  <separator name="symmetry" >
   <i type="int" name="ISYM">     1</i>
   <i name="SYMPREC">      0.00001000</i>
  </separator>
  <separator name="dos" >
   <i type="logical" name="LORBIT"> F  </i>
   <v name="RWIGS">     -1.00000000     -1.00000000     -1.00000000     -1.00000000</v>
   <i type="int" name="NEDOS">   301</i>
   <i name="EMIN">     10.00000000</i>
   <i name="EMAX">    -10.00000000</i>
   <i name="EFERMI">      0.00000000</i>
  </separator>
  <separator name="writing" >
   <i type="int" name="NWRITE">     2</i>
   <i type="logical" name="LWAVE"> F  </i>
   <i type="logical" name="LCHARG"> F  </i>
   <i type="logical" name="LPARD"> F  </i>
   <i type="logical" name="LVTOT"> F  </i>
   <i type="logical" name="LVHAR"> F  </i>
   <i type="logical" name="LELF"> F  </i>
   <i type="logical" name="LOPTICS"> F  </i>
   <v name="STM">      0.00000000      0.00000000      0.00000000      0.00000000      0.00000000      0.00000000      0.00000000</v>
  </separator>
  <separator name="performance" >
   <i type="int" name="NPAR">     4</i>
   <i type="int" name="NSIM">     4</i>
   <i type="int" name="NBLK">    -1</i>
   <i type="logical" name="LPLANE"> T  </i>
   <i type="logical" name="LSCALAPACK"> T  </i>
   <i type="logical" name="LSCAAWARE"> F  </i>
   <i type="logical" name="LSCALU"> F  </i>
   <i type="logical" name="LASYNC"> F  </i>
   <i type="logical" name="LORBITALREAL"> F  </i>
  </separator>
  <separator name="miscellaneous" >
   <i type="int" name="IDIOT">     3</i>
   <i type="logical" name="LMUSIC"> F  </i>
   <v name="POMASS">     91.22400000    180.94800000     92.91000000    178.49000000</v>
   <v name="DARWINR">      0.00000000      0.00000000      0.00000000      0.00000000</v>
   <v name="DARWINV">      1.00000000      1.00000000      1.00000000      1.00000000</v>
   <i type="logical" name="LCORR"> T  </i>
  </separator>
  <i type="logical" name="GGA_COMPAT"> T  </i>
  <i type="logical" name="LBERRY"> F  </i>
  <i type="int" name="ICORELEVEL">     0</i>
  <i type="logical" name="LDAU"> F  </i>
  <i type="int" name="I_CONSTRAINED_M">     0</i>
  <separator name="electronic exchange-correlation" >
   <i type="string" name="GGA">--</i>
   <i type="int" name="VOSKOWN">     0</i>
   <i type="logical" name="LHFCALC"> F  </i>
   <i type="string" name="PRECFOCK"></i>
   <i type="logical" name="LSYMGRAD"> F  </i>
   <i type="logical" name="LHFONE"> F  </i>
   <i type="logical" name="LRHFCALC"> F  </i>
   <i type="logical" name="LTHOMAS"> F  </i>
   <i type="logical" name="LMODELHF"> F  </i>
   <i name="ENCUT4O">     -1.00000000</i>
   <i type="int" name="EXXOEP">     0</i>
   <i type="int" name="FOURORBIT">     0</i>
   <i name="AEXX">      0.00000000</i>
   <i name="HFALPHA">      0.00000000</i>
   <i name="MCALPHA">      0.00000000</i>
   <i name="ALDAX">      1.00000000</i>
   <i name="AGGAX">      1.00000000</i>
   <i name="ALDAC">      1.00000000</i>
   <i name="AGGAC">      1.00000000</i>
   <i type="int" name="NKREDX">     1</i>
   <i type="int" name="NKREDY">     1</i>
   <i type="int" name="NKREDZ">     1</i>
   <i type="logical" name="SHIFTRED"> F  </i>
   <i type="logical" name="ODDONLY"> F  </i>
   <i type="logical" name="EVENONLY"> F  </i>
   <i type="int" name="LMAXFOCK">     0</i>
   <i type="int" name="NMAXFOCKAE">     0</i>
   <i type="logical" name="LFOCKAEDFT"> F  </i>
   <i name="HFSCREEN">      0.00000000</i>
   <i name="HFSCREENC">      0.00000000</i>
   <i type="int" name="NBANDSGWLOW">     0</i>
  </separator>
  <separator name="vdW DFT" >
   <i type="logical" name="LUSE_VDW"> F  </i>
   <i name="Zab_VDW">     -0.84910000</i>
   <i name="PARAM1">      0.12340000</i>
   <i name="PARAM2">      1.00000000</i>
   <i name="PARAM3">      0.00000000</i>
  </separator>
  <separator name="model GW" >
   <i type="int" name="MODEL_GW">     0</i>
   <i name="MODEL_EPS0">     12.18826488</i>
   <i name="MODEL_ALPHA">      1.00000000</i>
  </separator>
  <separator name="linear response parameters" >
   <i type="logical" name="LEPSILON"> F  </i>
   <i type="logical" name="LRPA"> F  </i>
   <i type="logical" name="LNABLA"> F  </i>
   <i type="logical" name="LVEL"> F  </i>
   <i type="int" name="KINTER">     0</i>
   <i name="CSHIFT">      0.10000000</i>
   <i name="OMEGAMAX">     -1.00000000</i>
   <i name="DEG_THRESHOLD">      0.00200000</i>
  </separator>
  <separator name="orbital magnetization" >
   <i type="logical" name="NUCIND"> F  </i>
   <v name="MAGPOS">      0.00000000      0.00000000      0.00000000</v>
   <i type="logical" name="LNICSALL"> T  </i>
   <i type="logical" name="ORBITALMAG"> F  </i>
   <i type="logical" name="LMAGBLOCH"> F  </i>
   <i type="logical" name="LCHIMAG"> F  </i>
   <i type="logical" name="LGAUGE"> T  </i>
   <i type="int" name="MAGATOM">     0</i>
   <v name="MAGDIPOL">      0.00000000      0.00000000      0.00000000</v>
   <v name="AVECCONST">      0.00000000      0.00000000      0.00000000</v>
  </separator>
  <separator name="response functions" >
   <i type="logical" name="LADDER"> F  </i>
   <i type="logical" name="LFXC"> F  </i>
   <i type="logical" name="LHARTREE"> T  </i>
   <i type="int" name="IBSE">     0</i>
   <v type="int" name="KPOINT">    -1     0     0     0</v>
   <i type="logical" name="LTCTE"> F  </i>
   <i type="logical" name="LTETE"> F  </i>
   <i type="logical" name="LTRIPLET"> F  </i>
   <i type="logical" name="LFXCEPS"> F  </i>
   <i type="logical" name="LFXHEG"> F  </i>
   <i type="int" name="NATURALO">     0</i>
   <i type="logical" name="L2ORDER"> F  </i>
   <i type="logical" name="LUSEW"> F  </i>
   <i name="ENCUTGW">     -2.00000000</i>
   <i name="ENCUTGWSOFT">     -2.00000000</i>
   <i name="ENCUTLF">     -1.00000000</i>
   <i type="int" name="LMAXMP2">    -1</i>
   <i name="SCISSOR">      0.00000000</i>
   <i type="int" name="NOMEGA">     0</i>
   <i type="int" name="NOMEGAR">     0</i>
   <i type="int" name="NBANDSGW">    -1</i>
   <i type="int" name="NBANDSO">    -1</i>
   <i type="int" name="NBANDSV">    -1</i>
   <i type="int" name="NELM">    70</i>
   <i type="int" name="NELMHF">     1</i>
   <i type="int" name="DIM">     3</i>
   <i type="int" name="ANTIRES">     0</i>
   <i name="OMEGAMAX">    -30.00000000</i>
   <i name="OMEGAMIN">    -30.00000000</i>
   <i name="OMEGATL">   -200.00000000</i>
   <i type="int" name="OMEGAGRID">     0</i>
   <i name="CSHIFT">     -0.10000000</i>
   <i type="logical" name="SELFENERGY"> F  </i>
   <i type="logical" name="LSPECTRAL"> F  </i>
   <i type="logical" name="LSPECTRALGW"> F  </i>
   <i type="logical" name="LSINGLES"> F  </i>
   <i type="logical" name="LFERMIGW"> F  </i>
   <i type="logical" name="ODDONLYGW"> F  </i>
   <i type="logical" name="EVENONLYGW"> F  </i>
   <i type="int" name="NKREDLFX">     1</i>
   <i type="int" name="NKREDLFY">     1</i>
   <i type="int" name="NKREDLFZ">     1</i>
   <i type="int" name="MAXMEM">  1800</i>
   <i type="int" name="TELESCOPE">     0</i>
   <i type="int" name="TAUPAR">     1</i>
   <i type="int" name="OMEGAPAR">    -1</i>
   <i name="LAMBDA">      1.00000000</i>
  </separator>
  <separator name="External order field" >
   <i name="OFIELD_KAPPA">      0.00000000</i>
   <v name="OFIELD_K">      0.00000000      0.00000000      0.00000000</v>
   <i name="OFIELD_Q6_NEAR">      0.00000000</i>
   <i name="OFIELD_Q6_FAR">      0.00000000</i>
   <i name="OFIELD_A">      0.00000000</i>
  </separator>
 </parameters>
 <atominfo>
  <atoms>      36 </atoms>
  <types>       4 </types>
  <array name="atoms" >
   <dimension dim="1">ion</dimension>
   <field type="string">element</field>
   <field type="int">atomtype</field>
   <set>
    <rc><c>Zr</c><c>   1</c></rc>
    <rc><c>Zr</c><c>   1</c></rc>
    <rc><c>Zr</c><c>   1</c></rc>
    <rc><c>Zr</c><c>   1</c></rc>
    <rc><c>Zr</c><c>   1</c></rc>
    <rc><c>Zr</c><c>   1</c></rc>
    <rc><c>Zr</c><c>   1</c></rc>
    <rc><c>Zr</c><c>   1</c></rc>
    <rc><c>Zr</c><c>   1</c></rc>
    <rc><c>Zr</c><c>   1</c></rc>
    <rc><c>Zr</c><c>   1</c></rc>
    <rc><c>Ta</c><c>   2</c></rc>
    <rc><c>Ta</c><c>   2</c></rc>
    <rc><c>Ta</c><c>   2</c></rc>
    <rc><c>Ta</c><c>   2</c></rc>
    <rc><c>Ta</c><c>   2</c></rc>
    <rc><c>Ta</c><c>   2</c></rc>
    <rc><c>Nb</c><c>   3</c></rc>
    <rc><c>Nb</c><c>   3</c></rc>
    <rc><c>Nb</c><c>   3</c></rc>
    <rc><c>Nb</c><c>   3</c></rc>
    <rc><c>Nb</c><c>   3</c></rc>
    <rc><c>Nb</c><c>   3</c></rc>
    <rc><c>Nb</c><c>   3</c></rc>
    <rc><c>Nb</c><c>   3</c></rc>
    <rc><c>Nb</c><c>   3</c></rc>
    <rc><c>Nb</c><c>   3</c></rc>
    <rc><c>Nb</c><c>   3</c></rc>
    <rc><c>Hf</c><c>   4</c></rc>
    <rc><c>Hf</c><c>   4</c></rc>
    <rc><c>Hf</c><c>   4</c></rc>
    <rc><c>Hf</c><c>   4</c></rc>
    <rc><c>Hf</c><c>   4</c></rc>
    <rc><c>Hf</c><c>   4</c></rc>
    <rc><c>Hf</c><c>   4</c></rc>
    <rc><c>Hf</c><c>   4</c></rc>
   </set>
  </array>
  <array name="atomtypes" >
   <dimension dim="1">type</dimension>
   <field type="int">atomspertype</field>
   <field type="string">element</field>
   <field>mass</field>
   <field>valence</field>
   <field type="string">pseudopotential</field>
   <set>
    <rc><c>  11</c><c>Zr</c><c>     91.22400000</c><c>     12.00000000</c><c>  PAW_PBE Zr_sv 04Jan2005               </c></rc>
    <rc><c>   6</c><c>Ta</c><c>    180.94800000</c><c>      5.00000000</c><c>  PAW_PBE Ta 17Jan2003                  </c></rc>
    <rc><c>  11</c><c>Nb</c><c>     92.91000000</c><c>     13.00000000</c><c>  PAW_PBE Nb_sv 25May2007               </c></rc>
    <rc><c>   8</c><c>Hf</c><c>    178.49000000</c><c>      4.00000000</c><c>  PAW_PBE Hf 20Jan2003                  </c></rc>
   </set>
  </array>
 </atominfo>
 <structure name="initialpos" >
  <crystal>
   <varray name="basis" >
    <v>       6.98540984       0.02107561      -0.00167607 </v>
    <v>       0.03095246      10.21908180       0.01809260 </v>
    <v>      -0.00252408       0.01737927      10.24459201 </v>
   </varray>
   <i name="volume">    731.29589295 </i>
   <varray name="rec_basis" >
    <v>       0.14315684      -0.00043367       0.00003601 </v>
    <v>      -0.00029528       0.09785734      -0.00016608 </v>
    <v>       0.00002394      -0.00017289       0.09761278 </v>
   </varray>
  </crystal>
  <varray name="positions" >
   <v>       0.25823700       0.16803800       0.17922900 </v>
   <v>       0.98591100       0.00569800       0.00869800 </v>
   <v>       0.76360300       0.16339200       0.50190600 </v>
   <v>       0.76126600       0.17164700       0.82109500 </v>
   <v>       0.51504500       0.99850200       0.99592600 </v>
   <v>       0.72618900       0.17758900       0.17651200 </v>
   <v>       0.74089500       0.49039400       0.82906300 </v>
   <v>       0.48861600       0.66282100       0.65275500 </v>
   <v>       0.48139300       0.33169000       0.66019300 </v>
   <v>       0.76536700       0.83844400       0.81358300 </v>
   <v>       0.23522900       0.49543800       0.47460900 </v>
   <v>       0.72960400       0.49655900       0.17608700 </v>
   <v>       0.53205600       0.66760000       0.01076100 </v>
   <v>       0.04264100       0.00571200       0.66248100 </v>
   <v>       0.51663300       0.66921900       0.33910400 </v>
   <v>       0.76449100       0.49774300       0.48943000 </v>
   <v>       0.98167800       0.66852900       0.32629800 </v>
   <v>       0.00451400       0.98987600       0.33207600 </v>
   <v>       0.49100100       0.98960100       0.34619200 </v>
   <v>       0.74043600       0.83213200       0.18548500 </v>
   <v>       0.23444400       0.16893600       0.48951600 </v>
   <v>       0.50643600       0.33902500       0.34784600 </v>
   <v>       0.26505500       0.50267300       0.84804400 </v>
   <v>       0.98436400       0.34133000       0.32370000 </v>
   <v>       0.01868200       0.33841500       0.67024300 </v>
   <v>       0.24217400       0.83426800       0.48449200 </v>
   <v>       0.47897400       0.33510500       0.98885800 </v>
   <v>       0.23834100       0.17232600       0.83245400 </v>
   <v>       0.26420200       0.50510200       0.17054500 </v>
   <v>       0.00651300       0.33645600       0.00275400 </v>
   <v>       0.96958100       0.66179500       0.01129700 </v>
   <v>       0.25808100       0.82630200       0.16907100 </v>
   <v>       0.46778700       0.00306000       0.66135100 </v>
   <v>       0.76378600       0.83926400       0.50372300 </v>
   <v>       0.02557500       0.65317200       0.66373000 </v>
   <v>       0.25120500       0.82215000       0.85088600 </v>
  </varray>
 </structure>
 <calculation>
  <scstep>
   <time name="dav">    1.30    1.32</time>
   <time name="total">    1.40    1.93</time>
   <energy>
    <i name="alphaZ">   1753.41178017 </i>
    <i name="ewald"> -24301.46005692 </i>
    <i name="hartreedc">  -8919.86501045 </i>
    <i name="XCdc">    350.29009364 </i>
    <i name="pawpsdc">  26740.51678085 </i>
    <i name="pawaedc"> -25409.02388151 </i>
    <i name="eentropy">     -0.00483855 </i>
    <i name="bandstr">   -371.06924105 </i>
    <i name="atom">  32623.27625270 </i>
    <i name="e_fr_energy">   2466.07187888 </i>
    <i name="e_wo_entrp">   2466.07671743 </i>
    <i name="e_0_energy">   2466.07349173 </i>
   </energy>
  </scstep>
  <scstep>
   <time name="dav">    1.15    1.16</time>
   <time name="total">    1.15    1.42</time>
   <energy>
    <i name="e_fr_energy">    -23.21802450 </i>
    <i name="e_wo_entrp">    -23.21266834 </i>
    <i name="e_0_energy">    -23.21623911 </i>
   </energy>
  </scstep>
  <scstep>
   <time name="dav">    1.69    1.70</time>
   <time name="total">    1.69    1.75</time>
   <energy>
    <i name="e_fr_energy">   -327.57025511 </i>
    <i name="e_wo_entrp">   -327.57831586 </i>
    <i name="e_0_energy">   -327.57294203 </i>
   </energy>
  </scstep>
  <scstep>
   <time name="dav">    1.68    1.69</time>
   <time name="total">    1.68    1.73</time>
   <energy>
    <i name="e_fr_energy">   -364.06539066 </i>
    <i name="e_wo_entrp">   -364.06402491 </i>
    <i name="e_0_energy">   -364.06493541 </i>
   </energy>
  </scstep>
  <scstep>
   <time name="dav">    1.53    1.54</time>
   <time name="total">    1.57    1.64</time>
   <energy>
    <i name="e_fr_energy">   -367.74834596 </i>
    <i name="e_wo_entrp">   -367.74900450 </i>
    <i name="e_0_energy">   -367.74856547 </i>
   </energy>
  </scstep>
  <scstep>
   <time name="diag">    0.09    0.09</time>
   <time name="diis">    0.88    0.89</time>
   <time name="orth">    0.02    0.02</time>
   <time name="total">    1.06    1.12</time>
   <energy>
    <i name="e_fr_energy">   -357.27122028 </i>
    <i name="e_wo_entrp">   -357.28659020 </i>
    <i name="e_0_energy">   -357.27634359 </i>
   </energy>
  </scstep>
  <scstep>
   <time name="diag">    0.09    0.09</time>
   <time name="diis">    0.86    0.87</time>
   <time name="orth">    0.02    0.02</time>
   <time name="total">    1.14    1.19</time>
   <energy>
    <i name="e_fr_energy">   -358.01503884 </i>
    <i name="e_wo_entrp">   -358.01498131 </i>
    <i name="e_0_energy">   -358.01501967 </i>
   </energy>
  </scstep>
  <scstep>
   <time name="diag">    0.11    0.11</time>
   <time name="diis">    0.78    0.92</time>
   <time name="orth">    0.02    0.02</time>
   <time name="total">    1.00    1.20</time>
   <energy>
    <i name="e_fr_energy">   -353.60041936 </i>
    <i name="e_wo_entrp">   -353.61019079 </i>
    <i name="e_0_energy">   -353.60367651 </i>
   </energy>
  </scstep>
  <scstep>
   <time name="diag">    0.09    0.11</time>
   <time name="diis">    0.80    0.87</time>
   <time name="orth">    0.02    0.02</time>
   <time name="total">    0.98    1.15</time>
   <energy>
    <i name="e_fr_energy">   -353.58108899 </i>
    <i name="e_wo_entrp">   -353.59395403 </i>
    <i name="e_0_energy">   -353.58537734 </i>
   </energy>
  </scstep>
  <scstep>
   <time name="diag">    0.09    0.09</time>
   <time name="diis">    0.79    0.86</time>
   <time name="orth">    0.02    0.02</time>
   <time name="total">    0.97    1.08</time>
   <energy>
    <i name="e_fr_energy">   -353.48179578 </i>
    <i name="e_wo_entrp">   -353.49515388 </i>
    <i name="e_0_energy">   -353.48624848 </i>
   </energy>
  </scstep>
  <scstep>
   <time name="diag">    0.10    0.10</time>
   <time name="diis">    0.85    0.86</time>
   <time name="orth">    0.02    0.02</time>
   <time name="total">    1.07    1.13</time>
   <energy>
    <i name="e_fr_energy">   -353.46374263 </i>
    <i name="e_wo_entrp">   -353.47429813 </i>
    <i name="e_0_energy">   -353.46726113 </i>
   </energy>
  </scstep>
  <scstep>
   <time name="diag">    0.10    0.10</time>
   <time name="diis">    0.94    0.94</time>
   <time name="orth">    0.02    0.02</time>
   <time name="total">    1.13    1.18</time>
   <energy>
    <i name="e_fr_energy">   -353.45800973 </i>
    <i name="e_wo_entrp">   -353.46935688 </i>
    <i name="e_0_energy">   -353.46179211 </i>
   </energy>
  </scstep>
  <scstep>
   <time name="diag">    0.09    0.09</time>
   <time name="diis">    0.89    0.90</time>
   <time name="orth">    0.02    0.02</time>
   <time name="total">    1.08    1.13</time>
   <energy>
    <i name="e_fr_energy">   -353.45704689 </i>
    <i name="e_wo_entrp">   -353.46839691 </i>
    <i name="e_0_energy">   -353.46083023 </i>
   </energy>
  </scstep>
  <scstep>
   <time name="diag">    0.12    0.12</time>
   <time name="diis">    0.90    0.90</time>
   <time name="orth">    0.02    0.02</time>
   <time name="total">    1.11    1.16</time>
   <energy>
    <i name="e_fr_energy">   -353.45729861 </i>
    <i name="e_wo_entrp">   -353.46872168 </i>
    <i name="e_0_energy">   -353.46110630 </i>
   </energy>
  </scstep>
  <scstep>
   <time name="diag">    0.09    0.09</time>
   <time name="diis">    0.96    0.97</time>
   <time name="orth">    0.02    0.02</time>
   <time name="total">    1.14    1.19</time>
   <energy>
    <i name="e_fr_energy">   -353.45730180 </i>
    <i name="e_wo_entrp">   -353.46870446 </i>
    <i name="e_0_energy">   -353.46110269 </i>
   </energy>
  </scstep>
  <scstep>
   <time name="diag">    0.09    0.10</time>
   <time name="diis">    0.76    0.77</time>
   <time name="orth">    0.02    0.02</time>
   <time name="total">    0.94    1.01</time>
   <energy>
    <i name="e_fr_energy">   -353.45731213 </i>
    <i name="e_wo_entrp">   -353.46872231 </i>
    <i name="e_0_energy">   -353.46111553 </i>
   </energy>
  </scstep>
  <scstep>
   <time name="diag">    0.10    0.10</time>
   <time name="diis">    0.67    0.69</time>
   <time name="orth">    0.02    0.02</time>
   <time name="total">    0.98    1.06</time>
   <energy>
    <i name="e_fr_energy">   -353.45732836 </i>
    <i name="e_wo_entrp">   -353.46873857 </i>
    <i name="e_0_energy">   -353.46113176 </i>
   </energy>
  </scstep>
  <scstep>
   <time name="diag">    0.09    0.09</time>
   <time name="diis">    0.64    0.64</time>
   <time name="orth">    0.02    0.02</time>
   <time name="total">    0.81    0.86</time>
   <energy>
    <i name="e_fr_energy">   -353.45733940 </i>
    <i name="e_wo_entrp">   -353.46873719 </i>
    <i name="e_0_energy">   -353.46113867 </i>
   </energy>
  </scstep>
  <scstep>
   <time name="diag">    0.09    0.09</time>
   <time name="diis">    0.59    0.60</time>
   <time name="orth">    0.02    0.03</time>
   <time name="total">    0.80    0.85</time>
   <energy>
    <i name="e_fr_energy">   -353.45734594 </i>
    <i name="e_wo_entrp">   -353.46875152 </i>
    <i name="e_0_energy">   -353.46114780 </i>
   </energy>
  </scstep>
  <scstep>
   <time name="diag">    0.09    0.09</time>
   <time name="diis">    0.53    0.53</time>
   <time name="orth">    0.02    0.02</time>
   <time name="total">    0.67    0.73</time>
   <energy>
    <i name="alphaZ">   1753.41178017 </i>
    <i name="ewald"> -24301.46005692 </i>
    <i name="hartreedc">  -8620.85115353 </i>
    <i name="XCdc">    342.68602055 </i>
    <i name="pawpsdc">  39631.46942743 </i>
    <i name="pawaedc"> -38265.97148854 </i>
    <i name="eentropy">      0.01140509 </i>
    <i name="bandstr">  -3516.02953379 </i>
    <i name="atom">  32623.27625270 </i>
    <i name="e_fr_energy">   -353.45734684 </i>
    <i name="e_wo_entrp">   -353.46875193 </i>
    <i name="e_0_energy">   -353.46114853 </i>
   </energy>
  </scstep>
  <structure>
   <crystal>
    <varray name="basis" >
     <v>       6.98540984       0.02107561      -0.00167607 </v>
     <v>       0.03095246      10.21908180       0.01809260 </v>
     <v>      -0.00252408       0.01737927      10.24459201 </v>
    </varray>
    <i name="volume">    731.29589295 </i>
    <varray name="rec_basis" >
     <v>       0.14315684      -0.00043367       0.00003601 </v>
     <v>      -0.00029528       0.09785734      -0.00016608 </v>
     <v>       0.00002394      -0.00017289       0.09761278 </v>
    </varray>
   </crystal>
   <varray name="positions" >
    <v>       0.25823700       0.16803800       0.17922900 </v>
    <v>       0.98591100       0.00569800       0.00869800 </v>
    <v>       0.76360300       0.16339200       0.50190600 </v>
    <v>       0.76126600       0.17164700       0.82109500 </v>
    <v>       0.51504500       0.99850200       0.99592600 </v>
    <v>       0.72618900       0.17758900       0.17651200 </v>
    <v>       0.74089500       0.49039400       0.82906300 </v>
    <v>       0.48861600       0.66282100       0.65275500 </v>
    <v>       0.48139300       0.33169000       0.66019300 </v>
    <v>       0.76536700       0.83844400       0.81358300 </v>
    <v>       0.23522900       0.49543800       0.47460900 </v>
    <v>       0.72960400       0.49655900       0.17608700 </v>
    <v>       0.53205600       0.66760000       0.01076100 </v>
    <v>       0.04264100       0.00571200       0.66248100 </v>
    <v>       0.51663300       0.66921900       0.33910400 </v>
    <v>       0.76449100       0.49774300       0.48943000 </v>
    <v>       0.98167800       0.66852900       0.32629800 </v>
    <v>       0.00451400       0.98987600       0.33207600 </v>
    <v>       0.49100100       0.98960100       0.34619200 </v>
    <v>       0.74043600       0.83213200       0.18548500 </v>
    <v>       0.23444400       0.16893600       0.48951600 </v>
    <v>       0.50643600       0.33902500       0.34784600 </v>
    <v>       0.26505500       0.50267300       0.84804400 </v>
    <v>       0.98436400       0.34133000       0.32370000 </v>
    <v>       0.01868200       0.33841500       0.67024300 </v>
    <v>       0.24217400       0.83426800       0.48449200 </v>
    <v>       0.47897400       0.33510500       0.98885800 </v>
    <v>       0.23834100       0.17232600       0.83245400 </v>
    <v>       0.26420200       0.50510200       0.17054500 </v>
    <v>       0.00651300       0.33645600       0.00275400 </v>
    <v>       0.96958100       0.66179500       0.01129700 </v>
    <v>       0.25808100       0.82630200       0.16907100 </v>
    <v>       0.46778700       0.00306000       0.66135100 </v>
    <v>       0.76378600       0.83926400       0.50372300 </v>
    <v>       0.02557500       0.65317200       0.66373000 </v>
    <v>       0.25120500       0.82215000       0.85088600 </v>
   </varray>
  </structure>
  <varray name="forces" >
   <v>      -0.00226269       0.01360383       0.00961851 </v>
   <v>      -0.00674055      -0.00702791      -0.00263021 </v>
   <v>       0.00266710       0.01332074       0.01071120 </v>
   <v>      -0.01134689      -0.00941330      -0.00686283 </v>
   <v>       0.00503860      -0.00266744      -0.00547711 </v>
   <v>       0.00441081       0.00075108       0.01016413 </v>
   <v>       0.00326329       0.00365709      -0.01030205 </v>
   <v>       0.01167076       0.00561023      -0.00364421 </v>
   <v>       0.00004665      -0.01353711       0.01848565 </v>
   <v>      -0.00258130       0.01048211       0.00061482 </v>
   <v>       0.09137092      -0.02383818       0.12859256 </v>
   <v>      -0.01295438      -0.00270580       0.00195601 </v>
   <v>       0.00071806       0.00064350       0.01125503 </v>
   <v>      -0.00261111      -0.01043417       0.01411273 </v>
   <v>       0.04435736       0.03979463      -0.03188443 </v>
   <v>      -0.10168687       0.00702232       0.00369332 </v>
   <v>      -0.03300990       0.04216603      -0.04685229 </v>
   <v>       0.00923755      -0.00317110      -0.00310866 </v>
   <v>       0.00063331      -0.00265702      -0.01041855 </v>
   <v>      -0.01053366       0.00296470       0.01429874 </v>
   <v>      -0.00859860      -0.11261197      -0.00092074 </v>
   <v>      -0.00767845       0.00143917      -0.02863747 </v>
   <v>      -0.00728100      -0.00169722       0.03566690 </v>
   <v>       0.00674716      -0.01431082       0.02265917 </v>
   <v>      -0.00810636      -0.03154770       0.01273434 </v>
   <v>       0.00034583       0.09398157      -0.01190307 </v>
   <v>       0.00023590      -0.00568762       0.01383813 </v>
   <v>       0.00612861       0.01506449       0.00144662 </v>
   <v>       0.01332730       0.00014148      -0.13339205 </v>
   <v>       0.00901185       0.00873694      -0.00497210 </v>
   <v>      -0.00224466       0.00075786      -0.00377056 </v>
   <v>       0.00416601      -0.01025649       0.01357098 </v>
   <v>       0.00236923      -0.00145855       0.00619242 </v>
   <v>       0.00340632      -0.01220585       0.00317515 </v>
   <v>      -0.00957105       0.01333700      -0.01516301 </v>
   <v>       0.00805486      -0.00824651      -0.01284706 </v>
  </varray>
  <varray name="stress" >
   <v>       0.89413156      -0.00717551      -0.01815969 </v>
   <v>      -0.00717552       1.73090145      -0.43973209 </v>
   <v>      -0.01815969      -0.43973213       1.03253088 </v>
  </varray>
  <energy>
   <i name="e_fr_energy">   -353.45734684 </i>
   <i name="e_wo_entrp">   -353.46114853 </i>
   <i name="e_0_energy">      0.01140509 </i>
  </energy>
  <time name="totalsc">   24.14   26.42</time>
 </calculation>
 <calculation>
  <scstep>
   <time name="dav">    1.21    1.21</time>
   <time name="total">    1.29    1.49</time>
   <energy>
    <i name="alphaZ">   1752.23551442 </i>
    <i name="ewald"> -24295.13578795 </i>
    <i name="hartreedc">  -8619.79331103 </i>
    <i name="XCdc">    342.43226583 </i>
    <i name="pawpsdc">  39631.50347291 </i>
    <i name="pawaedc"> -38266.00330010 </i>
    <i name="eentropy">      0.01145205 </i>
    <i name="bandstr">  -3521.98646735 </i>
    <i name="atom">  32623.27625270 </i>
    <i name="e_fr_energy">   -353.45990853 </i>
    <i name="e_wo_entrp">   -353.47136058 </i>
    <i name="e_0_energy">   -353.46372588 </i>
   </energy>
  </scstep>
  <scstep>
   <time name="diag">    0.09    0.09</time>
   <time name="diis">    0.83    0.84</time>
   <time name="orth">    0.02    0.02</time>
   <time name="total">    1.01    1.07</time>
   <energy>
    <i name="e_fr_energy">   -353.45972942 </i>
    <i name="e_wo_entrp">   -353.47122270 </i>
    <i name="e_0_energy">   -353.46356051 </i>
   </energy>
  </scstep>
  <scstep>
   <time name="diag">    0.16    0.16</time>
   <time name="diis">    0.86    0.86</time>
   <time name="orth">    0.02    0.02</time>
   <time name="total">    1.18    1.27</time>
   <energy>
    <i name="e_fr_energy">   -353.45922295 </i>
    <i name="e_wo_entrp">   -353.47059740 </i>
    <i name="e_0_energy">   -353.46301444 </i>
   </energy>
  </scstep>
  <scstep>
   <time name="diag">    0.14    0.14</time>
   <time name="diis">    0.87    0.87</time>
   <time name="orth">    0.02    0.02</time>
   <time name="total">    1.10    1.15</time>
   <energy>
    <i name="e_fr_energy">   -353.45900812 </i>
    <i name="e_wo_entrp">   -353.47055244 </i>
    <i name="e_0_energy">   -353.46285623 </i>
   </energy>
  </scstep>
  <scstep>
   <time name="diag">    0.09    0.09</time>
   <time name="diis">    0.77    0.77</time>
   <time name="orth">    0.02    0.02</time>
   <time name="total">    0.95    0.99</time>
   <energy>
    <i name="e_fr_energy">   -353.45896885 </i>
    <i name="e_wo_entrp">   -353.47042141 </i>
    <i name="e_0_energy">   -353.46278637 </i>
   </energy>
  </scstep>
  <scstep>
   <time name="diag">    0.09    0.09</time>
   <time name="diis">    0.66    0.66</time>
   <time name="orth">    0.02    0.02</time>
   <time name="total">    0.80    0.85</time>
   <energy>
    <i name="alphaZ">   1752.23551442 </i>
    <i name="ewald"> -24295.13578795 </i>
    <i name="hartreedc">  -8623.60185570 </i>
    <i name="XCdc">    342.60686917 </i>
    <i name="pawpsdc">  39595.21126500 </i>
    <i name="pawaedc"> -38229.57915997 </i>
    <i name="eentropy">      0.01146984 </i>
    <i name="bandstr">  -3518.48353224 </i>
    <i name="atom">  32623.27625270 </i>
    <i name="e_fr_energy">   -353.45896473 </i>
    <i name="e_wo_entrp">   -353.47043457 </i>
    <i name="e_0_energy">   -353.46278801 </i>
   </energy>
  </scstep>
  <structure>
   <crystal>
    <varray name="basis" >
     <v>       6.98655592       0.02107324      -0.00170137 </v>
     <v>       0.03094403      10.22232606       0.01727135 </v>
     <v>      -0.00255866       0.01655816      10.24653164 </v>
    </varray>
    <i name="volume">    731.78680773 </i>
    <varray name="rec_basis" >
     <v>       0.14313336      -0.00043334       0.00003644 </v>
     <v>      -0.00029511       0.09782625      -0.00015816 </v>
     <v>       0.00002426      -0.00016497       0.09759427 </v>
    </varray>
   </crystal>
   <varray name="positions" >
    <v>       0.25823223       0.16805725       0.17924255 </v>
    <v>       0.98589708       0.00568808       0.00869430 </v>
    <v>       0.76360845       0.16341083       0.50192110 </v>
    <v>       0.76124255       0.17163373       0.82108532 </v>
    <v>       0.51505545       0.99849821       0.99591827 </v>
    <v>       0.72619814       0.17759002       0.17652636 </v>
    <v>       0.74090173       0.49039919       0.82904844 </v>
    <v>       0.48864014       0.66282890       0.65274984 </v>
    <v>       0.48139319       0.33167078       0.66021915 </v>
    <v>       0.76536159       0.83845886       0.81358384 </v>
    <v>       0.23541853       0.49540354       0.47479076 </v>
    <v>       0.72957718       0.49655522       0.17608977 </v>
    <v>       0.53205749       0.66760088       0.01077690 </v>
    <v>       0.04263566       0.00569720       0.66250096 </v>
    <v>       0.51672464       0.66927525       0.33905887 </v>
    <v>       0.76428027       0.49775337       0.48943516 </v>
    <v>       0.98160932       0.66858897       0.32623169 </v>
    <v>       0.00453316       0.98987148       0.33207162 </v>
    <v>       0.49100232       0.98959726       0.34617729 </v>
    <v>       0.74041416       0.83213621       0.18550519 </v>
    <v>       0.23442689       0.16877655       0.48951498 </v>
    <v>       0.50642007       0.33902714       0.34780554 </v>
    <v>       0.26503994       0.50267054       0.84809439 </v>
    <v>       0.98437808       0.34130965       0.32373205 </v>
    <v>       0.01866541       0.33837032       0.67026107 </v>
    <v>       0.24217412       0.83440113       0.48447495 </v>
    <v>       0.47897453       0.33509691       0.98887756 </v>
    <v>       0.23835360       0.17234731       0.83245601 </v>
    <v>       0.26422954       0.50510246       0.17035656 </v>
    <v>       0.00653161       0.33646835       0.00274696 </v>
    <v>       0.96957634       0.66179609       0.01129167 </v>
    <v>       0.25808970       0.82628742       0.16909020 </v>
    <v>       0.46779192       0.00305791       0.66135975 </v>
    <v>       0.76379314       0.83924669       0.50372752 </v>
    <v>       0.02555508       0.65319097       0.66370854 </v>
    <v>       0.25122173       0.82213832       0.85086787 </v>
   </varray>
  </structure>
  <varray name="forces" >
   <v>      -0.00186291       0.01464423       0.00895287 </v>
   <v>      -0.00555061      -0.00626747      -0.00377091 </v>
   <v>       0.00282074       0.01261962       0.01021185 </v>
   <v>      -0.00910707      -0.00763857      -0.00686632 </v>
   <v>       0.00428750      -0.00298298      -0.00563633 </v>
   <v>       0.00408755       0.00216434       0.01053534 </v>
   <v>       0.00363085       0.00284112      -0.00957168 </v>
   <v>       0.00945884       0.00669890      -0.00172728 </v>
   <v>      -0.00122717      -0.01550294       0.01844349 </v>
   <v>      -0.00145296       0.00939729      -0.00031556 </v>
   <v>       0.08137326      -0.02119206       0.11071364 </v>
   <v>      -0.01093803      -0.00139736       0.00239074 </v>
   <v>       0.00223610      -0.00030509       0.00768216 </v>
   <v>      -0.00155963      -0.00948608       0.01485060 </v>
   <v>       0.03912232       0.03256411      -0.02924590 </v>
   <v>      -0.08895252       0.00723209      -0.00014715 </v>
   <v>      -0.02963952       0.03080976      -0.03930384 </v>
   <v>       0.00876656      -0.00279767      -0.00179635 </v>
   <v>       0.00082168      -0.00146000      -0.00775863 </v>
   <v>      -0.01021149       0.00433140       0.01249144 </v>
   <v>      -0.00877062      -0.10212763      -0.00059340 </v>
   <v>      -0.00747598       0.00322755      -0.02531524 </v>
   <v>      -0.00793334      -0.00170077       0.03156760 </v>
   <v>       0.00579755      -0.00773436       0.02357477 </v>
   <v>      -0.00787211      -0.02893496       0.01322508 </v>
   <v>      -0.00081677       0.08347084      -0.01205799 </v>
   <v>       0.00157595      -0.00567833       0.00962468 </v>
   <v>       0.00410495       0.01387093       0.00194295 </v>
   <v>       0.01272348       0.00249543      -0.11486689 </v>
   <v>       0.00732774       0.00783648      -0.00662818 </v>
   <v>      -0.00374566      -0.00047646      -0.00464929 </v>
   <v>       0.00437948      -0.01006334       0.01034366 </v>
   <v>       0.00184211      -0.00012182       0.00663557 </v>
   <v>       0.00482199      -0.01051589       0.00253904 </v>
   <v>      -0.00872724       0.01111701      -0.01347798 </v>
   <v>       0.00666498      -0.00893732      -0.01199657 </v>
  </varray>
  <varray name="stress" >
   <v>       0.18390930      -0.00198656      -0.01077100 </v>
   <v>      -0.00198657       0.98259965      -0.43450041 </v>
   <v>      -0.01077101      -0.43450037       0.27043789 </v>
  </varray>
  <energy>
   <i name="e_fr_energy">   -353.45896473 </i>
   <i name="e_wo_entrp">   -353.46278801 </i>
   <i name="e_0_energy">      0.01146984 </i>
  </energy>
  <time name="totalsc">    8.13    8.93</time>
 </calculation>
 <calculation>
  <scstep>
   <time name="dav">    1.18    1.19</time>
   <time name="total">    1.26    1.47</time>
   <energy>
    <i name="alphaZ">   1748.71330222 </i>
    <i name="ewald"> -24276.13843014 </i>
    <i name="hartreedc">  -8620.38825398 </i>
    <i name="XCdc">    341.84412371 </i>
    <i name="pawpsdc">  39598.36852464 </i>
    <i name="pawaedc"> -38232.77167692 </i>
    <i name="eentropy">      0.01159013 </i>
    <i name="bandstr">  -3536.38525975 </i>
    <i name="atom">  32623.27625270 </i>
    <i name="e_fr_energy">   -353.46982740 </i>
    <i name="e_wo_entrp">   -353.48141753 </i>
    <i name="e_0_energy">   -353.47369078 </i>
   </energy>
  </scstep>
  <scstep>
   <time name="diag">    0.10    0.10</time>
   <time name="diis">    0.84    0.85</time>
   <time name="orth">    0.02    0.02</time>
   <time name="total">    1.03    1.07</time>
   <energy>
    <i name="e_fr_energy">   -353.46779618 </i>
    <i name="e_wo_entrp">   -353.47948948 </i>
    <i name="e_0_energy">   -353.47169395 </i>
   </energy>
  </scstep>
  <scstep>
   <time name="diag">    0.14    0.14</time>
   <time name="diis">    0.90    0.91</time>
   <time name="orth">    0.02    0.02</time>
   <time name="total">    1.14    1.19</time>
   <energy>
    <i name="e_fr_energy">   -353.46313888 </i>
    <i name="e_wo_entrp">   -353.47450440 </i>
    <i name="e_0_energy">   -353.46692739 </i>
   </energy>
  </scstep>
  <scstep>
   <time name="diag">    0.17    0.17</time>
   <time name="diis">    0.86    0.87</time>
   <time name="orth">    0.02    0.02</time>
   <time name="total">    1.11    1.19</time>
   <energy>
    <i name="e_fr_energy">   -353.46130399 </i>
    <i name="e_wo_entrp">   -353.47317763 </i>
    <i name="e_0_energy">   -353.46526187 </i>
   </energy>
  </scstep>
  <scstep>
   <time name="diag">    0.09    0.10</time>
   <time name="diis">    0.82    0.87</time>
   <time name="orth">    0.02    0.02</time>
   <time name="total">    0.99    1.10</time>
   <energy>
    <i name="e_fr_energy">   -353.46099043 </i>
    <i name="e_wo_entrp">   -353.47259073 </i>
    <i name="e_0_energy">   -353.46485720 </i>
   </energy>
  </scstep>
  <scstep>
   <time name="diag">    0.09    0.17</time>
   <time name="diis">    0.81    0.93</time>
   <time name="orth">    0.02    0.02</time>
   <time name="total">    0.99    1.27</time>
   <energy>
    <i name="e_fr_energy">   -353.46101370 </i>
    <i name="e_wo_entrp">   -353.47266003 </i>
    <i name="e_0_energy">   -353.46489581 </i>
   </energy>
  </scstep>
  <scstep>
   <time name="diag">    0.09    0.12</time>
   <time name="diis">    0.74    0.81</time>
   <time name="orth">    0.02    0.03</time>
   <time name="total">    0.93    1.12</time>
   <energy>
    <i name="e_fr_energy">   -353.46098330 </i>
    <i name="e_wo_entrp">   -353.47266791 </i>
    <i name="e_0_energy">   -353.46487817 </i>
   </energy>
  </scstep>
  <scstep>
   <time name="diag">    0.09    0.09</time>
   <time name="diis">    0.72    0.72</time>
   <time name="orth">    0.02    0.02</time>
   <time name="total">    0.90    0.96</time>
   <energy>
    <i name="e_fr_energy">   -353.46098564 </i>
    <i name="e_wo_entrp">   -353.47263446 </i>
    <i name="e_0_energy">   -353.46486858 </i>
   </energy>
  </scstep>
  <scstep>
   <time name="diag">    0.09    0.09</time>
   <time name="diis">    0.52    0.55</time>
   <time name="orth">    0.02    0.02</time>
   <time name="total">    0.67    0.74</time>
   <energy>
    <i name="alphaZ">   1748.71330222 </i>
    <i name="ewald"> -24276.13843014 </i>
    <i name="hartreedc">  -8631.21049096 </i>
    <i name="XCdc">    342.34185948 </i>
    <i name="pawpsdc">  39504.45268339 </i>
    <i name="pawaedc"> -38138.93919505 </i>
    <i name="eentropy">      0.01166103 </i>
    <i name="bandstr">  -3525.96863202 </i>
    <i name="atom">  32623.27625270 </i>
    <i name="e_fr_energy">   -353.46098935 </i>
    <i name="e_wo_entrp">   -353.47265038 </i>
    <i name="e_0_energy">   -353.46487636 </i>
   </energy>
  </scstep>
  <structure>
   <crystal>
    <varray name="basis" >
     <v>       6.98999418       0.02106614      -0.00177725 </v>
     <v>       0.03091871      10.23205884       0.01480758 </v>
     <v>      -0.00266238       0.01409481      10.25235052 </v>
    </varray>
    <i name="volume">    733.26075341 </i>
    <varray name="rec_basis" >
     <v>       0.14306295      -0.00043235       0.00003775 </v>
     <v>      -0.00029458       0.09773313      -0.00013444 </v>
     <v>       0.00002523      -0.00014123       0.09753881 </v>
    </varray>
   </crystal>
   <varray name="positions" >
    <v>       0.25821793       0.16811500       0.17928321 </v>
    <v>       0.98585532       0.00565834       0.00868320 </v>
    <v>       0.76362479       0.16346730       0.50196639 </v>
    <v>       0.76117220       0.17159394       0.82105630 </v>
    <v>       0.51508681       0.99848686       0.99589509 </v>
    <v>       0.72622555       0.17759308       0.17656943 </v>
    <v>       0.74092193       0.49041475       0.82900476 </v>
    <v>       0.48871256       0.66285261       0.65273437 </v>
    <v>       0.48139377       0.33161316       0.66029758 </v>
    <v>       0.76534535       0.83850341       0.81358637 </v>
    <v>       0.23598701       0.49530023       0.47533592 </v>
    <v>       0.72949673       0.49654388       0.17609806 </v>
    <v>       0.53206196       0.66760353       0.01082459 </v>
    <v>       0.04261965       0.00565282       0.66256084 </v>
    <v>       0.51699950       0.66944392       0.33892353 </v>
    <v>       0.76364820       0.49778448       0.48945066 </v>
    <v>       0.98140331       0.66876882       0.32603283 </v>
    <v>       0.00459062       0.98985791       0.33205848 </v>
    <v>       0.49100629       0.98958604       0.34613316 </v>
    <v>       0.74034867       0.83214884       0.18556575 </v>
    <v>       0.23437557       0.16829835       0.48951187 </v>
    <v>       0.50637228       0.33903355       0.34768417 </v>
    <v>       0.26499478       0.50266318       0.84824553 </v>
    <v>       0.98442032       0.34124862       0.32382817 </v>
    <v>       0.01861564       0.33823634       0.67031524 </v>
    <v>       0.24217448       0.83480039       0.48442384 </v>
    <v>       0.47897613       0.33507265       0.98893624 </v>
    <v>       0.23839141       0.17241120       0.83246204 </v>
    <v>       0.26431215       0.50510381       0.16979134 </v>
    <v>       0.00658745       0.33650538       0.00272584 </v>
    <v>       0.96956237       0.66179937       0.01127569 </v>
    <v>       0.25811581       0.82624371       0.16914778 </v>
    <v>       0.46780668       0.00305164       0.66138601 </v>
    <v>       0.76381454       0.83919478       0.50374106 </v>
    <v>       0.02549532       0.65324784       0.66364418 </v>
    <v>       0.25127193       0.82210328       0.85081350 </v>
   </varray>
  </structure>
  <varray name="forces" >
   <v>      -0.00156074       0.01763397       0.00781452 </v>
   <v>      -0.00213216      -0.00612451      -0.00570057 </v>
   <v>       0.00295989       0.01006479       0.00393712 </v>
   <v>      -0.00270435      -0.00544228      -0.00415522 </v>
   <v>       0.00225236      -0.00551487      -0.00230146 </v>
   <v>       0.00399533       0.00610422       0.01367584 </v>
   <v>       0.00263274       0.00155415      -0.00672901 </v>
   <v>       0.00022318       0.01188434      -0.00007275 </v>
   <v>      -0.00928596      -0.02207569       0.01521114 </v>
   <v>       0.00160832       0.00633387       0.00043318 </v>
   <v>       0.05345266      -0.01547606       0.05310749 </v>
   <v>      -0.00508060       0.00190859       0.00851347 </v>
   <v>       0.00975057       0.00065926       0.00357599 </v>
   <v>       0.00286296      -0.00772351       0.01524063 </v>
   <v>       0.02312388       0.01352633      -0.02530846 </v>
   <v>      -0.05428920       0.00586474      -0.01799610 </v>
   <v>      -0.01978776       0.00103476      -0.02163398 </v>
   <v>       0.00681311      -0.00591482       0.00251826 </v>
   <v>       0.00137114      -0.00159393      -0.00190339 </v>
   <v>      -0.00669470       0.00504377       0.00493690 </v>
   <v>      -0.00881795      -0.07080753      -0.00140614 </v>
   <v>      -0.00822006       0.01230614      -0.01774919 </v>
   <v>      -0.00715923       0.00106447       0.02201784 </v>
   <v>       0.00435723       0.01622102       0.02506131 </v>
   <v>      -0.00224811      -0.02033743       0.01289904 </v>
   <v>      -0.00377266       0.05040247      -0.01393007 </v>
   <v>       0.00416022      -0.00634027       0.00165747 </v>
   <v>      -0.00201616       0.00800202       0.00375141 </v>
   <v>       0.01240346       0.00935525      -0.05725513 </v>
   <v>       0.00306961       0.00163277      -0.00548002 </v>
   <v>      -0.01195168       0.00154137      -0.00041135 </v>
   <v>       0.00368325      -0.00811732       0.00405275 </v>
   <v>      -0.00007915       0.00080971       0.00623733 </v>
   <v>       0.00874781      -0.00467959      -0.00265601 </v>
   <v>      -0.00467600       0.00655643      -0.01311253 </v>
   <v>       0.00300877      -0.00935663      -0.00684028 </v>
  </varray>
  <varray name="stress" >
   <v>      -2.08216645      -0.00732428      -0.01365939 </v>
   <v>      -0.00732431      -1.76053058      -0.24714199 </v>
   <v>      -0.01365932      -0.24714196      -2.19446885 </v>
  </varray>
  <energy>
   <i name="e_fr_energy">   -353.46098935 </i>
   <i name="e_wo_entrp">   -353.46487636 </i>
   <i name="e_0_energy">      0.01166103 </i>
  </energy>
  <time name="totalsc">   10.82   12.13</time>
 </calculation>
 <calculation>
  <scstep>
   <time name="dav">    1.16    1.17</time>
   <time name="total">    1.23    1.45</time>
   <energy>
    <i name="alphaZ">   1749.89058546 </i>
    <i name="ewald"> -24280.54975706 </i>
    <i name="hartreedc">  -8634.03914068 </i>
    <i name="XCdc">    342.59331310 </i>
    <i name="pawpsdc">  39504.73194150 </i>
    <i name="pawaedc"> -38139.35503829 </i>
    <i name="eentropy">      0.01169639 </i>
    <i name="bandstr">  -3520.02305824 </i>
    <i name="atom">  32623.27625270 </i>
    <i name="e_fr_energy">   -353.46320510 </i>
    <i name="e_wo_entrp">   -353.47490150 </i>
    <i name="e_0_energy">   -353.46710390 </i>
   </energy>
  </scstep>
  <scstep>
   <time name="diag">    0.12    0.12</time>
   <time name="diis">    0.85    0.86</time>
   <time name="orth">    0.02    0.02</time>
   <time name="total">    1.06    1.11</time>
   <energy>
    <i name="e_fr_energy">   -353.46301596 </i>
    <i name="e_wo_entrp">   -353.47455571 </i>
    <i name="e_0_energy">   -353.46686255 </i>
   </energy>
  </scstep>
  <scstep>
   <time name="diag">    0.10    0.10</time>
   <time name="diis">    0.85    0.85</time>
   <time name="orth">    0.02    0.02</time>
   <time name="total">    1.04    1.09</time>
   <energy>
    <i name="e_fr_energy">   -353.46274429 </i>
    <i name="e_wo_entrp">   -353.47444489 </i>
    <i name="e_0_energy">   -353.46664449 </i>
   </energy>
  </scstep>
  <scstep>
   <time name="diag">    0.09    0.09</time>
   <time name="diis">    0.89    0.90</time>
   <time name="orth">    0.02    0.02</time>
   <time name="total">    1.07    1.15</time>
   <energy>
    <i name="e_fr_energy">   -353.46250093 </i>
    <i name="e_wo_entrp">   -353.47404300 </i>
    <i name="e_0_energy">   -353.46634829 </i>
   </energy>
  </scstep>
  <scstep>
   <time name="diag">    0.09    0.10</time>
   <time name="diis">    0.81    0.81</time>
   <time name="orth">    0.02    0.02</time>
   <time name="total">    0.99    1.03</time>
   <energy>
    <i name="e_fr_energy">   -353.46247252 </i>
    <i name="e_wo_entrp">   -353.47407441 </i>
    <i name="e_0_energy">   -353.46633981 </i>
   </energy>
  </scstep>
  <scstep>
   <time name="diag">    0.09    0.09</time>
   <time name="diis">    0.61    0.75</time>
   <time name="orth">    0.02    0.02</time>
   <time name="total">    0.77    0.95</time>
   <energy>
    <i name="alphaZ">   1749.89058546 </i>
    <i name="ewald"> -24280.54975706 </i>
    <i name="hartreedc">  -8630.17851121 </i>
    <i name="XCdc">    342.41386502 </i>
    <i name="pawpsdc">  39538.93575320 </i>
    <i name="pawaedc"> -38173.84483212 </i>
    <i name="eentropy">      0.01158146 </i>
    <i name="bandstr">  -3523.41741910 </i>
    <i name="atom">  32623.27625270 </i>
    <i name="e_fr_energy">   -353.46248165 </i>
    <i name="e_wo_entrp">   -353.47406312 </i>
    <i name="e_0_energy">   -353.46634214 </i>
   </energy>
  </scstep>
  <structure>
   <crystal>
    <varray name="basis" >
     <v>       6.98798710       0.02104643      -0.00181752 </v>
     <v>       0.03088359      10.23106794       0.01361733 </v>
     <v>      -0.00271788       0.01290530      10.24938492 </v>
    </varray>
    <i name="volume">    732.76743366 </i>
    <varray name="rec_basis" >
     <v>       0.14310404      -0.00043203       0.00003849 </v>
     <v>      -0.00029441       0.09774256      -0.00012315 </v>
     <v>       0.00002577      -0.00012994       0.09756700 </v>
    </varray>
   </crystal>
   <varray name="positions" >
    <v>       0.25821037       0.16815812       0.17930636 </v>
    <v>       0.98583914       0.00564074       0.00867134 </v>
    <v>       0.76363591       0.16349829       0.50198481 </v>
    <v>       0.76114693       0.17157468       0.82104196 </v>
    <v>       0.51510050       0.99847519       0.99588522 </v>
    <v>       0.72624207       0.17760336       0.17660236 </v>
    <v>       0.74093340       0.49042140       0.82898243 </v>
    <v>       0.48873269       0.66287753       0.65273002 </v>
    <v>       0.48137295       0.33156317       0.66034256 </v>
    <v>       0.76534455       0.83852536       0.81358772 </v>
    <v>       0.23626351       0.49524774       0.47556672 </v>
    <v>       0.72946326       0.49654377       0.17611352 </v>
    <v>       0.53208536       0.66760522       0.01084311 </v>
    <v>       0.04262188       0.00562869       0.66260079 </v>
    <v>       0.51712682       0.66951077       0.33884742 </v>
    <v>       0.76335259       0.49780235       0.48942691 </v>
    <v>       0.98130219       0.66881947       0.32594514 </v>
    <v>       0.00462181       0.98984499       0.33205883 </v>
    <v>       0.49101050       0.98958050       0.34611820 </v>
    <v>       0.74031558       0.83216014       0.18558987 </v>
    <v>       0.23434202       0.16805823       0.48950897 </v>
    <v>       0.50634047       0.33905449       0.34762357 </v>
    <v>       0.26496621       0.50266283       0.84832081 </v>
    <v>       0.98444163       0.34125718       0.32389318 </v>
    <v>       0.01859713       0.33816826       0.67035004 </v>
    <v>       0.24216564       0.83498740       0.48438823 </v>
    <v>       0.47898607       0.33505618       0.98895479 </v>
    <v>       0.23839706       0.17244103       0.83246948 </v>
    <v>       0.26436276       0.50511875       0.16954868 </v>
    <v>       0.00660961       0.33651798       0.00271158 </v>
    <v>       0.96953136       0.66180271       0.01127069 </v>
    <v>       0.25813135       0.82621918       0.16916976 </v>
    <v>       0.46781052       0.00305118       0.66140283 </v>
    <v>       0.76384031       0.83917335       0.50374064 </v>
    <v>       0.02546837       0.65327355       0.66360631 </v>
    <v>       0.25129249       0.82207919       0.85078811 </v>
   </varray>
  </structure>
  <varray name="forces" >
   <v>      -0.00209606       0.01702946       0.00509580 </v>
   <v>      -0.00003459      -0.00540608      -0.00586965 </v>
   <v>       0.00087652       0.00917801       0.00126188 </v>
   <v>      -0.00331210      -0.00631939      -0.00119384 </v>
   <v>       0.00049018      -0.00429170       0.00000862 </v>
   <v>       0.00473013       0.00378553       0.01284970 </v>
   <v>       0.00227152       0.00198243      -0.00751487 </v>
   <v>      -0.00191348       0.01468711       0.00223342 </v>
   <v>      -0.01071748      -0.02384335       0.01294665 </v>
   <v>       0.00155688       0.00443304       0.00243551 </v>
   <v>       0.04375677      -0.01129367       0.03155513 </v>
   <v>      -0.00024339       0.00099511       0.00693996 </v>
   <v>       0.00871792       0.00254287      -0.00156833 </v>
   <v>      -0.00253195      -0.00975628       0.01635294 </v>
   <v>       0.00995407       0.00560520      -0.02135926 </v>
   <v>      -0.04220700       0.00560565      -0.01754926 </v>
   <v>      -0.00891217      -0.01018191      -0.01365978 </v>
   <v>       0.00368481      -0.00220161       0.00137515 </v>
   <v>       0.00361648       0.00300998      -0.00241348 </v>
   <v>      -0.00386588       0.01114240      -0.00253944 </v>
   <v>      -0.00644615      -0.05457518      -0.00349948 </v>
   <v>      -0.01166775       0.01084300      -0.01789006 </v>
   <v>      -0.00811139       0.00382207       0.01674986 </v>
   <v>       0.00826092       0.01960727       0.02580004 </v>
   <v>      -0.00142877      -0.01648303       0.01139870 </v>
   <v>      -0.00390940       0.03306273      -0.01151047 </v>
   <v>       0.00887250      -0.00917663       0.00158622 </v>
   <v>      -0.00064120       0.00442123       0.00894150 </v>
   <v>       0.00950130       0.01132109      -0.03422321 </v>
   <v>      -0.00189432      -0.00181442      -0.00295328 </v>
   <v>      -0.01063643       0.00356232      -0.00004799 </v>
   <v>       0.00181398      -0.00602991      -0.00183077 </v>
   <v>       0.00535904      -0.00012542       0.00725573 </v>
   <v>       0.00887732      -0.00360034      -0.00127740 </v>
   <v>      -0.00401085       0.00652994      -0.01359615 </v>
   <v>       0.00224003      -0.00806754      -0.00429008 </v>
  </varray>
  <varray name="stress" >
   <v>      -1.62879229      -0.00681538      -0.02197622 </v>
   <v>      -0.00681540      -1.43340452      -0.20194294 </v>
   <v>      -0.02197619      -0.20194291      -1.75952744 </v>
  </varray>
  <energy>
   <i name="e_fr_energy">   -353.46248165 </i>
   <i name="e_wo_entrp">   -353.46634214 </i>
   <i name="e_0_energy">      0.01158146 </i>
  </energy>
  <time name="totalsc">    7.89    8.67</time>
 </calculation>
 <calculation>
  <scstep>
   <time name="dav">    1.08    1.09</time>
   <time name="total">    1.16    1.37</time>
   <energy>
    <i name="alphaZ">   1753.42932340 </i>
    <i name="ewald"> -24293.71829820 </i>
    <i name="hartreedc">  -8639.09011297 </i>
    <i name="XCdc">    343.18449528 </i>
    <i name="pawpsdc">  39535.97494884 </i>
    <i name="pawaedc"> -38170.87193683 </i>
    <i name="eentropy">      0.01163298 </i>
    <i name="bandstr">  -3505.66586155 </i>
    <i name="atom">  32623.27625270 </i>
    <i name="e_fr_energy">   -353.46955636 </i>
    <i name="e_wo_entrp">   -353.48118934 </i>
    <i name="e_0_energy">   -353.47343402 </i>
   </energy>
  </scstep>
  <scstep>
   <time name="diag">    0.09    0.09</time>
   <time name="diis">    0.76    0.77</time>
   <time name="orth">    0.02    0.02</time>
   <time name="total">    0.94    0.98</time>
   <energy>
    <i name="e_fr_energy">   -353.46829137 </i>
    <i name="e_wo_entrp">   -353.47948303 </i>
    <i name="e_0_energy">   -353.47202192 </i>
   </energy>
  </scstep>
  <scstep>
   <time name="diag">    0.09    0.09</time>
   <time name="diis">    0.93    0.93</time>
   <time name="orth">    0.02    0.02</time>
   <time name="total">    1.10    1.17</time>
   <energy>
    <i name="e_fr_energy">   -353.46559568 </i>
    <i name="e_wo_entrp">   -353.47724897 </i>
    <i name="e_0_energy">   -353.46948011 </i>
   </energy>
  </scstep>
  <scstep>
   <time name="diag">    0.09    0.09</time>
   <time name="diis">    0.94    0.95</time>
   <time name="orth">    0.02    0.02</time>
   <time name="total">    1.15    1.20</time>
   <energy>
    <i name="e_fr_energy">   -353.46360660 </i>
    <i name="e_wo_entrp">   -353.47479111 </i>
    <i name="e_0_energy">   -353.46733477 </i>
   </energy>
  </scstep>
  <scstep>
   <time name="diag">    0.10    0.10</time>
   <time name="diis">    0.86    0.87</time>
   <time name="orth">    0.02    0.02</time>
   <time name="total">    1.05    1.10</time>
   <energy>
    <i name="e_fr_energy">   -353.46337560 </i>
    <i name="e_wo_entrp">   -353.47474665 </i>
    <i name="e_0_energy">   -353.46716595 </i>
   </energy>
  </scstep>
  <scstep>
   <time name="diag">    0.09    0.09</time>
   <time name="diis">    0.89    0.90</time>
   <time name="orth">    0.02    0.02</time>
   <time name="total">    1.07    1.12</time>
   <energy>
    <i name="e_fr_energy">   -353.46344105 </i>
    <i name="e_wo_entrp">   -353.47474372 </i>
    <i name="e_0_energy">   -353.46720860 </i>
   </energy>
  </scstep>
  <scstep>
   <time name="diag">    0.09    0.09</time>
   <time name="diis">    0.72    0.85</time>
   <time name="orth">    0.02    0.02</time>
   <time name="total">    0.90    1.08</time>
   <energy>
    <i name="e_fr_energy">   -353.46345681 </i>
    <i name="e_wo_entrp">   -353.47475451 </i>
    <i name="e_0_energy">   -353.46722271 </i>
   </energy>
  </scstep>
  <scstep>
   <time name="diag">    0.14    0.14</time>
   <time name="diis">    0.70    0.71</time>
   <time name="orth">    0.02    0.02</time>
   <time name="total">    0.93    1.00</time>
   <energy>
    <i name="e_fr_energy">   -353.46348723 </i>
    <i name="e_wo_entrp">   -353.47481282 </i>
    <i name="e_0_energy">   -353.46726243 </i>
   </energy>
  </scstep>
  <scstep>
   <time name="diag">    0.10    0.10</time>
   <time name="diis">    0.55    0.56</time>
   <time name="orth">    0.02    0.02</time>
   <time name="total">    0.73    0.78</time>
   <energy>
    <i name="e_fr_energy">   -353.46350498 </i>
    <i name="e_wo_entrp">   -353.47481758 </i>
    <i name="e_0_energy">   -353.46727584 </i>
   </energy>
  </scstep>
  <scstep>
   <time name="diag">    0.09    0.09</time>
   <time name="diis">    0.51    0.51</time>
   <time name="orth">    0.02    0.02</time>
   <time name="total">    0.68    0.73</time>
   <energy>
    <i name="e_fr_energy">   -353.46352263 </i>
    <i name="e_wo_entrp">   -353.47483202 </i>
    <i name="e_0_energy">   -353.46729243 </i>
   </energy>
  </scstep>
  <scstep>
   <time name="diag">    0.09    0.09</time>
   <time name="diis">    0.45    0.45</time>
   <time name="orth">    0.02    0.02</time>
   <time name="total">    0.62    0.71</time>
   <energy>
    <i name="e_fr_energy">   -353.46353798 </i>
    <i name="e_wo_entrp">   -353.47485013 </i>
    <i name="e_0_energy">   -353.46730869 </i>
   </energy>
  </scstep>
  <scstep>
   <time name="diag">    0.09    0.09</time>
   <time name="diis">    0.43    0.43</time>
   <time name="orth">    0.02    0.02</time>
   <time name="total">    0.56    0.61</time>
   <energy>
    <i name="alphaZ">   1753.42932340 </i>
    <i name="ewald"> -24293.71829820 </i>
    <i name="hartreedc">  -8628.59613651 </i>
    <i name="XCdc">    342.69393148 </i>
    <i name="pawpsdc">  39629.76377237 </i>
    <i name="pawaedc"> -38264.35541266 </i>
    <i name="eentropy">      0.01131024 </i>
    <i name="bandstr">  -3515.96828410 </i>
    <i name="atom">  32623.27625270 </i>
    <i name="e_fr_energy">   -353.46354128 </i>
    <i name="e_wo_entrp">   -353.47485153 </i>
    <i name="e_0_energy">   -353.46731136 </i>
   </energy>
  </scstep>
  <structure>
   <crystal>
    <varray name="basis" >
     <v>       6.98196584       0.02098733      -0.00193831 </v>
     <v>       0.03077823      10.22809523       0.01004658 </v>
     <v>      -0.00288438       0.00933678      10.24048813 </v>
    </varray>
    <i name="volume">    731.28857627 </i>
    <varray name="rec_basis" >
     <v>       0.14322744      -0.00043104       0.00004074 </v>
     <v>      -0.00029392       0.09777089      -0.00008923 </v>
     <v>       0.00002740      -0.00009600       0.09765169 </v>
    </varray>
   </crystal>
   <varray name="positions" >
    <v>       0.25818768       0.16828749       0.17937586 </v>
    <v>       0.98579059       0.00558796       0.00863576 </v>
    <v>       0.76366927       0.16359128       0.50204009 </v>
    <v>       0.76107112       0.17151687       0.82099893 </v>
    <v>       0.51514160       0.99844017       0.99585561 </v>
    <v>       0.72629165       0.17763422       0.17670118 </v>
    <v>       0.74096783       0.49044134       0.82891543 </v>
    <v>       0.48879311       0.66295231       0.65271699 </v>
    <v>       0.48131047       0.33141323       0.66047755 </v>
    <v>       0.76534214       0.83859124       0.81359177 </v>
    <v>       0.23709325       0.49509034       0.47625931 </v>
    <v>       0.72936284       0.49654344       0.17615992 </v>
    <v>       0.53215561       0.66761031       0.01089871 </v>
    <v>       0.04262855       0.00555633       0.66272069 </v>
    <v>       0.51750889       0.66971131       0.33861904 </v>
    <v>       0.76246548       0.49785596       0.48935566 </v>
    <v>       0.98099874       0.66897140       0.32568204 </v>
    <v>       0.00471539       0.98980621       0.33205987 </v>
    <v>       0.49102314       0.98956389       0.34607332 </v>
    <v>       0.74021627       0.83219406       0.18566227 </v>
    <v>       0.23424134       0.16733780       0.48950018 </v>
    <v>       0.50624501       0.33911732       0.34744173 </v>
    <v>       0.26488045       0.50266181       0.84854674 </v>
    <v>       0.98450559       0.34128287       0.32408826 </v>
    <v>       0.01854158       0.33796402       0.67045443 </v>
    <v>       0.24213911       0.83554848       0.48428142 </v>
    <v>       0.47901593       0.33500676       0.98901046 </v>
    <v>       0.23841400       0.17253051       0.83249184 </v>
    <v>       0.26451463       0.50516349       0.16882049 </v>
    <v>       0.00667613       0.33655580       0.00266882 </v>
    <v>       0.96943828       0.66181274       0.01125570 </v>
    <v>       0.25817800       0.82614558       0.16923569 </v>
    <v>       0.46782203       0.00304982       0.66145330 </v>
    <v>       0.76391762       0.83910906       0.50373935 </v>
    <v>       0.02538747       0.65335068       0.66349267 </v>
    <v>       0.25135421       0.82200693       0.85071192 </v>
   </varray>
  </structure>
  <varray name="forces" >
   <v>      -0.00454814       0.01606325      -0.00447775 </v>
   <v>       0.00766799      -0.00049078      -0.00790112 </v>
   <v>      -0.00421874       0.00687486      -0.00145357 </v>
   <v>      -0.00444199      -0.00265913       0.00457890 </v>
   <v>      -0.00625025       0.00071400       0.00344837 </v>
   <v>       0.00757127      -0.00158702       0.00736041 </v>
   <v>       0.00509256       0.00042388      -0.01117956 </v>
   <v>      -0.00670699       0.01970275       0.01207521 </v>
   <v>      -0.01131613      -0.02782358       0.00962506 </v>
   <v>       0.00217825      -0.00321498       0.00387381 </v>
   <v>       0.01222676       0.00210063      -0.02140719 </v>
   <v>       0.01425876      -0.00423877      -0.00159152 </v>
   <v>       0.00439939       0.00562850      -0.02380243 </v>
   <v>      -0.02055325      -0.01426262       0.02272984 </v>
   <v>      -0.02692088      -0.01953417      -0.00500182 </v>
   <v>      -0.00415259       0.00493389      -0.00777061 </v>
   <v>       0.02113251      -0.04532348       0.01366395 </v>
   <v>      -0.00673013       0.00955458      -0.00188300 </v>
   <v>       0.01091546       0.01714799      -0.00125552 </v>
   <v>       0.00338099       0.02826538      -0.02405677 </v>
   <v>      -0.00016327       0.00008034      -0.00513263 </v>
   <v>      -0.01789943       0.00843147      -0.01074283 </v>
   <v>      -0.01476924       0.00903492      -0.00579504 </v>
   <v>       0.01640105       0.03121010       0.02552036 </v>
   <v>      -0.00298279      -0.00267075       0.00865105 </v>
   <v>      -0.00488243      -0.02528270      -0.00174749 </v>
   <v>       0.02352961      -0.01538150      -0.00311481 </v>
   <v>       0.00274064      -0.00482517       0.02115425 </v>
   <v>      -0.00045986       0.01633054       0.02814434 </v>
   <v>      -0.01654084      -0.01037229      -0.00296420 </v>
   <v>      -0.00368461       0.00497946      -0.00734288 </v>
   <v>      -0.00247794       0.00123864      -0.02093519 </v>
   <v>       0.02343073      -0.00068389       0.01198254 </v>
   <v>       0.00915994      -0.00110394       0.00684084 </v>
   <v>      -0.00338541       0.00350400      -0.01021542 </v>
   <v>      -0.00100100      -0.00676440       0.00012244 </v>
  </varray>
  <varray name="stress" >
   <v>       1.31954414      -0.00330246      -0.01124862 </v>
   <v>      -0.00330252       1.18118808       0.03427791 </v>
   <v>      -0.01124865       0.03427788       1.17888210 </v>
  </varray>
  <energy>
   <i name="e_fr_energy">   -353.46354128 </i>
   <i name="e_wo_entrp">   -353.46731136 </i>
   <i name="e_0_energy">      0.01131024 </i>
  </energy>
  <time name="totalsc">   12.71   13.86</time>
 </calculation>
 <calculation>
  <scstep>
   <time name="dav">    1.16    1.23</time>
   <time name="total">    1.25    1.63</time>
   <energy>
    <i name="alphaZ">   1752.40679831 </i>
    <i name="ewald"> -24289.92724865 </i>
    <i name="hartreedc">  -8626.02297747 </i>
    <i name="XCdc">    342.47195683 </i>
    <i name="pawpsdc">  39629.82991914 </i>
    <i name="pawaedc"> -38264.42335847 </i>
    <i name="eentropy">      0.01129372 </i>
    <i name="bandstr">  -3521.08697328 </i>
    <i name="atom">  32623.27625270 </i>
    <i name="e_fr_energy">   -353.46433718 </i>
    <i name="e_wo_entrp">   -353.47563091 </i>
    <i name="e_0_energy">   -353.46810176 </i>
   </energy>
  </scstep>
  <scstep>
   <time name="diag">    0.09    0.10</time>
   <time name="diis">    0.79    0.79</time>
   <time name="orth">    0.02    0.02</time>
   <time name="total">    0.97    1.08</time>
   <energy>
    <i name="e_fr_energy">   -353.46424646 </i>
    <i name="e_wo_entrp">   -353.47567089 </i>
    <i name="e_0_energy">   -353.46805460 </i>
   </energy>
  </scstep>
  <scstep>
   <time name="diag">    0.10    0.10</time>
   <time name="diis">    0.81    0.95</time>
   <time name="orth">    0.02    0.02</time>
   <time name="total">    0.99    1.18</time>
   <energy>
    <i name="e_fr_energy">   -353.46401926 </i>
    <i name="e_wo_entrp">   -353.47530867 </i>
    <i name="e_0_energy">   -353.46778239 </i>
   </energy>
  </scstep>
  <scstep>
   <time name="diag">    0.09    0.09</time>
   <time name="diis">    0.85    0.86</time>
   <time name="orth">    0.02    0.02</time>
   <time name="total">    1.03    1.10</time>
   <energy>
    <i name="e_fr_energy">   -353.46383840 </i>
    <i name="e_wo_entrp">   -353.47526833 </i>
    <i name="e_0_energy">   -353.46764838 </i>
   </energy>
  </scstep>
  <scstep>
   <time name="diag">    0.10    0.10</time>
   <time name="diis">    0.78    0.81</time>
   <time name="orth">    0.02    0.02</time>
   <time name="total">    0.96    1.06</time>
   <energy>
    <i name="e_fr_energy">   -353.46381077 </i>
    <i name="e_wo_entrp">   -353.47518635 </i>
    <i name="e_0_energy">   -353.46760263 </i>
   </energy>
  </scstep>
  <scstep>
   <time name="diag">    0.09    0.09</time>
   <time name="diis">    0.54    0.55</time>
   <time name="orth">    0.02    0.02</time>
   <time name="total">    0.68    0.76</time>
   <energy>
    <i name="alphaZ">   1752.40679831 </i>
    <i name="ewald"> -24289.92724865 </i>
    <i name="hartreedc">  -8629.29775599 </i>
    <i name="XCdc">    342.62442530 </i>
    <i name="pawpsdc">  39599.86015850 </i>
    <i name="pawaedc"> -38234.29505301 </i>
    <i name="eentropy">      0.01139572 </i>
    <i name="bandstr">  -3518.12277674 </i>
    <i name="atom">  32623.27625270 </i>
    <i name="e_fr_energy">   -353.46380387 </i>
    <i name="e_wo_entrp">   -353.47519959 </i>
    <i name="e_0_energy">   -353.46760244 </i>
   </energy>
  </scstep>
  <structure>
   <crystal>
    <varray name="basis" >
     <v>       6.98370389       0.02100439      -0.00190344 </v>
     <v>       0.03080865      10.22895331       0.01107728 </v>
     <v>      -0.00283632       0.01036684      10.24305620 </v>
    </varray>
    <i name="volume">    731.71528136 </i>
    <varray name="rec_basis" >
     <v>       0.14319180      -0.00043132       0.00004009 </v>
     <v>      -0.00029406       0.09776271      -0.00009903 </v>
     <v>       0.00002693      -0.00010580       0.09762723 </v>
    </varray>
   </crystal>
   <varray name="positions" >
    <v>       0.25819423       0.16825013       0.17935577 </v>
    <v>       0.98580461       0.00560320       0.00864604 </v>
    <v>       0.76365963       0.16356442       0.50202411 </v>
    <v>       0.76109302       0.17153357       0.82101137 </v>
    <v>       0.51512973       0.99845028       0.99586416 </v>
    <v>       0.72627732       0.17762530       0.17667262 </v>
    <v>       0.74095788       0.49043559       0.82893479 </v>
    <v>       0.48877565       0.66293072       0.65272075 </v>
    <v>       0.48132852       0.33145651       0.66043856 </v>
    <v>       0.76534284       0.83857222       0.81359060 </v>
    <v>       0.23685354       0.49513572       0.47605923 </v>
    <v>       0.72939185       0.49654353       0.17614651 </v>
    <v>       0.53213531       0.66760884       0.01088265 </v>
    <v>       0.04262662       0.00557721       0.66268606 </v>
    <v>       0.51739851       0.66965343       0.33868500 </v>
    <v>       0.76272177       0.49784049       0.48937624 </v>
    <v>       0.98108641       0.66892756       0.32575803 </v>
    <v>       0.00468835       0.98981740       0.33205957 </v>
    <v>       0.49101949       0.98956869       0.34608629 </v>
    <v>       0.74024496       0.83218426       0.18564135 </v>
    <v>       0.23427043       0.16754581       0.48950279 </v>
    <v>       0.50627259       0.33909920       0.34749426 </v>
    <v>       0.26490522       0.50266208       0.84848147 </v>
    <v>       0.98448711       0.34127543       0.32403190 </v>
    <v>       0.01855763       0.33802298       0.67042429 </v>
    <v>       0.24214677       0.83538648       0.48431222 </v>
    <v>       0.47900730       0.33502102       0.98899439 </v>
    <v>       0.23840910       0.17250467       0.83248537 </v>
    <v>       0.26447076       0.50515064       0.16903086 </v>
    <v>       0.00665691       0.33654488       0.00268117 </v>
    <v>       0.96946517       0.66180984       0.01126003 </v>
    <v>       0.25816453       0.82616683       0.16921665 </v>
    <v>       0.46781870       0.00305021       0.66143872 </v>
    <v>       0.76389529       0.83912762       0.50373973 </v>
    <v>       0.02541084       0.65332842       0.66352549 </v>
    <v>       0.25133638       0.82202780       0.85073394 </v>
   </varray>
  </structure>
  <varray name="forces" >
   <v>      -0.00393047       0.01656547      -0.00175457 </v>
   <v>       0.00578231      -0.00109504      -0.00728023 </v>
   <v>      -0.00258984       0.00783734       0.00004067 </v>
   <v>      -0.00392006      -0.00211364       0.00251467 </v>
   <v>      -0.00472094      -0.00016490       0.00189718 </v>
   <v>       0.00679229       0.00005088       0.00841099 </v>
   <v>       0.00491781       0.00033418      -0.01032698 </v>
   <v>      -0.00526818       0.01732211       0.01009406 </v>
   <v>      -0.01052087      -0.02641421       0.01148007 </v>
   <v>       0.00219815      -0.00166838       0.00254337 </v>
   <v>       0.02140351      -0.00166677      -0.00254029 </v>
   <v>       0.00962669      -0.00339367       0.00014883 </v>
   <v>       0.00521254       0.00401233      -0.01884558 </v>
   <v>      -0.01517799      -0.01237703       0.02161033 </v>
   <v>      -0.01483123      -0.01273877      -0.00909126 </v>
   <v>      -0.01588197       0.00525442      -0.00839686 </v>
   <v>       0.01135374      -0.03577898       0.00613606 </v>
   <v>      -0.00413512       0.00662033      -0.00182182 </v>
   <v>       0.00945236       0.01389470      -0.00177126 </v>
   <v>       0.00072409       0.02381164      -0.01755396 </v>
   <v>      -0.00216048      -0.01579848      -0.00385355 </v>
   <v>      -0.01595517       0.00947848      -0.01134783 </v>
   <v>      -0.01356559       0.00669138      -0.00057836 </v>
   <v>       0.01396891       0.02865807       0.02591789 </v>
[...]
       <r>    7.6755    1.0000 </r>
       <r>    7.7509    1.0001 </r>
       <r>    7.7769    1.0003 </r>
       <r>    7.8112    1.0008 </r>
       <r>    7.8413    1.0019 </r>
       <r>    7.8743    1.0046 </r>
       <r>    7.9141    1.0111 </r>
       <r>    7.9389    1.0173 </r>
       <r>    7.9759    1.0284 </r>
       <r>    8.0095    1.0353 </r>
       <r>    8.0357    1.0318 </r>
       <r>    8.0863    0.9752 </r>
       <r>    8.1111    0.9114 </r>
       <r>    8.1487    0.7638 </r>
       <r>    8.1763    0.6226 </r>
       <r>    8.1933    0.5285 </r>
       <r>    8.2492    0.2306 </r>
       <r>    8.2802    0.1059 </r>
       <r>    8.3154    0.0151 </r>
       <r>    8.3568   -0.0300 </r>
       <r>    8.3895   -0.0351 </r>
       <r>    8.4164   -0.0296 </r>
       <r>    8.4592   -0.0169 </r>
       <r>    8.5019   -0.0074 </r>
       <r>    8.5544   -0.0020 </r>
       <r>    8.5781   -0.0010 </r>
       <r>    8.6256   -0.0002 </r>
       <r>    8.6679   -0.0000 </r>
       <r>    8.6966   -0.0000 </r>
       <r>    8.7325   -0.0000 </r>
       <r>    8.7970   -0.0000 </r>
       <r>    8.8620   -0.0000 </r>
       <r>    8.9079   -0.0000 </r>
       <r>    8.9699   -0.0000 </r>
       <r>    9.0338   -0.0000 </r>
       <r>    9.1059   -0.0000 </r>
       <r>    9.1810   -0.0000 </r>
       <r>    9.3077   -0.0000 </r>
       <r>    9.4237   -0.0000 </r>
       <r>    9.5372   -0.0000 </r>
       <r>    9.9393   -0.0000 </r>
       <r>   10.0568   -0.0000 </r>
       <r>   10.0910   -0.0000 </r>
       <r>   10.1347   -0.0000 </r>
       <r>   10.2080   -0.0000 </r>
       <r>   10.2821   -0.0000 </r>
       <r>   10.3475   -0.0000 </r>
       <r>   10.4097   -0.0000 </r>
       <r>   10.4989   -0.0000 </r>
      </set>
     </set>
    </set>
   </array>
  </eigenvalues>
  <separator name="orbital magnetization" >
   <v name="MAGDIPOLOUT">      0.00000000      0.00000000      0.00000000</v>
  </separator>
  <dos>
   <i name="efermi">      8.19832710 </i>
   <total>
    <array>
     <dimension dim="1">gridpoints</dimension>
     <dimension dim="2">spin</dimension>
     <field>energy</field>
     <field>total</field>
     <field>integrated</field>
     <set>
      <set comment="spin 1">
       <r>   -48.9773     0.0000     0.0000 </r>
       <r>   -48.7695     0.0000     0.0000 </r>
       <r>   -48.5617     0.0000     0.0000 </r>
       <r>   -48.3539     0.0000     0.0000 </r>
       <r>   -48.1461     0.0000     0.0000 </r>
       <r>   -47.9383     0.0000     0.0000 </r>
       <r>   -47.7305     0.0000     0.0000 </r>
       <r>   -47.5227    -0.0000    -0.0000 </r>
       <r>   -47.3149    -0.0000    -0.0000 </r>
       <r>   -47.1071    -0.0000    -0.0000 </r>
       <r>   -46.8993    -0.0000    -0.0000 </r>
       <r>   -46.6915    -0.0000    -0.0000 </r>
       <r>   -46.4837    -0.0535    -0.0111 </r>
       <r>   -46.2759    -1.5284    -0.3287 </r>
       <r>   -46.0681    33.1424     6.5584 </r>
       <r>   -45.8602    66.8203    20.4438 </r>
       <r>   -45.6524     8.2266    22.1533 </r>
       <r>   -45.4446    -0.7353    22.0006 </r>
       <r>   -45.2368    -0.0027    22.0000 </r>
       <r>   -45.0290    -0.0000    22.0000 </r>
       <r>   -44.8212    -0.0000    22.0000 </r>
       <r>   -44.6134     0.0000    22.0000 </r>
       <r>   -44.4056     0.0000    22.0000 </r>
       <r>   -44.1978     0.0000    22.0000 </r>
       <r>   -43.9900     0.0000    22.0000 </r>
       <r>   -43.7822     0.0000    22.0000 </r>
       <r>   -43.5744     0.0000    22.0000 </r>
       <r>   -43.3666     0.0000    22.0000 </r>
       <r>   -43.1588     0.0000    22.0000 </r>
       <r>   -42.9510     0.0000    22.0000 </r>
       <r>   -42.7432     0.0000    22.0000 </r>
       <r>   -42.5354     0.0000    22.0000 </r>
       <r>   -42.3276     0.0000    22.0000 </r>
       <r>   -42.1198     0.0000    22.0000 </r>
       <r>   -41.9120     0.0000    22.0000 </r>
       <r>   -41.7042     0.0000    22.0000 </r>
       <r>   -41.4964     0.0000    22.0000 </r>
       <r>   -41.2886    -0.0000    22.0000 </r>
       <r>   -41.0808    -0.0000    22.0000 </r>
       <r>   -40.8730    -0.0000    22.0000 </r>
       <r>   -40.6652    -0.0000    22.0000 </r>
       <r>   -40.4574    -0.0213    21.9956 </r>
       <r>   -40.2496    -1.7964    21.6223 </r>
       <r>   -40.0418    28.9647    27.6412 </r>
       <r>   -39.8340    69.6275    42.1100 </r>
       <r>   -39.6262     9.3313    44.0491 </r>
       <r>   -39.4184    -0.1974    44.0081 </r>
       <r>   -39.2106    -0.0388    44.0000 </r>
       <r>   -39.0027    -0.0000    44.0000 </r>
       <r>   -38.7949    -0.0000    44.0000 </r>
       <r>   -38.5871     0.0000    44.0000 </r>
       <r>   -38.3793     0.0000    44.0000 </r>
       <r>   -38.1715     0.0000    44.0000 </r>
       <r>   -37.9637     0.0000    44.0000 </r>
       <r>   -37.7559     0.0000    44.0000 </r>
       <r>   -37.5481     0.0000    44.0000 </r>
       <r>   -37.3403     0.0000    44.0000 </r>
       <r>   -37.1325     0.0000    44.0000 </r>
       <r>   -36.9247     0.0000    44.0000 </r>
       <r>   -36.7169     0.0000    44.0000 </r>
       <r>   -36.5091     0.0000    44.0000 </r>
       <r>   -36.3013     0.0000    44.0000 </r>
       <r>   -36.0935     0.0000    44.0000 </r>
       <r>   -35.8857     0.0000    44.0000 </r>
       <r>   -35.6779     0.0000    44.0000 </r>
       <r>   -35.4701     0.0000    44.0000 </r>
       <r>   -35.2623     0.0000    44.0000 </r>
       <r>   -35.0545     0.0000    44.0000 </r>
       <r>   -34.8467     0.0000    44.0000 </r>
       <r>   -34.6389     0.0000    44.0000 </r>
       <r>   -34.4311     0.0000    44.0000 </r>
       <r>   -34.2233     0.0000    44.0000 </r>
       <r>   -34.0155     0.0000    44.0000 </r>
       <r>   -33.8077     0.0000    44.0000 </r>
       <r>   -33.5999     0.0000    44.0000 </r>
       <r>   -33.3921     0.0000    44.0000 </r>
       <r>   -33.1843     0.0000    44.0000 </r>
       <r>   -32.9765     0.0000    44.0000 </r>
       <r>   -32.7687     0.0000    44.0000 </r>
       <r>   -32.5609     0.0000    44.0000 </r>
       <r>   -32.3531     0.0000    44.0000 </r>
       <r>   -32.1452     0.0000    44.0000 </r>
       <r>   -31.9374     0.0000    44.0000 </r>
       <r>   -31.7296     0.0000    44.0000 </r>
       <r>   -31.5218     0.0000    44.0000 </r>
       <r>   -31.3140     0.0000    44.0000 </r>
       <r>   -31.1062     0.0000    44.0000 </r>
       <r>   -30.8984     0.0000    44.0000 </r>
       <r>   -30.6906     0.0000    44.0000 </r>
       <r>   -30.4828     0.0000    44.0000 </r>
       <r>   -30.2750     0.0000    44.0000 </r>
       <r>   -30.0672     0.0000    44.0000 </r>
       <r>   -29.8594     0.0000    44.0000 </r>
       <r>   -29.6516     0.0000    44.0000 </r>
       <r>   -29.4438     0.0000    44.0000 </r>
       <r>   -29.2360     0.0000    44.0000 </r>
       <r>   -29.0282     0.0000    44.0000 </r>
       <r>   -28.8204     0.0000    44.0000 </r>
       <r>   -28.6126     0.0000    44.0000 </r>
       <r>   -28.4048     0.0000    44.0000 </r>
       <r>   -28.1970     0.0000    44.0000 </r>
       <r>   -27.9892     0.0000    44.0000 </r>
       <r>   -27.7814     0.0000    44.0000 </r>
       <r>   -27.5736     0.0000    44.0000 </r>
       <r>   -27.3658     0.0000    44.0000 </r>
       <r>   -27.1580     0.0000    44.0000 </r>
       <r>   -26.9502     0.0000    44.0000 </r>
       <r>   -26.7424     0.0000    44.0000 </r>
       <r>   -26.5346     0.0000    44.0000 </r>
       <r>   -26.3268     0.0000    44.0000 </r>
       <r>   -26.1190     0.0000    44.0000 </r>
       <r>   -25.9112     0.0000    44.0000 </r>
       <r>   -25.7034     0.0000    44.0000 </r>
       <r>   -25.4956     0.0000    44.0000 </r>
       <r>   -25.2877     0.0000    44.0000 </r>
       <r>   -25.0799     0.0000    44.0000 </r>
       <r>   -24.8721     0.0000    44.0000 </r>
       <r>   -24.6643     0.0000    44.0000 </r>
       <r>   -24.4565     0.0000    44.0000 </r>
       <r>   -24.2487     0.0000    44.0000 </r>
       <r>   -24.0409     0.0000    44.0000 </r>
       <r>   -23.8331    -0.0000    44.0000 </r>
       <r>   -23.6253    -0.0000    44.0000 </r>
       <r>   -23.4175    -0.0000    44.0000 </r>
       <r>   -23.2097    -0.0000    44.0000 </r>
       <r>   -23.0019    -0.0025    43.9995 </r>
       <r>   -22.7941    -0.5119    43.8931 </r>
       <r>   -22.5863     5.1757    44.9686 </r>
       <r>   -22.3785    51.1871    55.6055 </r>
       <r>   -22.1707    79.7507    72.1779 </r>
       <r>   -21.9629   107.4820    94.5130 </r>
       <r>   -21.7551    62.9526   107.5947 </r>
       <r>   -21.5473    12.5603   110.2048 </r>
       <r>   -21.3395    -0.9796   110.0012 </r>
       <r>   -21.1317    -0.0059   110.0000 </r>
       <r>   -20.9239    -0.0000   110.0000 </r>
       <r>   -20.7161    -0.0000   110.0000 </r>
       <r>   -20.5083     0.0000   110.0000 </r>
       <r>   -20.3005     0.0000   110.0000 </r>
       <r>   -20.0927     0.0000   110.0000 </r>
       <r>   -19.8849    -0.0000   110.0000 </r>
       <r>   -19.6771    -0.0000   110.0000 </r>
       <r>   -19.4693    -0.0000   110.0000 </r>
       <r>   -19.2615    -0.0000   110.0000 </r>
       <r>   -19.0537    -0.0002   110.0000 </r>
       <r>   -18.8459    -0.1149   109.9761 </r>
       <r>   -18.6381     0.3497   110.0488 </r>
       <r>   -18.4302    21.5105   114.5187 </r>
       <r>   -18.2224    59.9554   126.9776 </r>
       <r>   -18.0146    96.1726   146.9626 </r>
       <r>   -17.8068   107.7432   169.3519 </r>
       <r>   -17.5990    33.1634   176.2434 </r>
       <r>   -17.3912    -1.0853   176.0179 </r>
       <r>   -17.1834    -0.0859   176.0000 </r>
       <r>   -16.9756    -0.0001   176.0000 </r>
       <r>   -16.7678    -0.0000   176.0000 </r>
       <r>   -16.5600     0.0000   176.0000 </r>
       <r>   -16.3522     0.0000   176.0000 </r>
       <r>   -16.1444     0.0000   176.0000 </r>
       <r>   -15.9366     0.0000   176.0000 </r>
       <r>   -15.7288     0.0000   176.0000 </r>
       <r>   -15.5210     0.0000   176.0000 </r>
       <r>   -15.3132     0.0000   176.0000 </r>
       <r>   -15.1054     0.0000   176.0000 </r>
       <r>   -14.8976     0.0000   176.0000 </r>
       <r>   -14.6898     0.0000   176.0000 </r>
       <r>   -14.4820     0.0000   176.0000 </r>
       <r>   -14.2742     0.0000   176.0000 </r>
       <r>   -14.0664     0.0000   176.0000 </r>
       <r>   -13.8586     0.0000   176.0000 </r>
       <r>   -13.6508     0.0000   176.0000 </r>
       <r>   -13.4430     0.0000   176.0000 </r>
       <r>   -13.2352     0.0000   176.0000 </r>
       <r>   -13.0274     0.0000   176.0000 </r>
       <r>   -12.8196     0.0000   176.0000 </r>
       <r>   -12.6118     0.0000   176.0000 </r>
       <r>   -12.4040     0.0000   176.0000 </r>
       <r>   -12.1962     0.0000   176.0000 </r>
       <r>   -11.9884     0.0000   176.0000 </r>
       <r>   -11.7806     0.0000   176.0000 </r>
       <r>   -11.5727     0.0000   176.0000 </r>
       <r>   -11.3649     0.0000   176.0000 </r>
       <r>   -11.1571     0.0000   176.0000 </r>
       <r>   -10.9493     0.0000   176.0000 </r>
       <r>   -10.7415     0.0000   176.0000 </r>
       <r>   -10.5337     0.0000   176.0000 </r>
       <r>   -10.3259     0.0000   176.0000 </r>
       <r>   -10.1181     0.0000   176.0000 </r>
       <r>    -9.9103     0.0000   176.0000 </r>
       <r>    -9.7025     0.0000   176.0000 </r>
       <r>    -9.4947     0.0000   176.0000 </r>
       <r>    -9.2869     0.0000   176.0000 </r>
       <r>    -9.0791     0.0000   176.0000 </r>
       <r>    -8.8713     0.0000   176.0000 </r>
       <r>    -8.6635     0.0000   176.0000 </r>
       <r>    -8.4557     0.0000   176.0000 </r>
       <r>    -8.2479     0.0000   176.0000 </r>
       <r>    -8.0401     0.0000   176.0000 </r>
       <r>    -7.8323     0.0000   176.0000 </r>
       <r>    -7.6245     0.0000   176.0000 </r>
       <r>    -7.4167     0.0000   176.0000 </r>
       <r>    -7.2089     0.0000   176.0000 </r>
       <r>    -7.0011     0.0000   176.0000 </r>
       <r>    -6.7933     0.0000   176.0000 </r>
       <r>    -6.5855     0.0000   176.0000 </r>
       <r>    -6.3777     0.0000   176.0000 </r>
       <r>    -6.1699     0.0000   176.0000 </r>
       <r>    -5.9621     0.0000   176.0000 </r>
       <r>    -5.7543     0.0000   176.0000 </r>
       <r>    -5.5465     0.0000   176.0000 </r>
       <r>    -5.3387     0.0000   176.0000 </r>
       <r>    -5.1309     0.0000   176.0000 </r>
       <r>    -4.9231     0.0000   176.0000 </r>
       <r>    -4.7152     0.0000   176.0000 </r>
       <r>    -4.5074     0.0000   176.0000 </r>
       <r>    -4.2996     0.0000   176.0000 </r>
       <r>    -4.0918     0.0000   176.0000 </r>
       <r>    -3.8840     0.0000   176.0000 </r>
       <r>    -3.6762     0.0000   176.0000 </r>
       <r>    -3.4684     0.0000   176.0000 </r>
       <r>    -3.2606     0.0000   176.0000 </r>
       <r>    -3.0528     0.0000   176.0000 </r>
       <r>    -2.8450     0.0000   176.0000 </r>
       <r>    -2.6372     0.0000   176.0000 </r>
       <r>    -2.4294     0.0000   176.0000 </r>
       <r>    -2.2216     0.0000   176.0000 </r>
       <r>    -2.0138     0.0000   176.0000 </r>
       <r>    -1.8060     0.0000   176.0000 </r>
       <r>    -1.5982     0.0000   176.0000 </r>
       <r>    -1.3904     0.0000   176.0000 </r>
       <r>    -1.1826     0.0000   176.0000 </r>
       <r>    -0.9748     0.0000   176.0000 </r>
       <r>    -0.7670     0.0000   176.0000 </r>
       <r>    -0.5592     0.0000   176.0000 </r>
       <r>    -0.3514     0.0000   176.0000 </r>
       <r>    -0.1436     0.0000   176.0000 </r>
       <r>     0.0642     0.0000   176.0000 </r>
       <r>     0.2720    -0.0000   176.0000 </r>
       <r>     0.4798    -0.0000   176.0000 </r>
       <r>     0.6876    -0.0000   176.0000 </r>
       <r>     0.8954    -0.0000   176.0000 </r>
       <r>     1.1032    -0.0000   176.0000 </r>
       <r>     1.3110    -0.0020   175.9996 </r>
       <r>     1.5188     0.0008   175.9997 </r>
       <r>     1.7266     0.4421   176.0916 </r>
       <r>     1.9344     1.6228   176.4288 </r>
       <r>     2.1423     1.5796   176.7571 </r>
       <r>     2.3501     2.8799   177.3555 </r>
       <r>     2.5579     3.5649   178.0963 </r>
       <r>     2.7657     2.0812   178.5288 </r>
       <r>     2.9735     1.5770   178.8565 </r>
       <r>     3.1813     5.4874   179.9968 </r>
       <r>     3.3891     2.2556   180.4655 </r>
       <r>     3.5969     7.4307   182.0097 </r>
       <r>     3.8047     5.2372   183.0980 </r>
       <r>     4.0125     7.5289   184.6625 </r>
       <r>     4.2203     9.9775   186.7359 </r>
       <r>     4.4281     7.3375   188.2606 </r>
       <r>     4.6359    14.8871   191.3542 </r>
       <r>     4.8437    19.6990   195.4477 </r>
       <r>     5.0515    24.3896   200.5160 </r>
       <r>     5.2593    28.3555   206.4083 </r>
       <r>     5.4671    34.7365   213.6267 </r>
       <r>     5.6749    40.3875   222.0193 </r>
       <r>     5.8827    42.2218   230.7931 </r>
       <r>     6.0905    39.0455   238.9069 </r>
       <r>     6.2983    33.8432   245.9396 </r>
       <r>     6.5061    35.8428   253.3879 </r>
       <r>     6.7139    20.9504   257.7414 </r>
       <r>     6.9217    43.9689   266.8783 </r>
       <r>     7.1295    60.2833   279.4053 </r>
       <r>     7.3373    58.7897   291.6220 </r>
       <r>     7.5451    54.7305   302.9952 </r>
       <r>     7.7529    52.8068   313.9686 </r>
       <r>     7.9607    54.4190   325.2770 </r>
       <r>     8.1685    49.5345   335.5704 </r>
       <r>     8.3763    49.7505   345.9087 </r>
       <r>     8.5841    51.3270   356.5746 </r>
       <r>     8.7919    44.7557   365.8750 </r>
       <r>     8.9998    36.6220   373.4852 </r>
       <r>     9.2076    28.5114   379.4099 </r>
       <r>     9.4154    21.0953   383.7936 </r>
       <r>     9.6232    15.5409   387.0230 </r>
       <r>     9.8310    17.2789   390.6136 </r>
       <r>    10.0388    28.4850   396.5329 </r>
       <r>    10.2466    31.1378   403.0034 </r>
       <r>    10.4544    19.6568   407.0882 </r>
       <r>    10.6622     4.6699   408.0586 </r>
       <r>    10.8700    -0.2755   408.0014 </r>
       <r>    11.0778    -0.0065   408.0000 </r>
       <r>    11.2856    -0.0000   408.0000 </r>
       <r>    11.4934    -0.0000   408.0000 </r>
       <r>    11.7012     0.0000   408.0000 </r>
       <r>    11.9090     0.0000   408.0000 </r>
       <r>    12.1168     0.0000   408.0000 </r>
       <r>    12.3246     0.0000   408.0000 </r>
       <r>    12.5324     0.0000   408.0000 </r>
       <r>    12.7402     0.0000   408.0000 </r>
       <r>    12.9480     0.0000   408.0000 </r>
       <r>    13.1558     0.0000   408.0000 </r>
       <r>    13.3636     0.0000   408.0000 </r>
      </set>
     </set>
    </array>
   </total>
  </dos>
 </calculation>
 <structure name="finalpos" >
  <crystal>
   <varray name="basis" >
    <v>       6.98393375       0.02092525      -0.00252617 </v>
    <v>       0.03068441      10.23163875       0.00912617 </v>
    <v>      -0.00374398       0.00841993      10.24196547 </v>
   </varray>
   <i name="volume">    731.85380836 </i>
   <varray name="rec_basis" >
    <v>       0.14318709      -0.00042946       0.00005270 </v>
    <v>      -0.00029287       0.09773700      -0.00008046 </v>
    <v>       0.00003558      -0.00008720       0.09763759 </v>
   </varray>
  </crystal>
  <varray name="positions" >
   <v>       0.25802796       0.16889816       0.17946632 </v>
   <v>       0.98629716       0.00565100       0.00845071 </v>
   <v>       0.76371305       0.16382810       0.50215817 </v>
   <v>       0.76088534       0.17142286       0.82102586 </v>
   <v>       0.51467714       0.99864088       0.99611631 </v>
   <v>       0.72692457       0.17765602       0.17711525 </v>
   <v>       0.74111923       0.49027226       0.82821326 </v>
   <v>       0.48845532       0.66355643       0.65291977 </v>
   <v>       0.48025352       0.33044645       0.66086603 </v>
   <v>       0.76542207       0.83850551       0.81369224 </v>
   <v>       0.23825314       0.49513293       0.47638538 </v>
   <v>       0.72968106       0.49649757       0.17618972 </v>
   <v>       0.53261493       0.66776545       0.01045579 </v>
   <v>       0.04244666       0.00515486       0.66319150 </v>
   <v>       0.51718123       0.66956903       0.33824779 </v>
   <v>       0.76141848       0.49799803       0.48930315 </v>
   <v>       0.98140404       0.66831800       0.32584399 </v>
   <v>       0.00462229       0.98992147       0.33199358 </v>
   <v>       0.49126922       0.98976155       0.34594942 </v>
   <v>       0.74030120       0.83254561       0.18549018 </v>
   <v>       0.23386725       0.16689509       0.48961391 </v>
   <v>       0.50590512       0.33947800       0.34694417 </v>
   <v>       0.26429899       0.50265684       0.84852473 </v>
   <v>       0.98498726       0.34225738       0.32484753 </v>
   <v>       0.01882518       0.33786705       0.67082226 </v>
   <v>       0.24185636       0.83548996       0.48406072 </v>
   <v>       0.47979733       0.33475095       0.98907342 </v>
   <v>       0.23855742       0.17235390       0.83307864 </v>
   <v>       0.26456375       0.50548109       0.16865677 </v>
   <v>       0.00614229       0.33642777       0.00250090 </v>
   <v>       0.96899449       0.66179655       0.01117844 </v>
   <v>       0.25809919       0.82606873       0.16892661 </v>
   <v>       0.46821976       0.00285955       0.66156658 </v>
   <v>       0.76430925       0.83903537       0.50354757 </v>
   <v>       0.02532044       0.65344666       0.66282294 </v>
   <v>       0.25129332       0.82159597       0.85075338 </v>
  </varray>
 </structure>
</modeling>
