       N       E                     dE             d eps       ncg     rms          rms(c)
DAV:   1     0.133314354714E+04    0.13331E+04   -0.90701E+04  4688   0.100E+03
DAV:   2    -0.147745436666E+03   -0.14809E+04   -0.14217E+04  4888   0.334E+02
DAV:   3    -0.354379687203E+03   -0.20663E+03   -0.19503E+03  7552   0.966E+01
DAV:   4    -0.379140084898E+03   -0.24760E+02   -0.23402E+02  7328   0.280E+01
DAV:   5    -0.381645486462E+03   -0.25054E+01   -0.24349E+01  7176   0.956E+00    0.669E+01
RMM:   6    -0.371370957020E+03    0.10275E+02   -0.20739E+01  6090   0.898E+00    0.326E+01
RMM:   7    -0.370122726986E+03    0.12482E+01   -0.23446E+01  6086   0.855E+00    0.820E+00
RMM:   8    -0.366940370526E+03    0.31824E+01   -0.45303E+00  6934   0.347E+00    0.372E+00
RMM:   9    -0.366789691248E+03    0.15068E+00   -0.14091E+00  6908   0.151E+00    0.261E+00
RMM:  10    -0.366759588376E+03    0.30103E-01   -0.31810E-01  6829   0.110E+00    0.107E+00
RMM:  11    -0.366744382278E+03    0.15206E-01   -0.10244E-01  6935   0.503E-01    0.571E-01
RMM:  12    -0.366741716078E+03    0.26662E-02   -0.42328E-02  6959   0.269E-01    0.359E-01
RMM:  13    -0.366740824637E+03    0.89144E-03   -0.15700E-02  6950   0.165E-01    0.232E-01
RMM:  14    -0.366741131449E+03   -0.30681E-03   -0.61610E-03  7083   0.904E-02    0.106E-01
RMM:  15    -0.366741341161E+03   -0.20971E-03   -0.27974E-03  6941   0.570E-02    0.479E-02
RMM:  16    -0.366741412436E+03   -0.71275E-04   -0.12321E-03  6113   0.355E-02    0.278E-02
RMM:  17    -0.366741436561E+03   -0.24125E-04   -0.49805E-04  5334   0.232E-02    0.148E-02
RMM:  18    -0.366741453602E+03   -0.17042E-04   -0.25577E-04  4808   0.169E-02    0.788E-03
RMM:  19    -0.366741460045E+03   -0.64431E-05   -0.10524E-04  3926   0.131E-02    0.422E-03
RMM:  20    -0.366741461554E+03   -0.15088E-05   -0.42833E-05  3588   0.115E-02
   1 F= -.36674146E+03 E0= -.36675019E+03  d E =-.366741E+03
       N       E                     dE             d eps       ncg     rms          rms(c)
DAV:   1    -0.366743137411E+03   -0.16774E-02   -0.61251E-02  5052   0.777E-01    0.241E-01
RMM:   2    -0.366742890371E+03    0.24704E-03   -0.46357E-03  6700   0.179E-01    0.865E-02
RMM:   3    -0.366742707164E+03    0.18321E-03   -0.10432E-03  6883   0.613E-02    0.632E-02
RMM:   4    -0.366742608979E+03    0.98185E-04   -0.27687E-04  6721   0.340E-02    0.343E-02
RMM:   5    -0.366742596430E+03    0.12549E-04   -0.79178E-05  5284   0.194E-02    0.240E-02
RMM:   6    -0.366742603097E+03   -0.66665E-05   -0.28020E-05  3021   0.114E-02
   2 F= -.36674260E+03 E0= -.36675133E+03  d E =-.114154E-02
       N       E                     dE             d eps       ncg     rms          rms(c)
DAV:   1    -0.366748847289E+03   -0.62509E-02   -0.54958E-01  4816   0.233E+00    0.719E-01
RMM:   2    -0.366746625058E+03    0.22222E-02   -0.40881E-02  6685   0.535E-01    0.257E-01
RMM:   3    -0.366744949949E+03    0.16751E-02   -0.91888E-03  6915   0.181E-01    0.189E-01
RMM:   4    -0.366744063202E+03    0.88675E-03   -0.24272E-03  6947   0.101E-01    0.104E-01
RMM:   5    -0.366743937913E+03    0.12529E-03   -0.71951E-04  6899   0.541E-02    0.759E-02
RMM:   6    -0.366743976647E+03   -0.38734E-04   -0.30588E-04  6555   0.285E-02    0.524E-02
RMM:   7    -0.366743999780E+03   -0.23133E-04   -0.12351E-04  5708   0.209E-02    0.273E-02
RMM:   8    -0.366744017135E+03   -0.17355E-04   -0.83026E-05  4426   0.161E-02    0.172E-02
RMM:   9    -0.366744030362E+03   -0.13227E-04   -0.33530E-05  3533   0.133E-02    0.969E-03
RMM:  10    -0.366744038089E+03   -0.77266E-05   -0.13972E-05  3032   0.111E-02
   3 F= -.36674404E+03 E0= -.36675274E+03  d E =-.257653E-02
       N       E                     dE             d eps       ncg     rms          rms(c)
DAV:   1    -0.366744863642E+03   -0.83328E-03   -0.52096E-02  4672   0.641E-01    0.992E-02
RMM:   2    -0.366744970558E+03   -0.10692E-03   -0.20248E-03  6724   0.122E-01    0.465E-02
RMM:   3    -0.366744919858E+03    0.50700E-04   -0.30916E-04  6380   0.353E-02    0.341E-02
RMM:   4    -0.366744902011E+03    0.17847E-04   -0.76282E-05  5507   0.174E-02    0.202E-02
RMM:   5    -0.366744896903E+03    0.51080E-05   -0.24037E-05  2851   0.118E-02
   4 F= -.36674490E+03 E0= -.36675363E+03  d E =-.858815E-03
       N       E                     dE             d eps       ncg     rms          rms(c)
DAV:   1    -0.366746279785E+03   -0.13778E-02   -0.46764E-01  4592   0.192E+00    0.289E-01
RMM:   2    -0.366747180009E+03   -0.90022E-03   -0.17286E-02  6670   0.359E-01    0.133E-01
RMM:   3    -0.366746730346E+03    0.44966E-03   -0.24709E-03  6779   0.103E-01    0.956E-02
RMM:   4    -0.366746596381E+03    0.13396E-03   -0.62311E-04  7021   0.459E-02    0.550E-02
RMM:   5    -0.366746570079E+03    0.26302E-04   -0.24520E-04  6944   0.287E-02    0.337E-02
RMM:   6    -0.366746564269E+03    0.58102E-05   -0.88779E-05  5108   0.162E-02
   5 F= -.36674656E+03 E0= -.36675536E+03  d E =-.252618E-02
       N       E                     dE             d eps       ncg     rms          rms(c)
DAV:   1    -0.366744741043E+03    0.18290E-02   -0.18717E+00  4512   0.384E+00    0.574E-01
RMM:   2    -0.366748319635E+03   -0.35786E-02   -0.68737E-02  6673   0.716E-01    0.265E-01
RMM:   3    -0.366746560470E+03    0.17592E-02   -0.97911E-03  6789   0.207E-01    0.190E-01
RMM:   4    -0.366746034568E+03    0.52590E-03   -0.24378E-03  7064   0.911E-02    0.110E-01
RMM:   5    -0.366745933461E+03    0.10111E-03   -0.95651E-04  7048   0.572E-02    0.674E-02
RMM:   6    -0.366745923924E+03    0.95369E-05   -0.35976E-04  6927   0.317E-02    0.441E-02
RMM:   7    -0.366745916787E+03    0.71362E-05   -0.13847E-04  5542   0.193E-02    0.293E-02
RMM:   8    -0.366745914539E+03    0.22484E-05   -0.76460E-05  4685   0.157E-02
   6 F= -.36674591E+03 E0= -.36675483E+03  d E =-.187645E-02
       N       E                     dE             d eps       ncg     rms          rms(c)
DAV:   1    -0.366746578167E+03   -0.66138E-03   -0.70349E-01  4552   0.235E+00    0.360E-01
RMM:   2    -0.366747840597E+03   -0.12624E-02   -0.25871E-02  6640   0.440E-01    0.162E-01
RMM:   3    -0.366747154738E+03    0.68586E-03   -0.36468E-03  6794   0.128E-01    0.117E-01
RMM:   4    -0.366746945095E+03    0.20964E-03   -0.89331E-04  7060   0.566E-02    0.661E-02
RMM:   5    -0.366746909568E+03    0.35527E-04   -0.32650E-04  6977   0.351E-02    0.398E-02
RMM:   6    -0.366746914495E+03   -0.49267E-05   -0.11756E-04  6177   0.188E-02    0.252E-02
RMM:   7    -0.366746916514E+03   -0.20193E-05   -0.35799E-05  3279   0.123E-02
   7 F= -.36674692E+03 E0= -.36675576E+03  d E =-.287843E-02
       N       E                     dE             d eps       ncg     rms          rms(c)
DAV:   1    -0.366747081009E+03   -0.16651E-03   -0.11961E-02  4512   0.321E-01    0.302E-02
RMM:   2    -0.366747119866E+03   -0.38858E-04   -0.44643E-04  6259   0.603E-02    0.137E-02
RMM:   3    -0.366747116007E+03    0.38598E-05   -0.35651E-05  3579   0.178E-02
   8 F= -.36674712E+03 E0= -.36675595E+03  d E =-.199493E-03
       N       E                     dE             d eps       ncg     rms          rms(c)
DAV:   1    -0.366747280008E+03   -0.16014E-03   -0.10762E-01  4464   0.962E-01    0.855E-02
RMM:   2    -0.366747590413E+03   -0.31041E-03   -0.39557E-03  6455   0.177E-01    0.401E-02
RMM:   3    -0.366747566649E+03    0.23765E-04   -0.47988E-04  6526   0.475E-02    0.322E-02
RMM:   4    -0.366747561475E+03    0.51738E-05   -0.10156E-04  5065   0.171E-02    0.222E-02
RMM:   5    -0.366747559099E+03    0.23761E-05   -0.32592E-05  3229   0.112E-02
   9 F= -.36674756E+03 E0= -.36675639E+03  d E =-.642585E-03
       N       E                     dE             d eps       ncg     rms          rms(c)
DAV:   1    -0.366746728543E+03    0.83293E-03   -0.42914E-01  4416   0.192E+00    0.167E-01
RMM:   2    -0.366747970972E+03   -0.12424E-02   -0.15515E-02  6347   0.354E-01    0.740E-02
RMM:   3    -0.366747884085E+03    0.86886E-04   -0.18328E-03  6719   0.965E-02    0.609E-02
RMM:   4    -0.366747870086E+03    0.14000E-04   -0.40398E-04  6874   0.315E-02    0.420E-02
RMM:   5    -0.366747866866E+03    0.32198E-05   -0.14125E-04  5854   0.190E-02    0.262E-02
RMM:   6    -0.366747859186E+03    0.76798E-05   -0.61953E-05  4491   0.156E-02
  10 F= -.36674786E+03 E0= -.36675667E+03  d E =-.942672E-03
       N       E                     dE             d eps       ncg     rms          rms(c)
DAV:   1    -0.366748270895E+03   -0.40403E-03   -0.87625E-02  4552   0.926E-01    0.227E-01
RMM:   2    -0.366748334776E+03   -0.63881E-04   -0.63076E-03  6629   0.206E-01    0.913E-02
RMM:   3    -0.366748128784E+03    0.20599E-03   -0.10368E-03  6791   0.625E-02    0.640E-02
RMM:   4    -0.366748037778E+03    0.91006E-04   -0.28678E-04  6705   0.324E-02    0.336E-02
RMM:   5    -0.366748027848E+03    0.99302E-05   -0.85058E-05  5529   0.200E-02
  11 F= -.36674803E+03 E0= -.36675681E+03  d E =-.168662E-03
       N       E                     dE             d eps       ncg     rms          rms(c)
DAV:   1    -0.366748037618E+03    0.16012E-06   -0.39409E-03  4768   0.196E-01    0.422E-02
RMM:   2    -0.366748049812E+03   -0.12194E-04   -0.29474E-04  6401   0.427E-02    0.211E-02
RMM:   3    -0.366748035844E+03    0.13968E-04   -0.39968E-05  3535   0.135E-02    0.145E-02
RMM:   4    -0.366748037085E+03   -0.12411E-05   -0.12628E-05  2537   0.111E-02
  12 F= -.36674804E+03 E0= -.36675680E+03  d E =-.177899E-03
       N       E                     dE             d eps       ncg     rms          rms(c)
DAV:   1    -0.366748165573E+03   -0.12973E-03   -0.53871E-02  4440   0.678E-01    0.899E-02
RMM:   2    -0.366748319056E+03   -0.15348E-03   -0.23795E-03  6642   0.134E-01    0.439E-02
RMM:   3    -0.366748289067E+03    0.29989E-04   -0.30555E-04  6412   0.352E-02    0.304E-02
RMM:   4    -0.366748279209E+03    0.98581E-05   -0.77913E-05  4786   0.155E-02
  13 F= -.36674828E+03 E0= -.36675703E+03  d E =-.242124E-03
       N       E                     dE             d eps       ncg     rms          rms(c)
DAV:   1    -0.366747955342E+03    0.33373E-03   -0.24049E-01  4392   0.143E+00    0.180E-01
RMM:   2    -0.366748596417E+03   -0.64107E-03   -0.10339E-02  6627   0.279E-01    0.879E-02
RMM:   3    -0.366748471391E+03    0.12503E-03   -0.12534E-03  6740   0.708E-02    0.629E-02
RMM:   4    -0.366748430849E+03    0.40542E-04   -0.34853E-04  6558   0.291E-02    0.425E-02
RMM:   5    -0.366748420954E+03    0.98952E-05   -0.13850E-04  6195   0.202E-02    0.250E-02
RMM:   6    -0.366748413362E+03    0.75918E-05   -0.47959E-05  3795   0.134E-02
  14 F= -.36674841E+03 E0= -.36675713E+03  d E =-.376277E-03
       N       E                     dE             d eps       ncg     rms          rms(c)
DAV:   1    -0.366748401362E+03    0.19592E-04   -0.11565E-02  4464   0.313E-01    0.428E-02
RMM:   2    -0.366748430512E+03   -0.29150E-04   -0.49749E-04  6356   0.626E-02    0.188E-02
RMM:   3    -0.366748421741E+03    0.87714E-05   -0.44234E-05  3857   0.170E-02
  15 F= -.36674842E+03 E0= -.36675715E+03  d E =-.384655E-03
       N       E                     dE             d eps       ncg     rms          rms(c)
DAV:   1    -0.366748480436E+03   -0.49923E-04   -0.36451E-02  4424   0.567E-01    0.104E-01
RMM:   2    -0.366748576081E+03   -0.95645E-04   -0.21191E-03  6638   0.119E-01    0.500E-02
RMM:   3    -0.366748488063E+03    0.88018E-04   -0.26153E-04  6141   0.331E-02    0.323E-02
RMM:   4    -0.366748471577E+03    0.16486E-04   -0.63270E-05  5142   0.163E-02    0.201E-02
RMM:   5    -0.366748468118E+03    0.34588E-05   -0.16203E-05  2572   0.122E-02
  16 F= -.36674847E+03 E0= -.36675717E+03  d E =-.463772E-04
       N       E                     dE             d eps       ncg     rms          rms(c)
DAV:   1    -0.366748471004E+03    0.57294E-06   -0.14869E-03  4576   0.115E-01    0.190E-02
RMM:   2    -0.366748477865E+03   -0.68609E-05   -0.98305E-05  4483   0.241E-02
  17 F= -.36674848E+03 E0= -.36675718E+03  d E =-.561241E-04
       N       E                     dE             d eps       ncg     rms          rms(c)
DAV:   1    -0.366748473221E+03   -0.22166E-05   -0.59768E-04  4612   0.723E-02    0.149E-02
RMM:   2    -0.366748476278E+03   -0.30574E-05   -0.30798E-05  2628   0.162E-02
  18 F= -.36674848E+03 E0= -.36675717E+03  d E =-.545371E-04
       N       E                     dE             d eps       ncg     rms          rms(c)
DAV:   1    -0.366748476700E+03   -0.34790E-05   -0.14911E-04  4688   0.374E-02    0.461E-03
RMM:   2    -0.366748477685E+03   -0.98527E-06   -0.72057E-06  2297   0.788E-03
  19 F= -.36674848E+03 E0= -.36675718E+03  d E =-.559441E-04
       N       E                     dE             d eps       ncg     rms          rms(c)
DAV:   1    -0.366748513858E+03   -0.37159E-04   -0.30163E-02  4400   0.496E-01    0.619E-02
RMM:   2    -0.366748592445E+03   -0.78586E-04   -0.11959E-03  6613   0.969E-02    0.312E-02
RMM:   3    -0.366748574259E+03    0.18186E-04   -0.15004E-04  6137   0.244E-02    0.223E-02
RMM:   4    -0.366748567232E+03    0.70268E-05   -0.29501E-05  3195   0.108E-02
  20 F= -.36674857E+03 E0= -.36675725E+03  d E =-.895471E-04
