<?xml version="1.0" encoding="ISO-8859-1"?>
<modeling>
 <generator>
  <i name="program" type="string">vasp </i>
  <i name="version" type="string">5.4.1  </i>
  <i name="subversion" type="string">05Feb16 (build Jan 29 2020 16:04:39) complex                          parallel </i>
  <i name="platform" type="string">IFC91_ompi </i>
  <i name="date" type="string">2020 06 15 </i>
  <i name="time" type="string">04:54:35 </i>
 </generator>
 <incar>
  <i type="string" name="SYSTEM"> automatically generated by mexm</i>
  <i type="int" name="ISTART">     0</i>
  <i type="string" name="PREC">accurate               ! avoid wrap aro</i>
  <i type="string" name="ALGO"> Fast                   ! blocked Davids</i>
  <i type="int" name="ISPIN">     1</i>
  <i type="int" name="ICHARG">     2</i>
  <i type="int" name="NELM">    70</i>
  <i type="int" name="IBRION">     2</i>
  <i name="EDIFF">      0.00001000</i>
  <i name="EDIFFG">     -0.01000000</i>
  <i type="int" name="NSW">   300</i>
  <i type="int" name="ISIF">     3</i>
  <i type="int" name="ISYM">     1</i>
  <i name="ENCUT">    300.00000000</i>
  <i name="POTIM">      0.15000000</i>
  <i type="string" name="LREAL"> Auto                  ! unpublished met</i>
  <i type="int" name="ISMEAR">     1</i>
  <i name="SIGMA">      0.15000000</i>
  <i type="logical" name="LWAVE"> F  </i>
  <i type="logical" name="LCHARG"> F  </i>
  <i type="logical" name="LVTOT"> F  </i>
  <v type="int" name="KPOINT_BSE">    -1     0     0     0</v>
  <i type="int" name="NELM">    70</i>
 </incar>
 <kpoints>
  <generation param="Gamma">
   <v type="int" name="divisions">       3        3        3 </v>
   <v name="usershift">      0.00000000       0.00000000       0.00000000 </v>
   <v name="genvec1">      0.33333333       0.00000000       0.00000000 </v>
   <v name="genvec2">      0.00000000       0.33333333      -0.00000000 </v>
   <v name="genvec3">      0.00000000       0.00000000       0.33333333 </v>
   <v name="shift">      0.00000000       0.00000000       0.00000000 </v>
  </generation>
  <varray name="kpointlist" >
   <v>       0.00000000       0.00000000       0.00000000 </v>
   <v>       0.33333333      -0.00000000       0.00000000 </v>
   <v>       0.00000000       0.33333333      -0.00000000 </v>
   <v>       0.33333333       0.33333333      -0.00000000 </v>
   <v>      -0.33333333       0.33333333       0.00000000 </v>
   <v>      -0.00000000       0.00000000       0.33333333 </v>
   <v>       0.33333333       0.00000000       0.33333333 </v>
   <v>      -0.33333333       0.00000000       0.33333333 </v>
   <v>       0.00000000       0.33333333       0.33333333 </v>
   <v>       0.33333333       0.33333333       0.33333333 </v>
   <v>      -0.33333333       0.33333333       0.33333333 </v>
   <v>      -0.00000000      -0.33333333       0.33333333 </v>
   <v>       0.33333333      -0.33333333       0.33333333 </v>
   <v>      -0.33333333      -0.33333333       0.33333333 </v>
  </varray>
  <varray name="weights" >
   <v>       0.03703704 </v>
   <v>       0.07407407 </v>
   <v>       0.07407407 </v>
   <v>       0.07407407 </v>
   <v>       0.07407407 </v>
   <v>       0.07407407 </v>
   <v>       0.07407407 </v>
   <v>       0.07407407 </v>
   <v>       0.07407407 </v>
   <v>       0.07407407 </v>
   <v>       0.07407407 </v>
   <v>       0.07407407 </v>
   <v>       0.07407407 </v>
   <v>       0.07407407 </v>
  </varray>
 </kpoints>
 <parameters>
  <separator name="general" >
   <i type="string" name="SYSTEM">automatically generated by mexm</i>
   <i type="logical" name="LCOMPAT"> F  </i>
  </separator>
  <separator name="electronic" >
   <i type="string" name="PREC">accura</i>
   <i name="ENMAX">    300.00000000</i>
   <i name="ENAUG">    461.25700000</i>
   <i name="EDIFF">      0.00001000</i>
   <i type="int" name="IALGO">    68</i>
   <i type="int" name="IWAVPR">    11</i>
   <i type="int" name="NBANDS">   176</i>
   <i name="NELECT">    294.00000000</i>
   <i type="int" name="TURBO">     0</i>
   <i type="int" name="IRESTART">     0</i>
   <i type="int" name="NREBOOT">     0</i>
   <i type="int" name="NMIN">     0</i>
   <i name="EREF">      0.00000000</i>
   <separator name="electronic smearing" >
    <i type="int" name="ISMEAR">     1</i>
    <i name="SIGMA">      0.15000000</i>
    <i name="KSPACING">      0.50000000</i>
    <i type="logical" name="KGAMMA"> T  </i>
   </separator>
   <separator name="electronic projectors" >
    <i type="logical" name="LREAL"> T  </i>
    <v name="ROPT">     -0.00025000     -0.00025000     -0.00025000     -0.00025000</v>
    <i type="int" name="LMAXPAW">  -100</i>
    <i type="int" name="LMAXMIX">     2</i>
    <i type="logical" name="NLSPLINE"> F  </i>
   </separator>
   <separator name="electronic startup" >
    <i type="int" name="ISTART">     0</i>
    <i type="int" name="ICHARG">     2</i>
    <i type="int" name="INIWAV">     1</i>
   </separator>
   <separator name="electronic spin" >
    <i type="int" name="ISPIN">     1</i>
    <i type="logical" name="LNONCOLLINEAR"> F  </i>
    <v name="MAGMOM">      1.00000000      1.00000000      1.00000000      1.00000000      1.00000000      1.00000000      1.00000000      1.00000000      1.00000000      1.00000000      1.00000000      1.00000000      1.00000000      1.00000000      1.00000000      1.00000000      1.00000000      1.00000000      1.00000000      1.00000000
      1.00000000      1.00000000      1.00000000      1.00000000      1.00000000      1.00000000      1.00000000      1.00000000      1.00000000      1.00000000      1.00000000      1.00000000      1.00000000      1.00000000      1.00000000      1.00000000</v>
    <i name="NUPDOWN">     -1.00000000</i>
    <i type="logical" name="LSORBIT"> F  </i>
    <v name="SAXIS">      0.00000000      0.00000000      1.00000000</v>
    <i type="logical" name="LSPIRAL"> F  </i>
    <v name="QSPIRAL">      0.00000000      0.00000000      0.00000000</v>
    <i type="logical" name="LZEROZ"> F  </i>
   </separator>
   <separator name="electronic exchange-correlation" >
    <i type="logical" name="LASPH"> F  </i>
    <i type="logical" name="LMETAGGA"> F  </i>
   </separator>
   <separator name="electronic convergence" >
    <i type="int" name="NELM">    70</i>
    <i type="int" name="NELMDL">    -5</i>
    <i type="int" name="NELMIN">     2</i>
    <i name="ENINI">    300.00000000</i>
    <separator name="electronic convergence detail" >
     <i type="logical" name="LDIAG"> T  </i>
     <i type="logical" name="LSUBROT"> F  </i>
     <i name="WEIMIN">      0.00100000</i>
     <i name="EBREAK">      0.00000001</i>
     <i name="DEPER">      0.30000000</i>
     <i type="int" name="NRMM">     4</i>
     <i name="TIME">      0.40000000</i>
    </separator>
   </separator>
   <separator name="electronic mixer" >
    <i name="AMIX">      0.40000000</i>
    <i name="BMIX">      1.00000000</i>
    <i name="AMIN">      0.10000000</i>
    <i name="AMIX_MAG">      1.60000000</i>
    <i name="BMIX_MAG">      1.00000000</i>
    <separator name="electronic mixer details" >
     <i type="int" name="IMIX">     4</i>
     <i type="logical" name="MIXFIRST"> F  </i>
     <i type="int" name="MAXMIX">   -45</i>
     <i name="WC">    100.00000000</i>
     <i type="int" name="INIMIX">     1</i>
     <i type="int" name="MIXPRE">     1</i>
     <i type="int" name="MREMOVE">     5</i>
    </separator>
   </separator>
   <separator name="electronic dipolcorrection" >
    <i type="logical" name="LDIPOL"> F  </i>
    <i type="logical" name="LMONO"> F  </i>
    <i type="int" name="IDIPOL">     0</i>
    <i name="EPSILON">      1.00000000</i>
    <v name="DIPOL">   -100.00000000   -100.00000000   -100.00000000</v>
    <i name="EFIELD">      0.00000000</i>
   </separator>
  </separator>
  <separator name="grids" >
   <i type="int" name="NGX">    40</i>
   <i type="int" name="NGY">    60</i>
   <i type="int" name="NGZ">    60</i>
   <i type="int" name="NGXF">    80</i>
   <i type="int" name="NGYF">   120</i>
   <i type="int" name="NGZF">   120</i>
   <i type="logical" name="ADDGRID"> F  </i>
  </separator>
  <separator name="ionic" >
   <i type="int" name="NSW">   300</i>
   <i type="int" name="IBRION">     2</i>
   <i type="int" name="ISIF">     3</i>
   <i name="PSTRESS">      0.00000000</i>
   <i name="EDIFFG">     -0.01000000</i>
   <i type="int" name="NFREE">     1</i>
   <i name="POTIM">      0.15000000</i>
   <i name="SMASS">     -3.00000000</i>
   <i name="SCALEE">      1.00000000</i>
  </separator>
  <separator name="ionic md" >
   <i name="TEBEG">      0.00010000</i>
   <i name="TEEND">      0.00010000</i>
   <i type="int" name="NBLOCK">     1</i>
   <i type="int" name="KBLOCK">   300</i>
   <i type="int" name="NPACO">   256</i>
   <i name="APACO">     16.00000000</i>
  </separator>
  <separator name="symmetry" >
   <i type="int" name="ISYM">     1</i>
   <i name="SYMPREC">      0.00001000</i>
  </separator>
  <separator name="dos" >
   <i type="logical" name="LORBIT"> F  </i>
   <v name="RWIGS">     -1.00000000     -1.00000000     -1.00000000     -1.00000000</v>
   <i type="int" name="NEDOS">   301</i>
   <i name="EMIN">     10.00000000</i>
   <i name="EMAX">    -10.00000000</i>
   <i name="EFERMI">      0.00000000</i>
  </separator>
  <separator name="writing" >
   <i type="int" name="NWRITE">     2</i>
   <i type="logical" name="LWAVE"> F  </i>
   <i type="logical" name="LCHARG"> F  </i>
   <i type="logical" name="LPARD"> F  </i>
   <i type="logical" name="LVTOT"> F  </i>
   <i type="logical" name="LVHAR"> F  </i>
   <i type="logical" name="LELF"> F  </i>
   <i type="logical" name="LOPTICS"> F  </i>
   <v name="STM">      0.00000000      0.00000000      0.00000000      0.00000000      0.00000000      0.00000000      0.00000000</v>
  </separator>
  <separator name="performance" >
   <i type="int" name="NPAR">     4</i>
   <i type="int" name="NSIM">     4</i>
   <i type="int" name="NBLK">    -1</i>
   <i type="logical" name="LPLANE"> T  </i>
   <i type="logical" name="LSCALAPACK"> T  </i>
   <i type="logical" name="LSCAAWARE"> F  </i>
   <i type="logical" name="LSCALU"> F  </i>
   <i type="logical" name="LASYNC"> F  </i>
   <i type="logical" name="LORBITALREAL"> F  </i>
  </separator>
  <separator name="miscellaneous" >
   <i type="int" name="IDIOT">     3</i>
   <i type="logical" name="LMUSIC"> F  </i>
   <v name="POMASS">     91.22400000    178.49000000    180.94800000     92.91000000</v>
   <v name="DARWINR">      0.00000000      0.00000000      0.00000000      0.00000000</v>
   <v name="DARWINV">      1.00000000      1.00000000      1.00000000      1.00000000</v>
   <i type="logical" name="LCORR"> T  </i>
  </separator>
  <i type="logical" name="GGA_COMPAT"> T  </i>
  <i type="logical" name="LBERRY"> F  </i>
  <i type="int" name="ICORELEVEL">     0</i>
  <i type="logical" name="LDAU"> F  </i>
  <i type="int" name="I_CONSTRAINED_M">     0</i>
  <separator name="electronic exchange-correlation" >
   <i type="string" name="GGA">--</i>
   <i type="int" name="VOSKOWN">     0</i>
   <i type="logical" name="LHFCALC"> F  </i>
   <i type="string" name="PRECFOCK"></i>
   <i type="logical" name="LSYMGRAD"> F  </i>
   <i type="logical" name="LHFONE"> F  </i>
   <i type="logical" name="LRHFCALC"> F  </i>
   <i type="logical" name="LTHOMAS"> F  </i>
   <i type="logical" name="LMODELHF"> F  </i>
   <i name="ENCUT4O">     -1.00000000</i>
   <i type="int" name="EXXOEP">     0</i>
   <i type="int" name="FOURORBIT">     0</i>
   <i name="AEXX">      0.00000000</i>
   <i name="HFALPHA">      0.00000000</i>
   <i name="MCALPHA">      0.00000000</i>
   <i name="ALDAX">      1.00000000</i>
   <i name="AGGAX">      1.00000000</i>
   <i name="ALDAC">      1.00000000</i>
   <i name="AGGAC">      1.00000000</i>
   <i type="int" name="NKREDX">     1</i>
   <i type="int" name="NKREDY">     1</i>
   <i type="int" name="NKREDZ">     1</i>
   <i type="logical" name="SHIFTRED"> F  </i>
   <i type="logical" name="ODDONLY"> F  </i>
   <i type="logical" name="EVENONLY"> F  </i>
   <i type="int" name="LMAXFOCK">     0</i>
   <i type="int" name="NMAXFOCKAE">     0</i>
   <i type="logical" name="LFOCKAEDFT"> F  </i>
   <i name="HFSCREEN">      0.00000000</i>
   <i name="HFSCREENC">      0.00000000</i>
   <i type="int" name="NBANDSGWLOW">     0</i>
  </separator>
  <separator name="vdW DFT" >
   <i type="logical" name="LUSE_VDW"> F  </i>
   <i name="Zab_VDW">     -0.84910000</i>
   <i name="PARAM1">      0.12340000</i>
   <i name="PARAM2">      1.00000000</i>
   <i name="PARAM3">      0.00000000</i>
  </separator>
  <separator name="model GW" >
   <i type="int" name="MODEL_GW">     0</i>
   <i name="MODEL_EPS0">     12.35433522</i>
   <i name="MODEL_ALPHA">      1.00000000</i>
  </separator>
  <separator name="linear response parameters" >
   <i type="logical" name="LEPSILON"> F  </i>
   <i type="logical" name="LRPA"> F  </i>
   <i type="logical" name="LNABLA"> F  </i>
   <i type="logical" name="LVEL"> F  </i>
   <i type="int" name="KINTER">     0</i>
   <i name="CSHIFT">      0.10000000</i>
   <i name="OMEGAMAX">     -1.00000000</i>
   <i name="DEG_THRESHOLD">      0.00200000</i>
  </separator>
  <separator name="orbital magnetization" >
   <i type="logical" name="NUCIND"> F  </i>
   <v name="MAGPOS">      0.00000000      0.00000000      0.00000000</v>
   <i type="logical" name="LNICSALL"> T  </i>
   <i type="logical" name="ORBITALMAG"> F  </i>
   <i type="logical" name="LMAGBLOCH"> F  </i>
   <i type="logical" name="LCHIMAG"> F  </i>
   <i type="logical" name="LGAUGE"> T  </i>
   <i type="int" name="MAGATOM">     0</i>
   <v name="MAGDIPOL">      0.00000000      0.00000000      0.00000000</v>
   <v name="AVECCONST">      0.00000000      0.00000000      0.00000000</v>
  </separator>
  <separator name="response functions" >
   <i type="logical" name="LADDER"> F  </i>
   <i type="logical" name="LFXC"> F  </i>
   <i type="logical" name="LHARTREE"> T  </i>
   <i type="int" name="IBSE">     0</i>
   <v type="int" name="KPOINT">    -1     0     0     0</v>
   <i type="logical" name="LTCTE"> F  </i>
   <i type="logical" name="LTETE"> F  </i>
   <i type="logical" name="LTRIPLET"> F  </i>
   <i type="logical" name="LFXCEPS"> F  </i>
   <i type="logical" name="LFXHEG"> F  </i>
   <i type="int" name="NATURALO">     0</i>
   <i type="logical" name="L2ORDER"> F  </i>
   <i type="logical" name="LUSEW"> F  </i>
   <i name="ENCUTGW">     -2.00000000</i>
   <i name="ENCUTGWSOFT">     -2.00000000</i>
   <i name="ENCUTLF">     -1.00000000</i>
   <i type="int" name="LMAXMP2">    -1</i>
   <i name="SCISSOR">      0.00000000</i>
   <i type="int" name="NOMEGA">     0</i>
   <i type="int" name="NOMEGAR">     0</i>
   <i type="int" name="NBANDSGW">    -1</i>
   <i type="int" name="NBANDSO">    -1</i>
   <i type="int" name="NBANDSV">    -1</i>
   <i type="int" name="NELM">    70</i>
   <i type="int" name="NELMHF">     1</i>
   <i type="int" name="DIM">     3</i>
   <i type="int" name="ANTIRES">     0</i>
   <i name="OMEGAMAX">    -30.00000000</i>
   <i name="OMEGAMIN">    -30.00000000</i>
   <i name="OMEGATL">   -200.00000000</i>
   <i type="int" name="OMEGAGRID">     0</i>
   <i name="CSHIFT">     -0.10000000</i>
   <i type="logical" name="SELFENERGY"> F  </i>
   <i type="logical" name="LSPECTRAL"> F  </i>
   <i type="logical" name="LSPECTRALGW"> F  </i>
   <i type="logical" name="LSINGLES"> F  </i>
   <i type="logical" name="LFERMIGW"> F  </i>
   <i type="logical" name="ODDONLYGW"> F  </i>
   <i type="logical" name="EVENONLYGW"> F  </i>
   <i type="int" name="NKREDLFX">     1</i>
   <i type="int" name="NKREDLFY">     1</i>
   <i type="int" name="NKREDLFZ">     1</i>
   <i type="int" name="MAXMEM">  1800</i>
   <i type="int" name="TELESCOPE">     0</i>
   <i type="int" name="TAUPAR">     1</i>
   <i type="int" name="OMEGAPAR">    -1</i>
   <i name="LAMBDA">      1.00000000</i>
  </separator>
  <separator name="External order field" >
   <i name="OFIELD_KAPPA">      0.00000000</i>
   <v name="OFIELD_K">      0.00000000      0.00000000      0.00000000</v>
   <i name="OFIELD_Q6_NEAR">      0.00000000</i>
   <i name="OFIELD_Q6_FAR">      0.00000000</i>
   <i name="OFIELD_A">      0.00000000</i>
  </separator>
 </parameters>
 <atominfo>
  <atoms>      36 </atoms>
  <types>       4 </types>
  <array name="atoms" >
   <dimension dim="1">ion</dimension>
   <field type="string">element</field>
   <field type="int">atomtype</field>
   <set>
    <rc><c>Zr</c><c>   1</c></rc>
    <rc><c>Zr</c><c>   1</c></rc>
    <rc><c>Zr</c><c>   1</c></rc>
    <rc><c>Zr</c><c>   1</c></rc>
    <rc><c>Zr</c><c>   1</c></rc>
    <rc><c>Zr</c><c>   1</c></rc>
    <rc><c>Zr</c><c>   1</c></rc>
    <rc><c>Zr</c><c>   1</c></rc>
    <rc><c>Zr</c><c>   1</c></rc>
    <rc><c>Zr</c><c>   1</c></rc>
    <rc><c>Zr</c><c>   1</c></rc>
    <rc><c>Zr</c><c>   1</c></rc>
    <rc><c>Zr</c><c>   1</c></rc>
    <rc><c>Hf</c><c>   2</c></rc>
    <rc><c>Hf</c><c>   2</c></rc>
    <rc><c>Hf</c><c>   2</c></rc>
    <rc><c>Hf</c><c>   2</c></rc>
    <rc><c>Hf</c><c>   2</c></rc>
    <rc><c>Hf</c><c>   2</c></rc>
    <rc><c>Hf</c><c>   2</c></rc>
    <rc><c>Hf</c><c>   2</c></rc>
    <rc><c>Hf</c><c>   2</c></rc>
    <rc><c>Ta</c><c>   3</c></rc>
    <rc><c>Ta</c><c>   3</c></rc>
    <rc><c>Ta</c><c>   3</c></rc>
    <rc><c>Ta</c><c>   3</c></rc>
    <rc><c>Ta</c><c>   3</c></rc>
    <rc><c>Ta</c><c>   3</c></rc>
    <rc><c>Ta</c><c>   3</c></rc>
    <rc><c>Ta</c><c>   3</c></rc>
    <rc><c>Ta</c><c>   3</c></rc>
    <rc><c>Ta</c><c>   3</c></rc>
    <rc><c>Nb</c><c>   4</c></rc>
    <rc><c>Nb</c><c>   4</c></rc>
    <rc><c>Nb</c><c>   4</c></rc>
    <rc><c>Nb</c><c>   4</c></rc>
   </set>
  </array>
  <array name="atomtypes" >
   <dimension dim="1">type</dimension>
   <field type="int">atomspertype</field>
   <field type="string">element</field>
   <field>mass</field>
   <field>valence</field>
   <field type="string">pseudopotential</field>
   <set>
    <rc><c>  13</c><c>Zr</c><c>     91.22400000</c><c>     12.00000000</c><c>  PAW_PBE Zr_sv 04Jan2005               </c></rc>
    <rc><c>   9</c><c>Hf</c><c>    178.49000000</c><c>      4.00000000</c><c>  PAW_PBE Hf 20Jan2003                  </c></rc>
    <rc><c>  10</c><c>Ta</c><c>    180.94800000</c><c>      5.00000000</c><c>  PAW_PBE Ta 17Jan2003                  </c></rc>
    <rc><c>   4</c><c>Nb</c><c>     92.91000000</c><c>     13.00000000</c><c>  PAW_PBE Nb_sv 25May2007               </c></rc>
   </set>
  </array>
 </atominfo>
 <structure name="initialpos" >
  <crystal>
   <varray name="basis" >
    <v>       7.01861203       0.02688200      -0.04457554 </v>
    <v>       0.03942760      10.27855742      -0.01409696 </v>
    <v>      -0.06633953      -0.01439626      10.27571907 </v>
   </varray>
   <i name="volume">    741.26011350 </i>
   <varray name="rec_basis" >
    <v>       0.14248624      -0.00054530       0.00091912 </v>
    <v>      -0.00037179       0.09729153       0.00013391 </v>
    <v>       0.00061759       0.00013111       0.09732096 </v>
   </varray>
  </crystal>
  <varray name="positions" >
   <v>       0.00808700       0.34196800       0.31664000 </v>
   <v>       0.49883200       0.66753100       0.32900900 </v>
   <v>       0.71294600       0.15375800       0.84458100 </v>
   <v>       0.01057300       0.99974400       0.00009200 </v>
   <v>       0.23443900       0.16628600       0.50488500 </v>
   <v>       0.27733200       0.17559200       0.83121500 </v>
   <v>       0.99349000       0.66882100       0.00121000 </v>
   <v>       0.50379800       0.33534700       0.33723500 </v>
   <v>       0.79129100       0.51491900       0.50596500 </v>
   <v>       0.50197900       0.67276200       0.66460700 </v>
   <v>       0.76677400       0.83820100       0.49872000 </v>
   <v>       0.25418000       0.49839200       0.83345200 </v>
   <v>       0.25504100       0.16995700       0.16702000 </v>
   <v>       0.96751500       0.31839500       0.68137200 </v>
   <v>       0.74548700       0.15577200       0.17373500 </v>
   <v>       0.00036400       0.00033100       0.67826000 </v>
   <v>       0.22540400       0.50416100       0.51532700 </v>
   <v>       0.00795700       0.66453700       0.31247700 </v>
   <v>       0.47830800       0.97790000       0.01007800 </v>
   <v>       0.48252200       0.99649900       0.33405600 </v>
   <v>       0.53180500       0.33719900       0.64946700 </v>
   <v>       0.99653100       0.33365400       0.00507400 </v>
   <v>       0.73876600       0.83528000       0.82956800 </v>
   <v>       0.75710600       0.84549900       0.17099000 </v>
   <v>       0.01566900       0.99281900       0.32791800 </v>
   <v>       0.27983600       0.50235000       0.14640100 </v>
   <v>       0.24104100       0.82897800       0.17419100 </v>
   <v>       0.23499400       0.83458400       0.50073300 </v>
   <v>       0.49181300       0.98477200       0.66147600 </v>
   <v>       0.72641100       0.49957800       0.14906900 </v>
   <v>       0.76809100       0.15170500       0.48798000 </v>
   <v>       0.50389800       0.67351100       0.99809100 </v>
   <v>       0.00103100       0.68291600       0.68443800 </v>
   <v>       0.25348300       0.82470500       0.82424800 </v>
   <v>       0.50335300       0.34389500       0.00608800 </v>
   <v>       0.73985600       0.50768700       0.84434400 </v>
  </varray>
 </structure>
 <calculation>
  <scstep>
   <time name="dav">    1.07    1.09</time>
   <time name="total">    1.87    2.15</time>
   <energy>
    <i name="alphaZ">   1487.31529068 </i>
    <i name="ewald"> -19449.20886610 </i>
    <i name="hartreedc">  -6315.53009590 </i>
    <i name="XCdc">   -267.14890370 </i>
    <i name="pawpsdc">  20992.71092910 </i>
    <i name="pawaedc"> -19401.19708689 </i>
    <i name="eentropy">      0.00221038 </i>
    <i name="bandstr">   -106.17956724 </i>
    <i name="atom">  24904.19112557 </i>
    <i name="e_fr_energy">   1844.95503590 </i>
    <i name="e_wo_entrp">   1844.95282552 </i>
    <i name="e_0_energy">   1844.95429911 </i>
   </energy>
  </scstep>
  <scstep>
   <time name="dav">    1.03    1.06</time>
   <time name="total">    1.03    1.16</time>
   <energy>
    <i name="e_fr_energy">    -65.39163983 </i>
    <i name="e_wo_entrp">    -65.38729506 </i>
    <i name="e_0_energy">    -65.39019157 </i>
   </energy>
  </scstep>
  <scstep>
   <time name="dav">    1.40    1.43</time>
   <time name="total">    1.41    1.45</time>
   <energy>
    <i name="e_fr_energy">   -331.92884214 </i>
    <i name="e_wo_entrp">   -331.93161542 </i>
    <i name="e_0_energy">   -331.92976657 </i>
   </energy>
  </scstep>
  <scstep>
   <time name="dav">    1.42    1.45</time>
   <time name="total">    1.43    1.47</time>
   <energy>
    <i name="e_fr_energy">   -366.30855354 </i>
    <i name="e_wo_entrp">   -366.31817644 </i>
    <i name="e_0_energy">   -366.31176117 </i>
   </energy>
  </scstep>
  <scstep>
   <time name="dav">    1.28    1.31</time>
   <time name="total">    1.34    1.38</time>
   <energy>
    <i name="e_fr_energy">   -369.91413400 </i>
    <i name="e_wo_entrp">   -369.92644458 </i>
    <i name="e_0_energy">   -369.91823752 </i>
   </energy>
  </scstep>
  <scstep>
   <time name="diag">    0.08    0.08</time>
   <time name="diis">    0.80    0.83</time>
   <time name="orth">    0.01    0.01</time>
   <time name="total">    0.98    1.04</time>
   <energy>
    <i name="e_fr_energy">   -359.97824989 </i>
    <i name="e_wo_entrp">   -359.98135131 </i>
    <i name="e_0_energy">   -359.97928369 </i>
   </energy>
  </scstep>
  <scstep>
   <time name="diag">    0.08    0.08</time>
   <time name="diis">    0.75    0.77</time>
   <time name="orth">    0.01    0.01</time>
   <time name="total">    0.93    0.98</time>
   <energy>
    <i name="e_fr_energy">   -362.50456645 </i>
    <i name="e_wo_entrp">   -362.51593193 </i>
    <i name="e_0_energy">   -362.50835494 </i>
   </energy>
  </scstep>
  <scstep>
   <time name="diag">    0.12    0.12</time>
   <time name="diis">    0.75    0.78</time>
   <time name="orth">    0.01    0.01</time>
   <time name="total">    0.96    1.00</time>
   <energy>
    <i name="e_fr_energy">   -355.91004308 </i>
    <i name="e_wo_entrp">   -355.92671726 </i>
    <i name="e_0_energy">   -355.91560114 </i>
   </energy>
  </scstep>
  <scstep>
   <time name="diag">    0.09    0.10</time>
   <time name="diis">    0.83    0.85</time>
   <time name="orth">    0.01    0.01</time>
   <time name="total">    1.00    1.04</time>
   <energy>
    <i name="e_fr_energy">   -355.58169133 </i>
    <i name="e_wo_entrp">   -355.59109378 </i>
    <i name="e_0_energy">   -355.58482548 </i>
   </energy>
  </scstep>
  <scstep>
   <time name="diag">    0.08    0.10</time>
   <time name="diis">    0.72    0.81</time>
   <time name="orth">    0.01    0.01</time>
   <time name="total">    0.88    1.13</time>
   <energy>
    <i name="e_fr_energy">   -355.57006675 </i>
    <i name="e_wo_entrp">   -355.57961152 </i>
    <i name="e_0_energy">   -355.57324834 </i>
   </energy>
  </scstep>
  <scstep>
   <time name="diag">    0.08    0.08</time>
   <time name="diis">    0.74    0.76</time>
   <time name="orth">    0.01    0.01</time>
   <time name="total">    0.90    0.94</time>
   <energy>
    <i name="e_fr_energy">   -355.55652892 </i>
    <i name="e_wo_entrp">   -355.56755354 </i>
    <i name="e_0_energy">   -355.56020380 </i>
   </energy>
  </scstep>
  <scstep>
   <time name="diag">    0.08    0.08</time>
   <time name="diis">    0.75    0.77</time>
   <time name="orth">    0.01    0.01</time>
   <time name="total">    0.91    0.96</time>
   <energy>
    <i name="e_fr_energy">   -355.54825491 </i>
    <i name="e_wo_entrp">   -355.56013295 </i>
    <i name="e_0_energy">   -355.55221426 </i>
   </energy>
  </scstep>
  <scstep>
   <time name="diag">    0.08    0.08</time>
   <time name="diis">    0.67    0.82</time>
   <time name="orth">    0.01    0.01</time>
   <time name="total">    0.84    1.02</time>
   <energy>
    <i name="e_fr_energy">   -355.54726615 </i>
    <i name="e_wo_entrp">   -355.55859605 </i>
    <i name="e_0_energy">   -355.55104279 </i>
   </energy>
  </scstep>
  <scstep>
   <time name="diag">    0.08    0.08</time>
   <time name="diis">    0.76    0.78</time>
   <time name="orth">    0.01    0.01</time>
   <time name="total">    0.92    0.98</time>
   <energy>
    <i name="e_fr_energy">   -355.54757017 </i>
    <i name="e_wo_entrp">   -355.55906649 </i>
    <i name="e_0_energy">   -355.55140228 </i>
   </energy>
  </scstep>
  <scstep>
   <time name="diag">    0.08    0.08</time>
   <time name="diis">    0.84    0.86</time>
   <time name="orth">    0.01    0.01</time>
   <time name="total">    1.00    1.05</time>
   <energy>
    <i name="e_fr_energy">   -355.54789903 </i>
    <i name="e_wo_entrp">   -355.55935661 </i>
    <i name="e_0_energy">   -355.55171822 </i>
   </energy>
  </scstep>
  <scstep>
   <time name="diag">    0.08    0.08</time>
   <time name="diis">    0.83    0.85</time>
   <time name="orth">    0.01    0.01</time>
   <time name="total">    1.02    1.07</time>
   <energy>
    <i name="e_fr_energy">   -355.54798715 </i>
    <i name="e_wo_entrp">   -355.55941437 </i>
    <i name="e_0_energy">   -355.55179622 </i>
   </energy>
  </scstep>
  <scstep>
   <time name="diag">    0.11    0.11</time>
   <time name="diis">    0.69    0.69</time>
   <time name="orth">    0.01    0.01</time>
   <time name="total">    0.88    0.92</time>
   <energy>
    <i name="e_fr_energy">   -355.54802680 </i>
    <i name="e_wo_entrp">   -355.55951611 </i>
    <i name="e_0_energy">   -355.55185657 </i>
   </energy>
  </scstep>
  <scstep>
   <time name="diag">    0.10    0.10</time>
   <time name="diis">    0.74    0.76</time>
   <time name="orth">    0.01    0.01</time>
   <time name="total">    0.91    0.96</time>
   <energy>
    <i name="e_fr_energy">   -355.54805402 </i>
    <i name="e_wo_entrp">   -355.55957724 </i>
    <i name="e_0_energy">   -355.55189509 </i>
   </energy>
  </scstep>
  <scstep>
   <time name="diag">    0.08    0.09</time>
   <time name="diis">    0.54    0.58</time>
   <time name="orth">    0.01    0.01</time>
   <time name="total">    0.70    0.77</time>
   <energy>
    <i name="e_fr_energy">   -355.54806639 </i>
    <i name="e_wo_entrp">   -355.55960001 </i>
    <i name="e_0_energy">   -355.55191093 </i>
   </energy>
  </scstep>
  <scstep>
   <time name="diag">    0.08    0.09</time>
   <time name="diis">    0.45    0.51</time>
   <time name="orth">    0.01    0.02</time>
   <time name="total">    0.73    0.84</time>
   <energy>
    <i name="alphaZ">   1487.31529068 </i>
    <i name="ewald"> -19449.20886610 </i>
    <i name="hartreedc">  -6074.87912011 </i>
    <i name="XCdc">   -267.48315587 </i>
    <i name="pawpsdc">  34791.93243653 </i>
    <i name="pawaedc"> -33185.00195337 </i>
    <i name="eentropy">      0.01153685 </i>
    <i name="bandstr">  -2562.42536461 </i>
    <i name="atom">  24904.19112557 </i>
    <i name="e_fr_energy">   -355.54807042 </i>
    <i name="e_wo_entrp">   -355.55960727 </i>
    <i name="e_0_energy">   -355.55191603 </i>
   </energy>
  </scstep>
  <structure>
   <crystal>
    <varray name="basis" >
     <v>       7.01861203       0.02688200      -0.04457554 </v>
     <v>       0.03942760      10.27855742      -0.01409696 </v>
     <v>      -0.06633953      -0.01439626      10.27571907 </v>
    </varray>
    <i name="volume">    741.26011350 </i>
    <varray name="rec_basis" >
     <v>       0.14248624      -0.00054530       0.00091912 </v>
     <v>      -0.00037179       0.09729153       0.00013391 </v>
     <v>       0.00061759       0.00013111       0.09732096 </v>
    </varray>
   </crystal>
   <varray name="positions" >
    <v>       0.00808700       0.34196800       0.31664000 </v>
    <v>       0.49883200       0.66753100       0.32900900 </v>
    <v>       0.71294600       0.15375800       0.84458100 </v>
    <v>       0.01057300       0.99974400       0.00009200 </v>
    <v>       0.23443900       0.16628600       0.50488500 </v>
    <v>       0.27733200       0.17559200       0.83121500 </v>
    <v>       0.99349000       0.66882100       0.00121000 </v>
    <v>       0.50379800       0.33534700       0.33723500 </v>
    <v>       0.79129100       0.51491900       0.50596500 </v>
    <v>       0.50197900       0.67276200       0.66460700 </v>
    <v>       0.76677400       0.83820100       0.49872000 </v>
    <v>       0.25418000       0.49839200       0.83345200 </v>
    <v>       0.25504100       0.16995700       0.16702000 </v>
    <v>       0.96751500       0.31839500       0.68137200 </v>
    <v>       0.74548700       0.15577200       0.17373500 </v>
    <v>       0.00036400       0.00033100       0.67826000 </v>
    <v>       0.22540400       0.50416100       0.51532700 </v>
    <v>       0.00795700       0.66453700       0.31247700 </v>
    <v>       0.47830800       0.97790000       0.01007800 </v>
    <v>       0.48252200       0.99649900       0.33405600 </v>
    <v>       0.53180500       0.33719900       0.64946700 </v>
    <v>       0.99653100       0.33365400       0.00507400 </v>
    <v>       0.73876600       0.83528000       0.82956800 </v>
    <v>       0.75710600       0.84549900       0.17099000 </v>
    <v>       0.01566900       0.99281900       0.32791800 </v>
    <v>       0.27983600       0.50235000       0.14640100 </v>
    <v>       0.24104100       0.82897800       0.17419100 </v>
    <v>       0.23499400       0.83458400       0.50073300 </v>
    <v>       0.49181300       0.98477200       0.66147600 </v>
    <v>       0.72641100       0.49957800       0.14906900 </v>
    <v>       0.76809100       0.15170500       0.48798000 </v>
    <v>       0.50389800       0.67351100       0.99809100 </v>
    <v>       0.00103100       0.68291600       0.68443800 </v>
    <v>       0.25348300       0.82470500       0.82424800 </v>
    <v>       0.50335300       0.34389500       0.00608800 </v>
    <v>       0.73985600       0.50768700       0.84434400 </v>
   </varray>
  </structure>
  <varray name="forces" >
   <v>      -0.31382878       0.42952645       0.19674938 </v>
   <v>       0.01296431       0.02047928      -0.00328666 </v>
   <v>      -0.02404325       0.00570704       0.05489754 </v>
   <v>      -0.24285321      -0.25281644      -0.27622404 </v>
   <v>      -0.00175014       0.00893064       0.02220706 </v>
   <v>      -0.01649597      -0.05105881      -0.03389377 </v>
   <v>      -0.00785273      -0.00396940      -0.00288603 </v>
   <v>       0.25387109       0.27537651       0.30889018 </v>
   <v>      -0.00163307      -0.03958840      -0.04110793 </v>
   <v>      -0.01481101       0.00376568       0.02139358 </v>
   <v>       0.00200177       0.04715469      -0.03048479 </v>
   <v>       0.00389248      -0.02907053      -0.00496731 </v>
   <v>       0.10970972       0.12923178      -0.18153552 </v>
   <v>       0.00449972       0.01419944       0.01279693 </v>
   <v>       0.05414290       0.04805360      -0.03792927 </v>
   <v>       0.00056141      -0.01356153      -0.00995871 </v>
   <v>      -0.00382810      -0.02460407      -0.01667439 </v>
   <v>      -0.03494915       0.00043707       0.00864656 </v>
   <v>       0.23793677      -0.42989097      -0.26899486 </v>
   <v>       0.25116608      -0.36944428       0.35797561 </v>
   <v>      -0.00392586       0.00160529      -0.00855206 </v>
   <v>      -0.36790016       0.28204863      -0.22302335 </v>
   <v>       0.00414793       0.03722759       0.03326377 </v>
   <v>      -0.00482701      -0.00954759       0.01829453 </v>
   <v>      -0.27100612      -0.41958125       0.30623867 </v>
   <v>      -0.02283826      -0.05355009       0.03929198 </v>
   <v>       0.01947156       0.09553684      -0.01325895 </v>
   <v>      -0.01386299      -0.00081715       0.01413000 </v>
   <v>       0.00698525      -0.00953626      -0.03797862 </v>
   <v>       0.00684289      -0.03155815       0.01876258 </v>
   <v>       0.03074648       0.00304465      -0.02556757 </v>
   <v>       0.01970499       0.02571987      -0.00282878 </v>
   <v>       0.02921353      -0.00375683      -0.02059894 </v>
   <v>      -0.00134170      -0.00108062       0.03163884 </v>
   <v>       0.30622829       0.36163711      -0.21933235 </v>
   <v>      -0.00633965      -0.04624977       0.01390673 </v>
  </varray>
  <varray name="stress" >
   <v>       8.33082358      -0.71547104       0.52058314 </v>
   <v>      -0.71547096       8.83222099      -0.14980401 </v>
   <v>       0.52058313      -0.14980397       7.51144544 </v>
  </varray>
  <energy>
   <i name="e_fr_energy">   -355.54807042 </i>
   <i name="e_wo_entrp">   -355.55191603 </i>
   <i name="e_0_energy">      0.01153685 </i>
  </energy>
  <time name="totalsc">   22.24   24.11</time>
 </calculation>
 <calculation>
  <scstep>
   <time name="dav">    0.99    1.20</time>
   <time name="total">    1.11    1.44</time>
   <energy>
    <i name="alphaZ">   1480.51026559 </i>
    <i name="ewald"> -19419.80592522 </i>
    <i name="hartreedc">  -6065.41546545 </i>
    <i name="XCdc">   -268.80877843 </i>
    <i name="pawpsdc">  34791.97885998 </i>
    <i name="pawaedc"> -33185.04383735 </i>
    <i name="eentropy">      0.01198349 </i>
    <i name="bandstr">  -2593.24757645 </i>
    <i name="atom">  24904.19112557 </i>
    <i name="e_fr_energy">   -355.62934825 </i>
    <i name="e_wo_entrp">   -355.64133174 </i>
    <i name="e_0_energy">   -355.63334274 </i>
   </energy>
  </scstep>
  <scstep>
   <time name="diag">    0.08    0.09</time>
   <time name="diis">    0.71    0.75</time>
   <time name="orth">    0.01    0.01</time>
   <time name="total">    0.87    0.95</time>
   <energy>
    <i name="e_fr_energy">   -355.60873976 </i>
    <i name="e_wo_entrp">   -355.62157943 </i>
    <i name="e_0_energy">   -355.61301965 </i>
   </energy>
  </scstep>
  <scstep>
   <time name="diag">    0.09    0.10</time>
   <time name="diis">    0.70    0.89</time>
   <time name="orth">    0.01    0.01</time>
   <time name="total">    0.87    1.09</time>
   <energy>
    <i name="e_fr_energy">   -355.60332766 </i>
    <i name="e_wo_entrp">   -355.61577147 </i>
    <i name="e_0_energy">   -355.60747559 </i>
   </energy>
  </scstep>
  <scstep>
   <time name="diag">    0.12    0.12</time>
   <time name="diis">    0.86    0.90</time>
   <time name="orth">    0.01    0.01</time>
   <time name="total">    1.06    1.14</time>
   <energy>
    <i name="e_fr_energy">   -355.59252323 </i>
    <i name="e_wo_entrp">   -355.60532803 </i>
    <i name="e_0_energy">   -355.59679149 </i>
   </energy>
  </scstep>
  <scstep>
   <time name="diag">    0.09    0.09</time>
   <time name="diis">    0.81    0.83</time>
   <time name="orth">    0.01    0.01</time>
   <time name="total">    1.02    1.07</time>
   <energy>
    <i name="e_fr_energy">   -355.59203596 </i>
    <i name="e_wo_entrp">   -355.60479321 </i>
    <i name="e_0_energy">   -355.59628837 </i>
   </energy>
  </scstep>
  <scstep>
   <time name="diag">    0.12    0.12</time>
   <time name="diis">    0.81    0.83</time>
   <time name="orth">    0.01    0.01</time>
   <time name="total">    1.01    1.06</time>
   <energy>
    <i name="e_fr_energy">   -355.59210372 </i>
    <i name="e_wo_entrp">   -355.60482841 </i>
    <i name="e_0_energy">   -355.59634529 </i>
   </energy>
  </scstep>
  <scstep>
   <time name="diag">    0.08    0.08</time>
   <time name="diis">    0.75    0.77</time>
   <time name="orth">    0.01    0.01</time>
   <time name="total">    0.91    0.95</time>
   <energy>
    <i name="e_fr_energy">   -355.59213701 </i>
    <i name="e_wo_entrp">   -355.60494921 </i>
    <i name="e_0_energy">   -355.59640775 </i>
   </energy>
  </scstep>
  <scstep>
   <time name="diag">    0.08    0.08</time>
   <time name="diis">    0.69    0.71</time>
   <time name="orth">    0.01    0.01</time>
   <time name="total">    0.85    0.90</time>
   <energy>
    <i name="e_fr_energy">   -355.59216280 </i>
    <i name="e_wo_entrp">   -355.60492174 </i>
    <i name="e_0_energy">   -355.59641578 </i>
   </energy>
  </scstep>
  <scstep>
   <time name="diag">    0.08    0.08</time>
   <time name="diis">    0.59    0.60</time>
   <time name="orth">    0.01    0.01</time>
   <time name="total">    0.74    0.78</time>
   <energy>
    <i name="e_fr_energy">   -355.59218381 </i>
    <i name="e_wo_entrp">   -355.60495224 </i>
    <i name="e_0_energy">   -355.59643995 </i>
   </energy>
  </scstep>
  <scstep>
   <time name="diag">    0.09    0.09</time>
   <time name="diis">    0.56    0.57</time>
   <time name="orth">    0.01    0.01</time>
   <time name="total">    0.73    0.77</time>
   <energy>
    <i name="e_fr_energy">   -355.59219904 </i>
    <i name="e_wo_entrp">   -355.60497153 </i>
    <i name="e_0_energy">   -355.59645654 </i>
   </energy>
  </scstep>
  <scstep>
   <time name="diag">    0.09    0.10</time>
   <time name="diis">    0.46    0.47</time>
   <time name="orth">    0.01    0.01</time>
   <time name="total">    0.60    0.64</time>
   <energy>
    <i name="alphaZ">   1480.51026559 </i>
    <i name="ewald"> -19419.80592522 </i>
    <i name="hartreedc">  -6083.10089051 </i>
    <i name="XCdc">   -268.02032552 </i>
    <i name="pawpsdc">  34558.66651721 </i>
    <i name="pawaedc"> -32952.04904172 </i>
    <i name="eentropy">      0.01278204 </i>
    <i name="bandstr">  -2575.99670350 </i>
    <i name="atom">  24904.19112557 </i>
    <i name="e_fr_energy">   -355.59219605 </i>
    <i name="e_wo_entrp">   -355.60497809 </i>
    <i name="e_0_energy">   -355.59645673 </i>
   </energy>
  </scstep>
  <structure>
   <crystal>
    <varray name="basis" >
     <v>       7.02947963       0.02599339      -0.04395897 </v>
     <v>       0.03811949      10.29543799      -0.01439924 </v>
     <v>      -0.06544544      -0.01469740      10.29006945 </v>
    </varray>
    <i name="volume">    744.66724534 </i>
    <varray name="rec_basis" >
     <v>       0.14226564      -0.00052548       0.00090407 </v>
     <v>      -0.00035832       0.09713192       0.00013646 </v>
     <v>       0.00060725       0.00013368       0.09718513 </v>
    </varray>
   </crystal>
   <varray name="positions" >
    <v>       0.00743906       0.34257488       0.31691513 </v>
    <v>       0.49885853       0.66755976       0.32900453 </v>
    <v>       0.71289710       0.15376627       0.84465812 </v>
    <v>       0.01007052       0.99938879      -0.00029971 </v>
    <v>       0.23443562       0.16629863       0.50491628 </v>
    <v>       0.27729793       0.17552013       0.83116702 </v>
    <v>       0.99347380       0.66881545       0.00120586 </v>
    <v>       0.50432346       0.33573398       0.33767287 </v>
    <v>       0.79128740       0.51486319       0.50590701 </v>
    <v>       0.50194871       0.67276742       0.66463701 </v>
    <v>       0.76677735       0.83826733       0.49867717 </v>
    <v>       0.25418819       0.49835104       0.83344498 </v>
    <v>       0.25526381       0.17013803       0.16676553 </v>
    <v>       0.96752434       0.31841499       0.68139009 </v>
    <v>       0.74559777       0.15583930       0.17368215 </v>
    <v>       0.00036513       0.00031188       0.67824595 </v>
    <v>       0.22539608       0.50412634       0.51530343 </v>
    <v>       0.00788504       0.66453782       0.31248887 </v>
    <v>       0.47879848       0.97729288       0.00970043 </v>
    <v>       0.48304763       0.99597814       0.33456175 </v>
    <v>       0.53179678       0.33720126       0.64945492 </v>
    <v>       0.99576713       0.33405269       0.00475712 </v>
    <v>       0.73877470       0.83533246       0.82961496 </v>
    <v>       0.75709636       0.84548562       0.17101571 </v>
    <v>       0.01511752       0.99223025       0.32834612 </v>
    <v>       0.27978985       0.50227480       0.14645604 </v>
    <v>       0.24108022       0.82911239       0.17417268 </v>
    <v>       0.23496561       0.83458295       0.50075278 </v>
    <v>       0.49182697       0.98475846       0.66142255 </v>
    <v>       0.72642561       0.49953356       0.14909543 </v>
    <v>       0.76815404       0.15170907       0.48794427 </v>
    <v>       0.50393839       0.67354710       0.99808724 </v>
    <v>       0.00109100       0.68291051       0.68440924 </v>
    <v>       0.25348066       0.82470355       0.82429255 </v>
    <v>       0.50397872       0.34440214       0.00578249 </v>
    <v>       0.73984348       0.50762194       0.84436344 </v>
   </varray>
  </structure>
  <varray name="forces" >
   <v>      -0.28633374       0.38327724       0.15814128 </v>
   <v>      -0.00086254       0.02772172      -0.01841407 </v>
   <v>      -0.03345023       0.00602190       0.04457226 </v>
   <v>      -0.21066581      -0.22961013      -0.24244269 </v>
   <v>      -0.00892943       0.00198565       0.01427497 </v>
   <v>      -0.01454235      -0.05092325      -0.02224978 </v>
   <v>      -0.00658524      -0.00791712       0.00385024 </v>
   <v>       0.23334423       0.23726839       0.26956229 </v>
   <v>       0.00940917      -0.01971142      -0.01725603 </v>
   <v>      -0.01761032       0.01531165       0.02645641 </v>
   <v>       0.01146342       0.02898048      -0.00895522 </v>
   <v>       0.00875486      -0.01705353      -0.00379685 </v>
   <v>       0.10288114       0.11312207      -0.17110975 </v>
   <v>      -0.00164437       0.00508773       0.00980165 </v>
   <v>       0.05479680       0.03755291      -0.02130835 </v>
   <v>       0.00146009      -0.01410195      -0.01318923 </v>
   <v>      -0.01291696      -0.01749362      -0.00191865 </v>
   <v>      -0.02383597       0.01570079      -0.00315630 </v>
   <v>       0.20974894      -0.40660996      -0.23778337 </v>
   <v>       0.21937847      -0.32235005       0.31384324 </v>
   <v>       0.00210993      -0.00486868      -0.00627467 </v>
   <v>      -0.33685377       0.25124200      -0.19069806 </v>
   <v>       0.00460716       0.02640549       0.00698547 </v>
   <v>       0.00694920      -0.00723903       0.02552917 </v>
   <v>      -0.23586530      -0.37474678       0.25427251 </v>
   <v>       0.00032185      -0.05553987       0.02446384 </v>
   <v>       0.00898753       0.09327937       0.00056972 </v>
   <v>      -0.01949097      -0.00759562       0.02314046 </v>
   <v>      -0.00078791      -0.01377988      -0.03006281 </v>
   <v>      -0.01783714      -0.00905558       0.01448656 </v>
   <v>       0.04119679      -0.00268717      -0.02480420 </v>
   <v>       0.01561159       0.01086525       0.00525090 </v>
   <v>       0.03393060       0.00840409      -0.01161467 </v>
   <v>      -0.00287909      -0.01235930       0.01139625 </v>
   <v>       0.28226041       0.34185254      -0.19302469 </v>
   <v>      -0.01612104      -0.03043635       0.01146216 </v>
  </varray>
  <varray name="stress" >
   <v>       2.43013948      -0.48585251       0.43786424 </v>
   <v>      -0.48585247       2.89830425      -0.15281997 </v>
   <v>       0.43786423      -0.15281996       1.68668118 </v>
  </varray>
  <energy>
   <i name="e_fr_energy">   -355.59219605 </i>
   <i name="e_wo_entrp">   -355.59645673 </i>
   <i name="e_0_energy">      0.01278204 </i>
  </energy>
  <time name="totalsc">   11.34   12.57</time>
 </calculation>
 <calculation>
  <scstep>
   <time name="dav">    0.95    0.98</time>
   <time name="total">    1.09    1.23</time>
   <energy>
    <i name="alphaZ">   1465.62010940 </i>
    <i name="ewald"> -19354.44629355 </i>
    <i name="hartreedc">  -6062.79680409 </i>
    <i name="XCdc">   -270.93754507 </i>
    <i name="pawpsdc">  34558.69062269 </i>
    <i name="pawaedc"> -32952.11340701 </i>
    <i name="eentropy">      0.01360188 </i>
    <i name="bandstr">  -2644.03585360 </i>
    <i name="atom">  24904.19112557 </i>
    <i name="e_fr_energy">   -355.81444378 </i>
    <i name="e_wo_entrp">   -355.82804566 </i>
    <i name="e_0_energy">   -355.81897774 </i>
   </energy>
  </scstep>
  <scstep>
   <time name="diag">    0.08    0.09</time>
   <time name="diis">    0.81    0.82</time>
   <time name="orth">    0.01    0.01</time>
   <time name="total">    0.97    1.01</time>
   <energy>
    <i name="e_fr_energy">   -355.71370344 </i>
    <i name="e_wo_entrp">   -355.72892729 </i>
    <i name="e_0_energy">   -355.71877805 </i>
   </energy>
  </scstep>
  <scstep>
   <time name="diag">    0.08    0.08</time>
   <time name="diis">    0.84    0.86</time>
   <time name="orth">    0.01    0.01</time>
   <time name="total">    1.00    1.04</time>
   <energy>
    <i name="e_fr_energy">   -355.68473869 </i>
    <i name="e_wo_entrp">   -355.69946569 </i>
    <i name="e_0_energy">   -355.68964769 </i>
   </energy>
  </scstep>
  <scstep>
   <time name="diag">    0.08    0.08</time>
   <time name="diis">    0.76    0.78</time>
   <time name="orth">    0.01    0.01</time>
   <time name="total">    0.92    0.96</time>
   <energy>
    <i name="e_fr_energy">   -355.63368393 </i>
    <i name="e_wo_entrp">   -355.64906914 </i>
    <i name="e_0_energy">   -355.63881233 </i>
   </energy>
  </scstep>
  <scstep>
   <time name="diag">    0.08    0.08</time>
   <time name="diis">    0.76    0.77</time>
   <time name="orth">    0.01    0.01</time>
   <time name="total">    0.92    0.95</time>
   <energy>
    <i name="e_fr_energy">   -355.63114725 </i>
    <i name="e_wo_entrp">   -355.64648166 </i>
    <i name="e_0_energy">   -355.63625872 </i>
   </energy>
  </scstep>
  <scstep>
   <time name="diag">    0.08    0.08</time>
   <time name="diis">    0.90    0.92</time>
   <time name="orth">    0.01    0.01</time>
   <time name="total">    1.06    1.13</time>
   <energy>
    <i name="e_fr_energy">   -355.63159066 </i>
    <i name="e_wo_entrp">   -355.64685074 </i>
    <i name="e_0_energy">   -355.63667735 </i>
   </energy>
  </scstep>
  <scstep>
   <time name="diag">    0.08    0.08</time>
   <time name="diis">    0.83    0.85</time>
   <time name="orth">    0.01    0.01</time>
   <time name="total">    0.98    1.04</time>
   <energy>
    <i name="e_fr_energy">   -355.63188739 </i>
    <i name="e_wo_entrp">   -355.64729891 </i>
    <i name="e_0_energy">   -355.63702457 </i>
   </energy>
  </scstep>
  <scstep>
   <time name="diag">    0.08    0.08</time>
   <time name="diis">    0.83    0.86</time>
   <time name="orth">    0.01    0.01</time>
   <time name="total">    0.99    1.04</time>
   <energy>
    <i name="e_fr_energy">   -355.63208158 </i>
    <i name="e_wo_entrp">   -355.64740869 </i>
    <i name="e_0_energy">   -355.63719062 </i>
   </energy>
  </scstep>
  <scstep>
   <time name="diag">    0.12    0.15</time>
   <time name="diis">    0.78    0.80</time>
   <time name="orth">    0.01    0.01</time>
   <time name="total">    0.98    1.06</time>
   <energy>
    <i name="e_fr_energy">   -355.63222060 </i>
    <i name="e_wo_entrp">   -355.64756173 </i>
    <i name="e_0_energy">   -355.63733431 </i>
   </energy>
  </scstep>
  <scstep>
   <time name="diag">    0.11    0.11</time>
   <time name="diis">    0.68    0.69</time>
   <time name="orth">    0.01    0.01</time>
   <time name="total">    0.88    0.94</time>
   <energy>
    <i name="e_fr_energy">   -355.63234453 </i>
    <i name="e_wo_entrp">   -355.64769624 </i>
    <i name="e_0_energy">   -355.63746177 </i>
   </energy>
  </scstep>
  <scstep>
   <time name="diag">    0.08    0.08</time>
   <time name="diis">    0.64    0.64</time>
   <time name="orth">    0.01    0.01</time>
   <time name="total">    0.79    0.83</time>
   <energy>
    <i name="e_fr_energy">   -355.63236859 </i>
    <i name="e_wo_entrp">   -355.64774407 </i>
    <i name="e_0_energy">   -355.63749375 </i>
   </energy>
  </scstep>
  <scstep>
   <time name="diag">    0.08    0.08</time>
   <time name="diis">    0.63    0.64</time>
   <time name="orth">    0.01    0.01</time>
   <time name="total">    0.79    0.82</time>
   <energy>
    <i name="e_fr_energy">   -355.63236891 </i>
    <i name="e_wo_entrp">   -355.64772122 </i>
    <i name="e_0_energy">   -355.63748634 </i>
   </energy>
  </scstep>
  <scstep>
   <time name="diag">    0.08    0.08</time>
   <time name="diis">    0.46    0.47</time>
   <time name="orth">    0.01    0.01</time>
   <time name="total">    0.59    0.62</time>
   <energy>
    <i name="alphaZ">   1465.62010940 </i>
    <i name="ewald"> -19354.44629355 </i>
    <i name="hartreedc">  -6101.55003246 </i>
    <i name="XCdc">   -269.21055208 </i>
    <i name="pawpsdc">  34056.79473224 </i>
    <i name="pawaedc"> -32451.21775400 </i>
    <i name="eentropy">      0.01535927 </i>
    <i name="bandstr">  -2605.82906315 </i>
    <i name="atom">  24904.19112557 </i>
    <i name="e_fr_energy">   -355.63236876 </i>
    <i name="e_wo_entrp">   -355.64772803 </i>
    <i name="e_0_energy">   -355.63748852 </i>
   </energy>
  </scstep>
  <structure>
   <crystal>
    <varray name="basis" >
     <v>       7.05349391       0.02402982      -0.04259652 </v>
     <v>       0.03522895      10.33273920      -0.01506717 </v>
     <v>      -0.06346974      -0.01536283      10.32177967 </v>
    </varray>
    <i name="volume">    752.23278809 </i>
    <varray name="rec_basis" >
     <v>       0.14178061      -0.00048212       0.00087111 </v>
     <v>      -0.00032886       0.09678109       0.00014203 </v>
     <v>       0.00058463       0.00013929       0.09688632 </v>
    </varray>
   </crystal>
   <varray name="positions" >
    <v>       0.00600968       0.34391359       0.31752238 </v>
    <v>       0.49891707       0.66762321       0.32899465 </v>
    <v>       0.71278920       0.15378451       0.84482830 </v>
    <v>       0.00896185       0.99860503      -0.00116403 </v>
    <v>       0.23442815       0.16632649       0.50498530 </v>
    <v>       0.27722276       0.17536156       0.83106113 </v>
    <v>       0.99343805       0.66880319       0.00119672 </v>
    <v>       0.50548282       0.33658784       0.33863902 </v>
    <v>       0.79127944       0.51474005       0.50577904 </v>
    <v>       0.50188188       0.67277938       0.66470323 </v>
    <v>       0.76678478       0.83841365       0.49858266 </v>
    <v>       0.25420625       0.49826067       0.83342950 </v>
    <v>       0.25575554       0.17053742       0.16620399 </v>
    <v>       0.96754494       0.31845911       0.68143001 </v>
    <v>       0.74584220       0.15598778       0.17356552 </v>
    <v>       0.00036763       0.00026971       0.67821495 </v>
    <v>       0.22537859       0.50404989       0.51525143 </v>
    <v>       0.00772627       0.66453962       0.31251506 </v>
    <v>       0.47988048       0.97595359       0.00886716 </v>
    <v>       0.48420693       0.99482920       0.33567766 </v>
    <v>       0.53177864       0.33720626       0.64942827 </v>
    <v>       0.99408209       0.33493208       0.00405801 </v>
    <v>       0.73879391       0.83544820       0.82971859 </v>
    <v>       0.75707509       0.84545609       0.17107243 </v>
    <v>       0.01390042       0.99093132       0.32929087 </v>
    <v>       0.27968798       0.50210888       0.14657749 </v>
    <v>       0.24116683       0.82940888       0.17413226 </v>
    <v>       0.23490296       0.83458063       0.50079642 </v>
    <v>       0.49185782       0.98472859       0.66130461 </v>
    <v>       0.72645782       0.49943554       0.14915374 </v>
    <v>       0.76829314       0.15171807       0.48786541 </v>
    <v>       0.50402753       0.67362676       0.99807894 </v>
    <v>       0.00122338       0.68289842       0.68434577 </v>
    <v>       0.25347549       0.82470034       0.82439085 </v>
    <v>       0.50535957       0.34552105       0.00510829 </v>
    <v>       0.73981581       0.50747840       0.84440635 </v>
   </varray>
  </structure>
  <varray name="forces" >
   <v>      -0.22885979       0.28158298       0.07667889 </v>
   <v>      -0.03107346       0.04448594      -0.05198753 </v>
   <v>      -0.05411459       0.00572658       0.02367563 </v>
   <v>      -0.14232578      -0.18454017      -0.17225002 </v>
   <v>      -0.02449447      -0.01385963      -0.00429905 </v>
   <v>      -0.01050106      -0.05036873       0.00262923 </v>
   <v>      -0.00321031      -0.01511159       0.01800064 </v>
   <v>       0.19089275       0.15736977       0.18562906 </v>
   <v>       0.03298490       0.02415074       0.03545069 </v>
   <v>      -0.02423232       0.04197526       0.03822557 </v>
   <v>       0.03108137      -0.01208176       0.03990174 </v>
   <v>       0.01952959       0.00814076      -0.00036455 </v>
   <v>       0.08786348       0.08237754      -0.14966888 </v>
   <v>      -0.01413799      -0.01356903       0.00099397 </v>
   <v>       0.05772625       0.01528510       0.01430281 </v>
   <v>       0.00450267      -0.01508140      -0.02164872 </v>
   <v>      -0.03139356      -0.00139699       0.02996517 </v>
   <v>      -0.00036460       0.04953161      -0.02674143 </v>
   <v>       0.15034379      -0.35849134      -0.17487175 </v>
   <v>       0.15423636      -0.22525478       0.22457626 </v>
   <v>       0.01433739      -0.01977456       0.00036795 </v>
   <v>      -0.27356481       0.18581859      -0.12502926 </v>
   <v>       0.00667828       0.00341347      -0.04905808 </v>
   <v>       0.03329734      -0.00131018       0.04007940 </v>
   <v>      -0.16443779      -0.28130496       0.14695323 </v>
   <v>       0.05196699      -0.05941713      -0.00665404 </v>
   <v>      -0.01412775       0.08835919       0.03024501 </v>
   <v>      -0.03102098      -0.02075436       0.04192714 </v>
   <v>      -0.01817338      -0.02231482      -0.01337518 </v>
   <v>      -0.07246911       0.03973093       0.00680252 </v>
   <v>       0.06371703      -0.01605223      -0.02368445 </v>
   <v>       0.00645737      -0.01913734       0.02100806 </v>
   <v>       0.04528130       0.03524962       0.00684380 </v>
   <v>      -0.00937986      -0.03651710      -0.03142113 </v>
   <v>       0.23460648       0.30013808      -0.13856542 </v>
   <v>      -0.03762172       0.00300193       0.00536273 </v>
  </varray>
  <varray name="stress" >
   <v>     -10.34922944       0.02497153       0.25176116 </v>
   <v>       0.02497154      -9.96570890      -0.16625890 </v>
   <v>       0.25176119      -0.16625889     -10.87338891 </v>
  </varray>
  <energy>
   <i name="e_fr_energy">   -355.63236876 </i>
   <i name="e_wo_entrp">   -355.63748852 </i>
   <i name="e_0_energy">      0.01535927 </i>
  </energy>
  <time name="totalsc">   13.57   14.39</time>
 </calculation>
 <calculation>
  <scstep>
   <time name="dav">    0.90    0.93</time>
   <time name="total">    1.02    1.16</time>
   <energy>
    <i name="alphaZ">   1468.16441608 </i>
    <i name="ewald"> -19364.38419089 </i>
    <i name="hartreedc">  -6106.32360036 </i>
    <i name="XCdc">   -268.71373961 </i>
    <i name="pawpsdc">  34056.01019167 </i>
    <i name="pawaedc"> -32450.46388051 </i>
    <i name="eentropy">      0.01539038 </i>
    <i name="bandstr">  -2594.16593727 </i>
    <i name="atom">  24904.19112557 </i>
    <i name="e_fr_energy">   -355.67022494 </i>
    <i name="e_wo_entrp">   -355.68561532 </i>
    <i name="e_0_energy">   -355.67535507 </i>
   </energy>
  </scstep>
  <scstep>
   <time name="diag">    0.08    0.08</time>
   <time name="diis">    0.74    0.75</time>
   <time name="orth">    0.01    0.01</time>
   <time name="total">    0.89    0.93</time>
   <energy>
    <i name="e_fr_energy">   -355.67584855 </i>
    <i name="e_wo_entrp">   -355.69158664 </i>
    <i name="e_0_energy">   -355.68109458 </i>
   </energy>
  </scstep>
  <scstep>
   <time name="diag">    0.08    0.08</time>
   <time name="diis">    0.74    0.76</time>
   <time name="orth">    0.01    0.01</time>
   <time name="total">    0.90    0.95</time>
   <energy>
    <i name="e_fr_energy">   -355.67041269 </i>
    <i name="e_wo_entrp">   -355.68581445 </i>
    <i name="e_0_energy">   -355.67554661 </i>
   </energy>
  </scstep>
  <scstep>
   <time name="diag">    0.08    0.08</time>
   <time name="diis">    0.76    0.78</time>
   <time name="orth">    0.01    0.01</time>
   <time name="total">    0.91    0.96</time>
   <energy>
    <i name="e_fr_energy">   -355.66940404 </i>
    <i name="e_wo_entrp">   -355.68478988 </i>
    <i name="e_0_energy">   -355.67453266 </i>
   </energy>
  </scstep>
  <scstep>
   <time name="diag">    0.12    0.12</time>
   <time name="diis">    0.77    0.79</time>
   <time name="orth">    0.01    0.01</time>
   <time name="total">    0.96    1.01</time>
   <energy>
    <i name="e_fr_energy">   -355.66916540 </i>
    <i name="e_wo_entrp">   -355.68462291 </i>
    <i name="e_0_energy">   -355.67431790 </i>
   </energy>
  </scstep>
  <scstep>
   <time name="diag">    0.08    0.08</time>
   <time name="diis">    0.70    0.80</time>
   <time name="orth">    0.01    0.01</time>
   <time name="total">    0.87    1.00</time>
   <energy>
    <i name="e_fr_energy">   -355.66919359 </i>
    <i name="e_wo_entrp">   -355.68462066 </i>
    <i name="e_0_energy">   -355.67433595 </i>
   </energy>
  </scstep>
  <scstep>
   <time name="diag">    0.13    0.14</time>
   <time name="diis">    0.67    0.74</time>
   <time name="orth">    0.01    0.01</time>
   <time name="total">    0.88    0.99</time>
   <energy>
    <i name="e_fr_energy">   -355.66919730 </i>
    <i name="e_wo_entrp">   -355.68462283 </i>
    <i name="e_0_energy">   -355.67433914 </i>
   </energy>
  </scstep>
  <scstep>
   <time name="diag">    0.12    0.12</time>
   <time name="diis">    0.64    0.66</time>
   <time name="orth">    0.01    0.01</time>
   <time name="total">    0.83    0.88</time>
   <energy>
    <i name="e_fr_energy">   -355.66921244 </i>
    <i name="e_wo_entrp">   -355.68463806 </i>
    <i name="e_0_energy">   -355.67435431 </i>
   </energy>
  </scstep>
  <scstep>
   <time name="diag">    0.08    0.08</time>
   <time name="diis">    0.54    0.55</time>
   <time name="orth">    0.01    0.01</time>
   <time name="total">    0.80    0.84</time>
   <energy>
    <i name="e_fr_energy">   -355.66923001 </i>
    <i name="e_wo_entrp">   -355.68466352 </i>
    <i name="e_0_energy">   -355.67437451 </i>
   </energy>
  </scstep>
  <scstep>
   <time name="diag">    0.10    0.10</time>
   <time name="diis">    0.48    0.49</time>
   <time name="orth">    0.01    0.01</time>
   <time name="total">    0.62    0.66</time>
   <energy>
    <i name="alphaZ">   1468.16441608 </i>
    <i name="ewald"> -19364.38419089 </i>
    <i name="hartreedc">  -6099.21489768 </i>
    <i name="XCdc">   -269.02141631 </i>
    <i name="pawpsdc">  34129.15953667 </i>
    <i name="pawaedc"> -32523.67407631 </i>
    <i name="eentropy">      0.01542544 </i>
    <i name="bandstr">  -2600.90515884 </i>
    <i name="atom">  24904.19112557 </i>
    <i name="e_fr_energy">   -355.66923627 </i>
    <i name="e_wo_entrp">   -355.68466171 </i>
    <i name="e_0_energy">   -355.67437808 </i>
   </energy>
  </scstep>
  <structure>
   <crystal>
    <varray name="basis" >
     <v>       7.04957095       0.02333786      -0.04174893 </v>
     <v>       0.03420572      10.32839634      -0.01555814 </v>
     <v>      -0.06223825      -0.01585616      10.31394145 </v>
    </varray>
    <i name="volume">    750.92918007 </i>
    <varray name="rec_basis" >
     <v>       0.14185922      -0.00046852       0.00085531 </v>
     <v>      -0.00031966       0.09682173       0.00014692 </v>
     <v>       0.00057374       0.00014415       0.09695983 </v>
    </varray>
   </crystal>
   <varray name="positions" >
    <v>       0.00510235       0.34472331       0.31782488 </v>
    <v>       0.49887973       0.66770028       0.32892644 </v>
    <v>       0.71265393       0.15379815       0.84491572 </v>
    <v>       0.00832192       0.99810730      -0.00167604 </v>
    <v>       0.23438103       0.16631891       0.50500342 </v>
    <v>       0.27717820       0.17524467       0.83102793 </v>
    <v>       0.99342025       0.66878026       0.00121593 </v>
    <v>       0.50622885       0.33707565       0.33920291 </v>
    <v>       0.79133700       0.51472778       0.50577955 </v>
    <v>       0.50181502       0.67283581       0.66477338 </v>
    <v>       0.76684446       0.83844873       0.49860010 </v>
    <v>       0.25424792       0.49823973       0.83342389 </v>
    <v>       0.25608198       0.17077603       0.16582605 </v>
    <v>       0.96752637       0.31845743       0.68144481 </v>
    <v>       0.74603117       0.15605746       0.17354377 </v>
    <v>       0.00037653       0.00023645       0.67817740 </v>
    <v>       0.22531579       0.50402213       0.51527063 </v>
    <v>       0.00767058       0.66460172       0.31249088 </v>
    <v>       0.48052522       0.97504823       0.00836431 </v>
    <v>       0.48488871       0.99415539       0.33634034 </v>
    <v>       0.53179865       0.33718334       0.64941967 </v>
    <v>       0.99300414       0.33546516       0.00366113 </v>
    <v>       0.73881209       0.83549200       0.82969315 </v>
    <v>       0.75712886       0.84544428       0.17114199 </v>
    <v>       0.01318696       0.99013751       0.32979593 </v>
    <v>       0.27974791       0.50197796       0.14661114 </v>
    <v>       0.24117063       0.82962041       0.17415607 </v>
    <v>       0.23482560       0.83455425       0.50086327 </v>
    <v>       0.49183531       0.98469068       0.66124735 </v>
    <v>       0.72633675       0.49945163       0.14918172 </v>
    <v>       0.76845665       0.15170090       0.48780935 </v>
    <v>       0.50407021       0.67363030       0.99810224 </v>
    <v>       0.00135105       0.68293790       0.68433291 </v>
    <v>       0.25345651       0.82465386       0.82438534 </v>
    <v>       0.50625680       0.34627630       0.00470699 </v>
    <v>       0.73973786       0.50743311       0.84442745 </v>
   </varray>
  </structure>
  <varray name="forces" >
   <v>      -0.19450368       0.21738533       0.04156479 </v>
   <v>      -0.03648060       0.04675528      -0.04801212 </v>
   <v>      -0.05286746       0.00670579       0.01945192 </v>
   <v>      -0.10833839      -0.14065694      -0.14350771 </v>
   <v>      -0.02529341      -0.00960788      -0.01414262 </v>
   <v>      -0.02026402      -0.05022802       0.01959232 </v>
   <v>       0.00569939      -0.02012459       0.02083361 </v>
   <v>       0.16435107       0.11519090       0.14882972 </v>
   <v>       0.02672687       0.04372314       0.05064866 </v>
   <v>      -0.02373136       0.03437794       0.03081782 </v>
   <v>       0.02554467      -0.04703668       0.05961003 </v>
   <v>       0.01746482       0.01296399      -0.00674693 </v>
   <v>       0.07941314       0.06829638      -0.14038118 </v>
   <v>      -0.00210260      -0.01538016      -0.00136174 </v>
   <v>       0.05381259       0.01358894       0.02150466 </v>
   <v>       0.00608444      -0.00272282      -0.02389230 </v>
   <v>      -0.02074782       0.00250661       0.03444195 </v>
   <v>       0.00437779       0.05380202      -0.02044843 </v>
   <v>       0.12473296      -0.29917993      -0.14445785 </v>
   <v>       0.12832033      -0.16345689       0.18160271 </v>
   <v>      -0.00002474      -0.02617909       0.00646173 </v>
   <v>      -0.23230272       0.13729534      -0.09888780 </v>
   <v>       0.01988488      -0.00906105      -0.06627698 </v>
   <v>       0.03243463      -0.01425269       0.04166603 </v>
   <v>      -0.12987163      -0.20754345       0.09456617 </v>
   <v>       0.03981243      -0.05925774       0.00336629 </v>
   <v>      -0.01405339       0.07914733       0.03156165 </v>
   <v>      -0.02807016      -0.04133237       0.04612496 </v>
   <v>      -0.02233082       0.00251208      -0.01048005 </v>
   <v>      -0.06090598       0.07123648       0.04223851 </v>
   <v>       0.06292002      -0.01147837      -0.01928234 </v>
   <v>      -0.00634215      -0.02675003       0.02160054 </v>
   <v>       0.04311977       0.02378609       0.00401537 </v>
   <v>      -0.01784862      -0.03787188      -0.03343116 </v>
   <v>       0.19977984       0.23626045      -0.12971780 </v>
   <v>      -0.03840010       0.01658650      -0.01947243 </v>
  </varray>
  <varray name="stress" >
   <v>      -8.21862538       0.17289295       0.19117543 </v>
   <v>       0.17289291      -7.71409133      -0.11369683 </v>
   <v>       0.19117546      -0.11369684      -8.53502896 </v>
  </varray>
  <energy>
   <i name="e_fr_energy">   -355.66923627 </i>
   <i name="e_wo_entrp">   -355.67437808 </i>
   <i name="e_0_energy">      0.01542544 </i>
  </energy>
  <time name="totalsc">   10.19   10.97</time>
 </calculation>
 <calculation>
  <scstep>
   <time name="dav">    0.89    0.92</time>
   <time name="total">    1.01    1.15</time>
   <energy>
    <i name="alphaZ">   1475.83372633 </i>
    <i name="ewald"> -19392.16082861 </i>
    <i name="hartreedc">  -6115.50116405 </i>
    <i name="XCdc">   -267.51579587 </i>
    <i name="pawpsdc">  34129.86408454 </i>
    <i name="pawaedc"> -32524.34582463 </i>
    <i name="eentropy">      0.01511848 </i>
    <i name="bandstr">  -2566.11733198 </i>
    <i name="atom">  24904.19112557 </i>
    <i name="e_fr_energy">   -355.73689021 </i>
    <i name="e_wo_entrp">   -355.75200870 </i>
    <i name="e_0_energy">   -355.74192971 </i>
   </energy>
  </scstep>
  <scstep>
   <time name="diag">    0.19    0.20</time>
   <time name="diis">    0.73    0.75</time>
   <time name="orth">    0.01    0.01</time>
   <time name="total">    1.00    1.04</time>
   <energy>
    <i name="e_fr_energy">   -355.78648129 </i>
    <i name="e_wo_entrp">   -355.80268267 </i>
    <i name="e_0_energy">   -355.79188175 </i>
   </energy>
  </scstep>
  <scstep>
   <time name="diag">    0.08    0.08</time>
   <time name="diis">    0.75    0.77</time>
   <time name="orth">    0.01    0.03</time>
   <time name="total">    0.91    1.00</time>
   <energy>
    <i name="e_fr_energy">   -355.73938418 </i>
    <i name="e_wo_entrp">   -355.75457859 </i>
    <i name="e_0_energy">   -355.74444898 </i>
   </energy>
  </scstep>
  <scstep>
   <time name="diag">    0.11    0.11</time>
   <time name="diis">    0.79    0.81</time>
   <time name="orth">    0.01    0.01</time>
   <time name="total">    1.00    1.05</time>
   <energy>
    <i name="e_fr_energy">   -355.73075810 </i>
    <i name="e_wo_entrp">   -355.74595566 </i>
    <i name="e_0_energy">   -355.73582395 </i>
   </energy>
  </scstep>
  <scstep>
   <time name="diag">    0.08    0.08</time>
   <time name="diis">    0.77    0.78</time>
   <time name="orth">    0.01    0.01</time>
   <time name="total">    0.93    0.97</time>
   <energy>
    <i name="e_fr_energy">   -355.72887511 </i>
    <i name="e_wo_entrp">   -355.74427268 </i>
    <i name="e_0_energy">   -355.73400763 </i>
   </energy>
  </scstep>
  <scstep>
   <time name="diag">    0.07    0.08</time>
   <time name="diis">    0.86    0.88</time>
   <time name="orth">    0.02    0.02</time>
   <time name="total">    1.04    1.09</time>
   <energy>
    <i name="e_fr_energy">   -355.72909580 </i>
    <i name="e_wo_entrp">   -355.74438447 </i>
    <i name="e_0_energy">   -355.73419202 </i>
   </energy>
  </scstep>
  <scstep>
   <time name="diag">    0.11    0.12</time>
   <time name="diis">    0.83    0.86</time>
   <time name="orth">    0.01    0.01</time>
   <time name="total">    1.01    1.09</time>
   <energy>
    <i name="e_fr_energy">   -355.72915313 </i>
    <i name="e_wo_entrp">   -355.74449006 </i>
    <i name="e_0_energy">   -355.73426544 </i>
   </energy>
  </scstep>
  <scstep>
   <time name="diag">    0.14    0.14</time>
   <time name="diis">    0.81    0.83</time>
   <time name="orth">    0.01    0.01</time>
   <time name="total">    1.03    1.07</time>
   <energy>
    <i name="e_fr_energy">   -355.72925297 </i>
    <i name="e_wo_entrp">   -355.74454356 </i>
    <i name="e_0_energy">   -355.73434983 </i>
   </energy>
  </scstep>
  <scstep>
   <time name="diag">    0.09    0.09</time>
   <time name="diis">    0.76    0.78</time>
   <time name="orth">    0.01    0.01</time>
   <time name="total">    0.93    0.97</time>
   <energy>
    <i name="e_fr_energy">   -355.72934661 </i>
    <i name="e_wo_entrp">   -355.74467801 </i>
    <i name="e_0_energy">   -355.73445707 </i>
   </energy>
  </scstep>
  <scstep>
   <time name="diag">    0.08    0.08</time>
   <time name="diis">    0.65    0.67</time>
   <time name="orth">    0.01    0.01</time>
   <time name="total">    0.81    0.85</time>
   <energy>
    <i name="e_fr_energy">   -355.72939061 </i>
    <i name="e_wo_entrp">   -355.74469366 </i>
    <i name="e_0_energy">   -355.73449163 </i>
   </energy>
  </scstep>
  <scstep>
   <time name="diag">    0.08    0.08</time>
   <time name="diis">    0.55    0.56</time>
   <time name="orth">    0.01    0.01</time>
   <time name="total">    0.71    0.77</time>
   <energy>
    <i name="e_fr_energy">   -355.72940337 </i>
    <i name="e_wo_entrp">   -355.74470666 </i>
    <i name="e_0_energy">   -355.73450447 </i>
   </energy>
  </scstep>
  <scstep>
   <time name="diag">    0.08    0.08</time>
   <time name="diis">    0.49    0.50</time>
   <time name="orth">    0.01    0.01</time>
   <time name="total">    0.61    0.65</time>
   <energy>
    <i name="alphaZ">   1475.83372633 </i>
    <i name="ewald"> -19392.16082861 </i>
    <i name="hartreedc">  -6094.96732088 </i>
    <i name="XCdc">   -268.40974271 </i>
    <i name="pawpsdc">  34374.54801563 </i>
    <i name="pawaedc"> -32768.59854132 </i>
    <i name="eentropy">      0.01531200 </i>
    <i name="bandstr">  -2586.18115446 </i>
    <i name="atom">  24904.19112557 </i>
    <i name="e_fr_energy">   -355.72940844 </i>
    <i name="e_wo_entrp">   -355.74472044 </i>
    <i name="e_0_energy">   -355.73451244 </i>
   </energy>
  </scstep>
  <structure>
   <crystal>
    <varray name="basis" >
     <v>       7.03780207       0.02126197      -0.03920613 </v>
     <v>       0.03113601      10.31536777      -0.01703105 </v>
     <v>      -0.05854378      -0.01733617      10.29042678 </v>
    </varray>
    <i name="volume">    747.02690520 </i>
    <varray name="rec_basis" >
     <v>       0.14209561      -0.00042757       0.00080768 </v>
     <v>      -0.00029198       0.09694389       0.00016166 </v>
     <v>       0.00054090       0.00015882       0.09718104 </v>
    </varray>
   </crystal>
   <varray name="positions" >
    <v>       0.00237903       0.34715336       0.31873341 </v>
    <v>       0.49876772       0.66793155       0.32872168 </v>
    <v>       0.71224783       0.15383906       0.84517821 </v>
    <v>       0.00640111       0.99661330      -0.00321315 </v>
    <v>       0.23423960       0.16629616       0.50505781 </v>
    <v>       0.27704443       0.17489385       0.83092823 </v>
    <v>       0.99336679       0.66871143       0.00127359 </v>
    <v>       0.50846812       0.33853993       0.34089574 </v>
    <v>       0.79150977       0.51469096       0.50578105 </v>
    <v>       0.50161433       0.67300515       0.66498403 </v>
    <v>       0.76702360       0.83855402       0.49865245 </v>
    <v>       0.25437300       0.49817689       0.83340705 </v>
    <v>       0.25706213       0.17149220       0.16469132 </v>
    <v>       0.96747060       0.31845239       0.68148923 </v>
    <v>       0.74659844       0.15626662       0.17347843 </v>
    <v>       0.00040324       0.00013664       0.67806465 </v>
    <v>       0.22512726       0.50393882       0.51532829 </v>
    <v>       0.00750343       0.66478810       0.31241828 </v>
    <v>       0.48246036       0.97233107       0.00685430 </v>
    <v>       0.48693457       0.99213336       0.33832964 </v>
    <v>       0.53185872       0.33711455       0.64939381 </v>
    <v>       0.98976894       0.33706479       0.00246994 </v>
    <v>       0.73886668       0.83562343       0.82961680 </v>
    <v>       0.75729020       0.84540884       0.17135080 </v>
    <v>       0.01104481       0.98775499       0.33131231 </v>
    <v>       0.27992772       0.50158502       0.14671215 </v>
    <v>       0.24118215       0.83025526       0.17422760 </v>
    <v>       0.23459337       0.83447508       0.50106400 </v>
    <v>       0.49176775       0.98457688       0.66107543 </v>
    <v>       0.72597334       0.49949991       0.14926576 </v>
    <v>       0.76894748       0.15164940       0.48764101 </v>
    <v>       0.50419830       0.67364093       0.99817217 </v>
    <v>       0.00173429       0.68305643       0.68429429 </v>
    <v>       0.25339951       0.82451433       0.82436880 </v>
    <v>       0.50895053       0.34854314       0.00350206 </v>
    <v>       0.73950385       0.50729715       0.84449082 </v>
   </varray>
  </structure>
  <varray name="forces" >
   <v>      -0.08943528       0.01811889      -0.06187457 </v>
   <v>      -0.05407330       0.05205772      -0.03587706 </v>
   <v>      -0.04695793       0.00715046       0.00745473 </v>
   <v>      -0.00748894      -0.00919020      -0.05684878 </v>
   <v>      -0.02619309       0.00039035      -0.04912336 </v>
   <v>      -0.05179086      -0.04830365       0.07040985 </v>
   <v>       0.03378670      -0.03527090       0.02915642 </v>
   <v>       0.08451322      -0.00946916       0.03956468 </v>
   <v>       0.00658061       0.10750923       0.10218502 </v>
   <v>      -0.02196261       0.01355621       0.00700671 </v>
   <v>       0.00444178      -0.16242483       0.13062927 </v>
   <v>       0.00840889       0.02639672      -0.02601922 </v>
   <v>       0.05218878       0.02851545      -0.11185885 </v>
   <v>       0.03520825      -0.02127417      -0.00752634 </v>
   <v>       0.04512207       0.00794467       0.04205248 </v>
   <v>       0.01232821       0.03538811      -0.03050600 </v>
   <v>       0.01376995       0.01298007       0.04908177 </v>
   <v>       0.02156555       0.06637923      -0.00276011 </v>
   <v>       0.04541526      -0.11010586      -0.05345478 </v>
   <v>       0.05253819       0.02238318       0.05433310 </v>
   <v>      -0.04277396      -0.04692293       0.02793141 </v>
   <v>      -0.10207589      -0.01021699      -0.02529660 </v>
   <v>       0.06267955      -0.05287665      -0.12318871 </v>
   <v>       0.02970578      -0.05620930       0.04155426 </v>
   <v>      -0.02574788       0.02197553      -0.06262270 </v>
   <v>       0.00176404      -0.05602823       0.03299872 </v>
   <v>      -0.01258412       0.05297344       0.03249915 </v>
   <v>      -0.01503697      -0.10646442       0.06175427 </v>
   <v>      -0.03696313       0.07842438       0.00106605 </v>
   <v>      -0.02747796       0.17311227       0.15148642 </v>
   <v>       0.05863650       0.00231662      -0.00563052 </v>
   <v>      -0.04571526      -0.05092090       0.02353556 </v>
   <v>       0.03496019      -0.01240938      -0.00640324 </v>
   <v>      -0.04547735      -0.04269917      -0.03879039 </v>
   <v>       0.08733630       0.03616947      -0.10303820 </v>
   <v>      -0.03919528       0.06704476      -0.10388046 </v>
  </varray>
  <varray name="stress" >
   <v>      -1.04348040       0.62621607       0.01917439 </v>
   <v>       0.62621602      -0.24886050       0.05077944 </v>
   <v>       0.01917436       0.05077947      -0.61240530 </v>
  </varray>
  <energy>
   <i name="e_fr_energy">   -355.72940844 </i>
   <i name="e_wo_entrp">   -355.73451244 </i>
   <i name="e_0_energy">      0.01531200 </i>
  </energy>
  <time name="totalsc">   12.54   13.34</time>
 </calculation>
 <calculation>
  <scstep>
   <time name="dav">    0.94    0.96</time>
   <time name="total">    1.05    1.21</time>
   <energy>
    <i name="alphaZ">   1477.97088353 </i>
    <i name="ewald"> -19399.32133476 </i>
    <i name="hartreedc">  -6100.03462245 </i>
    <i name="XCdc">   -267.98716649 </i>
    <i name="pawpsdc">  34375.25097940 </i>
    <i name="pawaedc"> -32769.26579830 </i>
    <i name="eentropy">      0.01515286 </i>
    <i name="bandstr">  -2576.55191812 </i>
    <i name="atom">  24904.19112557 </i>
    <i name="e_fr_energy">   -355.73269875 </i>
    <i name="e_wo_entrp">   -355.74785162 </i>
    <i name="e_0_energy">   -355.73774971 </i>
   </energy>
  </scstep>
  <scstep>
   <time name="diag">    0.08    0.08</time>
   <time name="diis">    0.73    0.75</time>
   <time name="orth">    0.01    0.02</time>
   <time name="total">    0.90    0.96</time>
   <energy>
    <i name="e_fr_energy">   -355.73632963 </i>
    <i name="e_wo_entrp">   -355.75183445 </i>
    <i name="e_0_energy">   -355.74149791 </i>
   </energy>
  </scstep>
  <scstep>
   <time name="diag">    0.08    0.08</time>
   <time name="diis">    0.85    0.87</time>
   <time name="orth">    0.01    0.01</time>
   <time name="total">    1.01    1.05</time>
   <energy>
    <i name="e_fr_energy">   -355.73310596 </i>
    <i name="e_wo_entrp">   -355.74828245 </i>
    <i name="e_0_energy">   -355.73816479 </i>
   </energy>
  </scstep>
  <scstep>
   <time name="diag">    0.08    0.08</time>
   <time name="diis">    0.80    0.82</time>
   <time name="orth">    0.01    0.01</time>
   <time name="total">    0.99    1.03</time>
   <energy>
    <i name="e_fr_energy">   -355.73241578 </i>
    <i name="e_wo_entrp">   -355.74760394 </i>
    <i name="e_0_energy">   -355.73747850 </i>
   </energy>
  </scstep>
  <scstep>
   <time name="diag">    0.10    0.10</time>
   <time name="diis">    0.75    0.77</time>
   <time name="orth">    0.01    0.01</time>
   <time name="total">    0.93    0.97</time>
   <energy>
    <i name="e_fr_energy">   -355.73228618 </i>
    <i name="e_wo_entrp">   -355.74752702 </i>
    <i name="e_0_energy">   -355.73736646 </i>
   </energy>
  </scstep>
  <scstep>
   <time name="diag">    0.08    0.08</time>
   <time name="diis">    0.76    0.78</time>
   <time name="orth">    0.01    0.01</time>
   <time name="total">    0.92    0.96</time>
   <energy>
    <i name="e_fr_energy">   -355.73231225 </i>
    <i name="e_wo_entrp">   -355.74751458 </i>
    <i name="e_0_energy">   -355.73737970 </i>
   </energy>
  </scstep>
  <scstep>
[...]
    <v>       0.00782938       0.98679481       0.33218007 </v>
    <v>       0.28200237       0.49733945       0.14634242 </v>
    <v>       0.24146400       0.83723682       0.17585129 </v>
    <v>       0.23513983       0.83452763       0.50213784 </v>
    <v>       0.48587877       0.98717800       0.66132402 </v>
    <v>       0.72567406       0.50988761       0.15572357 </v>
    <v>       0.77719846       0.15574149       0.48471683 </v>
    <v>       0.50378990       0.67277423       0.99836054 </v>
    <v>       0.00280139       0.67977094       0.68383643 </v>
    <v>       0.24877496       0.82482536       0.82342692 </v>
    <v>       0.52224700       0.35319665       0.00253316 </v>
    <v>       0.73889277       0.50939879       0.84019929 </v>
   </varray>
  </structure>
  <varray name="forces" >
   <v>       0.00542005      -0.00125989      -0.00990183 </v>
   <v>       0.00151839       0.00841055       0.00082694 </v>
   <v>      -0.00489932       0.00472336       0.00243250 </v>
   <v>       0.00040403       0.00143173      -0.00366583 </v>
   <v>       0.00706205      -0.00625713       0.00364688 </v>
   <v>      -0.00245676      -0.00075962       0.00001286 </v>
   <v>       0.00698576       0.00527331      -0.00055181 </v>
   <v>      -0.00138066      -0.00619951       0.00201653 </v>
   <v>      -0.00014392      -0.00291727      -0.00161921 </v>
   <v>      -0.00134628       0.00175485       0.00082098 </v>
   <v>       0.00282574      -0.00934034       0.00403435 </v>
   <v>      -0.00504257      -0.00349918       0.00403423 </v>
   <v>       0.00012839      -0.00427391      -0.00786517 </v>
   <v>      -0.00194553       0.00434476       0.00143216 </v>
   <v>      -0.00301340      -0.00268422       0.00382710 </v>
   <v>      -0.00609888      -0.00427363       0.00080575 </v>
   <v>      -0.00200972       0.00312619       0.00465225 </v>
   <v>       0.00297645       0.00171988      -0.00215106 </v>
   <v>       0.00150696      -0.00364489       0.00093675 </v>
   <v>       0.00036319       0.00744827       0.00085948 </v>
   <v>       0.00007142      -0.00303359      -0.00382670 </v>
   <v>       0.00425532      -0.00363475       0.00965050 </v>
   <v>      -0.00469084      -0.00806946      -0.00692275 </v>
   <v>       0.00449218      -0.00544296       0.00556911 </v>
   <v>      -0.00019868       0.00614218      -0.01060911 </v>
   <v>      -0.00218731       0.00089088      -0.00370171 </v>
   <v>      -0.00053063       0.01303305       0.00223977 </v>
   <v>      -0.00175390       0.00695139       0.00585969 </v>
   <v>       0.00169582      -0.00170781      -0.00038651 </v>
   <v>      -0.00104983      -0.00588558       0.01080910 </v>
   <v>      -0.00146298       0.00454785       0.00187468 </v>
   <v>      -0.00846322      -0.00075945      -0.00118400 </v>
   <v>       0.00108000       0.00419136      -0.00279459 </v>
   <v>       0.00093576       0.00072297      -0.00603778 </v>
   <v>       0.00475736      -0.00021190      -0.00302825 </v>
   <v>       0.00219560      -0.00085746      -0.00209529 </v>
  </varray>
  <varray name="stress" >
   <v>      -0.46793797       0.10677562      -0.15994417 </v>
   <v>       0.10677560      -0.59001038      -0.05299436 </v>
   <v>      -0.15994416      -0.05299437      -0.49590449 </v>
  </varray>
  <energy>
   <i name="e_fr_energy">   -355.81985912 </i>
   <i name="e_wo_entrp">   -355.82688016 </i>
   <i name="e_0_energy">      0.02106311 </i>
  </energy>
  <time name="totalsc">    2.68    2.92</time>
 </calculation>
 <calculation>
  <scstep>
   <time name="dav">    0.53    0.61</time>
   <time name="total">    0.60    0.83</time>
   <energy>
    <i name="alphaZ">   1474.72308432 </i>
    <i name="ewald"> -19346.44417990 </i>
    <i name="hartreedc">  -6137.26032529 </i>
    <i name="XCdc">   -268.44703325 </i>
    <i name="pawpsdc">  34340.81184774 </i>
    <i name="pawaedc"> -32734.82491554 </i>
    <i name="eentropy">      0.02106312 </i>
    <i name="bandstr">  -2588.59052590 </i>
    <i name="atom">  24904.19112557 </i>
    <i name="e_fr_energy">   -355.81985913 </i>
    <i name="e_wo_entrp">   -355.84092225 </i>
    <i name="e_0_energy">   -355.82688017 </i>
   </energy>
  </scstep>
  <scstep>
   <time name="diag">    0.08    0.08</time>
   <time name="diis">    0.21    0.21</time>
   <time name="orth">    0.01    0.01</time>
   <time name="total">    0.33    0.36</time>
   <energy>
    <i name="alphaZ">   1474.72308432 </i>
    <i name="ewald"> -19346.44417990 </i>
    <i name="hartreedc">  -6137.26056594 </i>
    <i name="XCdc">   -268.44702494 </i>
    <i name="pawpsdc">  34340.81877928 </i>
    <i name="pawaedc"> -32734.83167434 </i>
    <i name="eentropy">      0.02106311 </i>
    <i name="bandstr">  -2588.59046630 </i>
    <i name="atom">  24904.19112557 </i>
    <i name="e_fr_energy">   -355.81985913 </i>
    <i name="e_wo_entrp">   -355.84092225 </i>
    <i name="e_0_energy">   -355.82688017 </i>
   </energy>
  </scstep>
  <structure>
   <crystal>
    <varray name="basis" >
     <v>       7.02294122       0.02414134      -0.03398427 </v>
     <v>       0.03519441      10.32727040      -0.02165656 </v>
     <v>      -0.05071202      -0.02200067      10.30803666 </v>
    </varray>
    <i name="volume">    747.58950538 </i>
    <varray name="rec_basis" >
     <v>       0.14239553      -0.00048380       0.00069950 </v>
     <v>      -0.00033187       0.09683257       0.00020504 </v>
     <v>       0.00046876       0.00020184       0.09701442 </v>
    </varray>
   </crystal>
   <varray name="positions" >
    <v>      -0.00001379       0.34808432       0.31569782 </v>
    <v>       0.49145548       0.67025338       0.32856153 </v>
    <v>       0.71116260       0.15347610       0.84617858 </v>
    <v>       0.00420355       0.99320113      -0.00483034 </v>
    <v>       0.22473818       0.16866452       0.50366396 </v>
    <v>       0.27348526       0.17263268       0.83561605 </v>
    <v>       0.99687592       0.66826027       0.00254072 </v>
    <v>       0.51015444       0.33651307       0.34031480 </v>
    <v>       0.78618549       0.51554206       0.50538753 </v>
    <v>       0.49639397       0.67238703       0.66642010 </v>
    <v>       0.76359366       0.83294699       0.50303198 </v>
    <v>       0.25489403       0.49617453       0.83404744 </v>
    <v>       0.26615271       0.17189350       0.15498562 </v>
    <v>       0.96583958       0.31975272       0.68256411 </v>
    <v>       0.74923721       0.15253773       0.17365936 </v>
    <v>       0.00020729       0.00096224       0.67617948 </v>
    <v>       0.22546116       0.50166426       0.51531179 </v>
    <v>       0.01345320       0.66689485       0.31446371 </v>
    <v>       0.49010172       0.96563296       0.00379760 </v>
    <v>       0.49224732       0.99672440       0.34331859 </v>
    <v>       0.52847997       0.33223916       0.64971100 </v>
    <v>       0.98136755       0.33960729       0.00364478 </v>
    <v>       0.74355084       0.83286567       0.82398354 </v>
    <v>       0.75908278       0.84242237       0.17512984 </v>
    <v>       0.00782938       0.98679481       0.33218007 </v>
    <v>       0.28200237       0.49733945       0.14634243 </v>
    <v>       0.24146400       0.83723682       0.17585129 </v>
    <v>       0.23513983       0.83452763       0.50213784 </v>
    <v>       0.48587877       0.98717800       0.66132402 </v>
    <v>       0.72567406       0.50988761       0.15572357 </v>
    <v>       0.77719846       0.15574149       0.48471683 </v>
    <v>       0.50378990       0.67277423       0.99836054 </v>
    <v>       0.00280139       0.67977094       0.68383643 </v>
    <v>       0.24877496       0.82482536       0.82342692 </v>
    <v>       0.52224700       0.35319665       0.00253316 </v>
    <v>       0.73889277       0.50939879       0.84019929 </v>
   </varray>
  </structure>
  <varray name="forces" >
   <v>       0.00541012      -0.00125944      -0.00989816 </v>
   <v>       0.00151930       0.00840789       0.00082726 </v>
   <v>      -0.00489785       0.00472215       0.00242960 </v>
   <v>       0.00040475       0.00143594      -0.00366308 </v>
   <v>       0.00706014      -0.00625435       0.00364255 </v>
   <v>      -0.00245397      -0.00075748       0.00001245 </v>
   <v>       0.00698188       0.00527002      -0.00054760 </v>
   <v>      -0.00137676      -0.00619745       0.00201600 </v>
   <v>      -0.00014074      -0.00291381      -0.00161303 </v>
   <v>      -0.00134828       0.00175604       0.00082447 </v>
   <v>       0.00282599      -0.00933399       0.00403378 </v>
   <v>      -0.00504179      -0.00350021       0.00403473 </v>
   <v>       0.00012646      -0.00426912      -0.00785877 </v>
   <v>      -0.00194599       0.00434314       0.00143347 </v>
   <v>      -0.00301419      -0.00268495       0.00382660 </v>
   <v>      -0.00609710      -0.00427337       0.00080715 </v>
   <v>      -0.00201025       0.00312574       0.00465118 </v>
   <v>       0.00297586       0.00172050      -0.00215067 </v>
   <v>       0.00150470      -0.00364545       0.00093579 </v>
   <v>       0.00036195       0.00744513       0.00085967 </v>
   <v>       0.00007175      -0.00303138      -0.00382627 </v>
   <v>       0.00425203      -0.00363449       0.00964858 </v>
   <v>      -0.00468951      -0.00806564      -0.00692066 </v>
   <v>       0.00449167      -0.00543883       0.00556746 </v>
   <v>      -0.00019962       0.00613949      -0.01060563 </v>
   <v>      -0.00218540       0.00088769      -0.00369971 </v>
   <v>      -0.00053090       0.01302712       0.00223902 </v>
   <v>      -0.00175336       0.00695064       0.00585782 </v>
   <v>       0.00169512      -0.00170809      -0.00038582 </v>
   <v>      -0.00105272      -0.00588403       0.01080221 </v>
   <v>      -0.00146169       0.00454566       0.00187355 </v>
   <v>      -0.00846315      -0.00075879      -0.00118188 </v>
   <v>       0.00108276       0.00419028      -0.00279065 </v>
   <v>       0.00093362       0.00072024      -0.00604570 </v>
   <v>       0.00476566      -0.00021865      -0.00302933 </v>
   <v>       0.00219950      -0.00085817      -0.00210638 </v>
  </varray>
  <varray name="stress" >
   <v>      -0.46797230       0.10671995      -0.15988420 </v>
   <v>       0.10671997      -0.59000387      -0.05298372 </v>
   <v>      -0.15988420      -0.05298371      -0.49592367 </v>
  </varray>
  <energy>
   <i name="e_fr_energy">   -355.81985913 </i>
   <i name="e_wo_entrp">   -355.82688017 </i>
   <i name="e_0_energy">      0.02106311 </i>
  </energy>
  <time name="totalsc">    2.51    2.87</time>
 </calculation>
 <calculation>
  <scstep>
   <time name="dav">    1.03    1.13</time>
   <time name="total">    1.16    1.38</time>
   <energy>
    <i name="alphaZ">   1475.91711506 </i>
    <i name="ewald"> -19351.67491611 </i>
    <i name="hartreedc">  -6138.89912646 </i>
    <i name="XCdc">   -268.21389146 </i>
    <i name="pawpsdc">  34340.82161882 </i>
    <i name="pawaedc"> -32734.83444284 </i>
    <i name="eentropy">      0.02102516 </i>
    <i name="bandstr">  -2583.14942608 </i>
    <i name="atom">  24904.19112557 </i>
    <i name="e_fr_energy">   -355.82091834 </i>
    <i name="e_wo_entrp">   -355.84194350 </i>
    <i name="e_0_energy">   -355.82792672 </i>
   </energy>
  </scstep>
  <scstep>
   <time name="diag">    0.09    0.10</time>
   <time name="diis">    0.79    0.81</time>
   <time name="orth">    0.01    0.01</time>
   <time name="total">    0.97    1.02</time>
   <energy>
    <i name="e_fr_energy">   -355.82004888 </i>
    <i name="e_wo_entrp">   -355.84100047 </i>
    <i name="e_0_energy">   -355.82703275 </i>
   </energy>
  </scstep>
  <scstep>
   <time name="diag">    0.08    0.08</time>
   <time name="diis">    0.75    0.77</time>
   <time name="orth">    0.01    0.01</time>
   <time name="total">    0.91    0.96</time>
   <energy>
    <i name="e_fr_energy">   -355.81991243 </i>
    <i name="e_wo_entrp">   -355.84091315 </i>
    <i name="e_0_energy">   -355.82691267 </i>
   </energy>
  </scstep>
  <scstep>
   <time name="diag">    0.08    0.08</time>
   <time name="diis">    0.74    0.76</time>
   <time name="orth">    0.01    0.01</time>
   <time name="total">    0.93    0.96</time>
   <energy>
    <i name="e_fr_energy">   -355.81967621 </i>
    <i name="e_wo_entrp">   -355.84062495 </i>
    <i name="e_0_energy">   -355.82665912 </i>
   </energy>
  </scstep>
  <scstep>
   <time name="diag">    0.08    0.08</time>
   <time name="diis">    0.69    0.71</time>
   <time name="orth">    0.01    0.01</time>
   <time name="total">    0.85    0.89</time>
   <energy>
    <i name="e_fr_energy">   -355.81967089 </i>
    <i name="e_wo_entrp">   -355.84063120 </i>
    <i name="e_0_energy">   -355.82665766 </i>
   </energy>
  </scstep>
  <scstep>
   <time name="diag">    0.07    0.08</time>
   <time name="diis">    0.39    0.40</time>
   <time name="orth">    0.01    0.01</time>
   <time name="total">    0.55    0.58</time>
   <energy>
    <i name="e_fr_energy">   -355.81968360 </i>
    <i name="e_wo_entrp">   -355.84064048 </i>
    <i name="e_0_energy">   -355.82666922 </i>
   </energy>
  </scstep>
  <scstep>
   <time name="diag">    0.08    0.08</time>
   <time name="diis">    0.33    0.34</time>
   <time name="orth">    0.01    0.01</time>
   <time name="total">    0.49    0.52</time>
   <energy>
    <i name="e_fr_energy">   -355.81969480 </i>
    <i name="e_wo_entrp">   -355.84064426 </i>
    <i name="e_0_energy">   -355.82667796 </i>
   </energy>
  </scstep>
  <scstep>
   <time name="diag">    0.08    0.08</time>
   <time name="diis">    0.32    0.33</time>
   <time name="orth">    0.01    0.01</time>
   <time name="total">    0.44    0.48</time>
   <energy>
    <i name="alphaZ">   1475.91711506 </i>
    <i name="ewald"> -19351.67491611 </i>
    <i name="hartreedc">  -6135.66646604 </i>
    <i name="XCdc">   -268.35635607 </i>
    <i name="pawpsdc">  34379.04816815 </i>
    <i name="pawaedc"> -32773.09477335 </i>
    <i name="eentropy">      0.02095749 </i>
    <i name="bandstr">  -2586.20455478 </i>
    <i name="atom">  24904.19112557 </i>
    <i name="e_fr_energy">   -355.81970008 </i>
    <i name="e_wo_entrp">   -355.84065757 </i>
    <i name="e_0_energy">   -355.82668591 </i>
   </energy>
  </scstep>
  <structure>
   <crystal>
    <varray name="basis" >
     <v>       7.02091979       0.02391670      -0.03330979 </v>
     <v>       0.03486005      10.32482385      -0.02170477 </v>
     <v>      -0.04972081      -0.02205148      10.30509272 </v>
    </varray>
    <i name="volume">    746.98469848 </i>
    <varray name="rec_basis" >
     <v>       0.14243637      -0.00047947       0.00068621 </v>
     <v>      -0.00032896       0.09685550       0.00020567 </v>
     <v>       0.00045971       0.00020245       0.09704205 </v>
    </varray>
   </crystal>
   <varray name="positions" >
    <v>      -0.00013859       0.34809360       0.31574568 </v>
    <v>       0.49146468       0.67024075       0.32855813 </v>
    <v>       0.71119572       0.15346318       0.84613433 </v>
    <v>       0.00420996       0.99320923      -0.00482667 </v>
    <v>       0.22471510       0.16868096       0.50362930 </v>
    <v>       0.27352041       0.17264365       0.83559833 </v>
    <v>       0.99683274       0.66823628       0.00255492 </v>
    <v>       0.51020794       0.33654473       0.34031170 </v>
    <v>       0.78622534       0.51557767       0.50544537 </v>
    <v>       0.49637359       0.67240354       0.66645111 </v>
    <v>       0.76360538       0.83299802       0.50302902 </v>
    <v>       0.25491616       0.49617995       0.83404068 </v>
    <v>       0.26613577       0.17194036       0.15504307 </v>
    <v>       0.96586617       0.31972065       0.68255970 </v>
    <v>       0.74922608       0.15251325       0.17364512 </v>
    <v>       0.00026941       0.00097918       0.67617948 </v>
    <v>       0.22547051       0.50165969       0.51527816 </v>
    <v>       0.01341991       0.66689815       0.31446387 </v>
    <v>       0.49008132       0.96562945       0.00379015 </v>
    <v>       0.49224204       0.99665928       0.34329684 </v>
    <v>       0.52850718       0.33227051       0.64970750 </v>
    <v>       0.98130864       0.33960916       0.00360361 </v>
    <v>       0.74358004       0.83290990       0.82401133 </v>
    <v>       0.75906851       0.84245074       0.17510108 </v>
    <v>       0.00782684       0.98675201       0.33220125 </v>
    <v>       0.28201238       0.49731508       0.14636873 </v>
    <v>       0.24146442       0.83715295       0.17584040 </v>
    <v>       0.23515563       0.83450590       0.50211072 </v>
    <v>       0.48587863       0.98716449       0.66132579 </v>
    <v>       0.72562951       0.50991549       0.15564392 </v>
    <v>       0.77722075       0.15569942       0.48471419 </v>
    <v>       0.50379751       0.67277797       0.99837088 </v>
    <v>       0.00284448       0.67977769       0.68386453 </v>
    <v>       0.24877909       0.82482651       0.82345386 </v>
    <v>       0.52220912       0.35321193       0.00254153 </v>
    <v>       0.73888062       0.50939367       0.84022442 </v>
   </varray>
  </structure>
  <varray name="forces" >
   <v>       0.00628708      -0.00261939      -0.01248593 </v>
   <v>       0.00360472       0.00827622       0.00317700 </v>
   <v>      -0.00585898       0.00482124       0.00440097 </v>
   <v>       0.00221502       0.00428751      -0.00397397 </v>
   <v>       0.01183715      -0.00570098       0.00210458 </v>
   <v>      -0.00354429      -0.00066843       0.00238120 </v>
   <v>       0.00992388       0.00645633      -0.00223448 </v>
   <v>      -0.00121652      -0.00780593       0.00285334 </v>
   <v>      -0.00251132      -0.00337708      -0.00173837 </v>
   <v>       0.00034409       0.00051829      -0.00158403 </v>
   <v>       0.00103876      -0.01341740       0.00596783 </v>
   <v>      -0.00686426      -0.00502698       0.00348762 </v>
   <v>      -0.00199388      -0.00512586      -0.00914456 </v>
   <v>       0.00057280       0.00793622       0.00089345 </v>
   <v>      -0.00271671      -0.00181035       0.00290010 </v>
   <v>      -0.00581876      -0.00444545      -0.00004495 </v>
   <v>       0.00084520       0.00340594       0.00499096 </v>
   <v>       0.00153730      -0.00011299      -0.00034016 </v>
   <v>       0.00108791       0.00184395       0.00170576 </v>
   <v>      -0.00113924       0.01175908       0.00077841 </v>
   <v>      -0.00298039      -0.00462456      -0.00424992 </v>
   <v>       0.00925785      -0.00731132       0.01132659 </v>
   <v>      -0.00446095      -0.00957048      -0.00737299 </v>
   <v>       0.00323684      -0.00902999       0.00537345 </v>
   <v>       0.00167346       0.01170625      -0.01499925 </v>
   <v>      -0.01029778       0.00231824      -0.00012111 </v>
   <v>       0.00148539       0.01452170       0.00123246 </v>
   <v>      -0.00133447       0.00403838       0.00799941 </v>
   <v>       0.00211444       0.00243622      -0.00139771 </v>
   <v>       0.00399946      -0.00705840       0.01933133 </v>
   <v>      -0.00564925       0.00645095       0.00498906 </v>
   <v>      -0.01194396       0.00077309      -0.00273988 </v>
   <v>      -0.00013864       0.00307195      -0.00481820 </v>
   <v>      -0.00034556       0.00105413      -0.00415464 </v>
   <v>       0.00402728      -0.00716303      -0.00750128 </v>
   <v>       0.00372630      -0.00080708      -0.00699206 </v>
  </varray>
  <varray name="stress" >
   <v>       0.48399078       0.14475522      -0.23708300 </v>
   <v>       0.14475520       0.33516739      -0.05374228 </v>
   <v>      -0.23708300      -0.05374227       0.45933282 </v>
  </varray>
  <energy>
   <i name="e_fr_energy">   -355.81970008 </i>
   <i name="e_wo_entrp">   -355.82668591 </i>
   <i name="e_0_energy">      0.02095749 </i>
  </energy>
