<?xml version="1.0" encoding="ISO-8859-1"?>
<modeling>
 <generator>
  <i name="program" type="string">vasp </i>
  <i name="version" type="string">5.4.1  </i>
  <i name="subversion" type="string">05Feb16 (build Jan 29 2020 16:04:39) complex                          parallel </i>
  <i name="platform" type="string">IFC91_ompi </i>
  <i name="date" type="string">2020 06 15 </i>
  <i name="time" type="string">05:14:57 </i>
 </generator>
 <incar>
  <i type="string" name="SYSTEM"> automatically generated by mexm</i>
  <i type="int" name="ISTART">     0</i>
  <i type="string" name="PREC">accurate               ! avoid wrap aro</i>
  <i type="string" name="ALGO"> Fast                   ! blocked Davids</i>
  <i type="int" name="ISPIN">     1</i>
  <i type="int" name="ICHARG">     2</i>
  <i type="int" name="NELM">    70</i>
  <i type="int" name="IBRION">     2</i>
  <i name="EDIFF">      0.00001000</i>
  <i name="EDIFFG">     -0.01000000</i>
  <i type="int" name="NSW">   300</i>
  <i type="int" name="ISIF">     3</i>
  <i type="int" name="ISYM">     1</i>
  <i name="ENCUT">    300.00000000</i>
  <i name="POTIM">      0.15000000</i>
  <i type="string" name="LREAL"> Auto                  ! unpublished met</i>
  <i type="int" name="ISMEAR">     1</i>
  <i name="SIGMA">      0.15000000</i>
  <i type="logical" name="LWAVE"> F  </i>
  <i type="logical" name="LCHARG"> F  </i>
  <i type="logical" name="LVTOT"> F  </i>
  <v type="int" name="KPOINT_BSE">    -1     0     0     0</v>
  <i type="int" name="NELM">    70</i>
 </incar>
 <kpoints>
  <generation param="Gamma">
   <v type="int" name="divisions">       3        3        3 </v>
   <v name="usershift">      0.00000000       0.00000000       0.00000000 </v>
   <v name="genvec1">      0.33333333      -0.00000000      -0.00000000 </v>
   <v name="genvec2">      0.00000000       0.33333333       0.00000000 </v>
   <v name="genvec3">     -0.00000000      -0.00000000       0.33333333 </v>
   <v name="shift">      0.00000000       0.00000000       0.00000000 </v>
  </generation>
  <varray name="kpointlist" >
   <v>       0.00000000       0.00000000       0.00000000 </v>
   <v>       0.33333333      -0.00000000      -0.00000000 </v>
   <v>      -0.00000000       0.33333333       0.00000000 </v>
   <v>       0.33333333       0.33333333       0.00000000 </v>
   <v>      -0.33333333       0.33333333       0.00000000 </v>
   <v>       0.00000000      -0.00000000       0.33333333 </v>
   <v>       0.33333333      -0.00000000       0.33333333 </v>
   <v>      -0.33333333      -0.00000000       0.33333333 </v>
   <v>       0.00000000       0.33333333       0.33333333 </v>
   <v>       0.33333333       0.33333333       0.33333333 </v>
   <v>      -0.33333333       0.33333333       0.33333333 </v>
   <v>      -0.00000000      -0.33333333       0.33333333 </v>
   <v>       0.33333333      -0.33333333       0.33333333 </v>
   <v>      -0.33333333      -0.33333333       0.33333333 </v>
  </varray>
  <varray name="weights" >
   <v>       0.03703704 </v>
   <v>       0.07407407 </v>
   <v>       0.07407407 </v>
   <v>       0.07407407 </v>
   <v>       0.07407407 </v>
   <v>       0.07407407 </v>
   <v>       0.07407407 </v>
   <v>       0.07407407 </v>
   <v>       0.07407407 </v>
   <v>       0.07407407 </v>
   <v>       0.07407407 </v>
   <v>       0.07407407 </v>
   <v>       0.07407407 </v>
   <v>       0.07407407 </v>
  </varray>
 </kpoints>
 <parameters>
  <separator name="general" >
   <i type="string" name="SYSTEM">automatically generated by mexm</i>
   <i type="logical" name="LCOMPAT"> F  </i>
  </separator>
  <separator name="electronic" >
   <i type="string" name="PREC">accura</i>
   <i name="ENMAX">    300.00000000</i>
   <i name="ENAUG">    461.25700000</i>
   <i name="EDIFF">      0.00001000</i>
   <i type="int" name="IALGO">    68</i>
   <i type="int" name="IWAVPR">    11</i>
   <i type="int" name="NBANDS">   204</i>
   <i name="NELECT">    335.00000000</i>
   <i type="int" name="TURBO">     0</i>
   <i type="int" name="IRESTART">     0</i>
   <i type="int" name="NREBOOT">     0</i>
   <i type="int" name="NMIN">     0</i>
   <i name="EREF">      0.00000000</i>
   <separator name="electronic smearing" >
    <i type="int" name="ISMEAR">     1</i>
    <i name="SIGMA">      0.15000000</i>
    <i name="KSPACING">      0.50000000</i>
    <i type="logical" name="KGAMMA"> T  </i>
   </separator>
   <separator name="electronic projectors" >
    <i type="logical" name="LREAL"> T  </i>
    <v name="ROPT">     -0.00025000     -0.00025000     -0.00025000     -0.00025000</v>
    <i type="int" name="LMAXPAW">  -100</i>
    <i type="int" name="LMAXMIX">     2</i>
    <i type="logical" name="NLSPLINE"> F  </i>
   </separator>
   <separator name="electronic startup" >
    <i type="int" name="ISTART">     0</i>
    <i type="int" name="ICHARG">     2</i>
    <i type="int" name="INIWAV">     1</i>
   </separator>
   <separator name="electronic spin" >
    <i type="int" name="ISPIN">     1</i>
    <i type="logical" name="LNONCOLLINEAR"> F  </i>
    <v name="MAGMOM">      1.00000000      1.00000000      1.00000000      1.00000000      1.00000000      1.00000000      1.00000000      1.00000000      1.00000000      1.00000000      1.00000000      1.00000000      1.00000000      1.00000000      1.00000000      1.00000000      1.00000000      1.00000000      1.00000000      1.00000000
      1.00000000      1.00000000      1.00000000      1.00000000      1.00000000      1.00000000      1.00000000      1.00000000      1.00000000      1.00000000      1.00000000      1.00000000      1.00000000      1.00000000      1.00000000      1.00000000</v>
    <i name="NUPDOWN">     -1.00000000</i>
    <i type="logical" name="LSORBIT"> F  </i>
    <v name="SAXIS">      0.00000000      0.00000000      1.00000000</v>
    <i type="logical" name="LSPIRAL"> F  </i>
    <v name="QSPIRAL">      0.00000000      0.00000000      0.00000000</v>
    <i type="logical" name="LZEROZ"> F  </i>
   </separator>
   <separator name="electronic exchange-correlation" >
    <i type="logical" name="LASPH"> F  </i>
    <i type="logical" name="LMETAGGA"> F  </i>
   </separator>
   <separator name="electronic convergence" >
    <i type="int" name="NELM">    70</i>
    <i type="int" name="NELMDL">    -5</i>
    <i type="int" name="NELMIN">     2</i>
    <i name="ENINI">    300.00000000</i>
    <separator name="electronic convergence detail" >
     <i type="logical" name="LDIAG"> T  </i>
     <i type="logical" name="LSUBROT"> F  </i>
     <i name="WEIMIN">      0.00100000</i>
     <i name="EBREAK">      0.00000001</i>
     <i name="DEPER">      0.30000000</i>
     <i type="int" name="NRMM">     4</i>
     <i name="TIME">      0.40000000</i>
    </separator>
   </separator>
   <separator name="electronic mixer" >
    <i name="AMIX">      0.40000000</i>
    <i name="BMIX">      1.00000000</i>
    <i name="AMIN">      0.10000000</i>
    <i name="AMIX_MAG">      1.60000000</i>
    <i name="BMIX_MAG">      1.00000000</i>
    <separator name="electronic mixer details" >
     <i type="int" name="IMIX">     4</i>
     <i type="logical" name="MIXFIRST"> F  </i>
     <i type="int" name="MAXMIX">   -45</i>
     <i name="WC">    100.00000000</i>
     <i type="int" name="INIMIX">     1</i>
     <i type="int" name="MIXPRE">     1</i>
     <i type="int" name="MREMOVE">     5</i>
    </separator>
   </separator>
   <separator name="electronic dipolcorrection" >
    <i type="logical" name="LDIPOL"> F  </i>
    <i type="logical" name="LMONO"> F  </i>
    <i type="int" name="IDIPOL">     0</i>
    <i name="EPSILON">      1.00000000</i>
    <v name="DIPOL">   -100.00000000   -100.00000000   -100.00000000</v>
    <i name="EFIELD">      0.00000000</i>
   </separator>
  </separator>
  <separator name="grids" >
   <i type="int" name="NGX">    40</i>
   <i type="int" name="NGY">    60</i>
   <i type="int" name="NGZ">    60</i>
   <i type="int" name="NGXF">    80</i>
   <i type="int" name="NGYF">   120</i>
   <i type="int" name="NGZF">   120</i>
   <i type="logical" name="ADDGRID"> F  </i>
  </separator>
  <separator name="ionic" >
   <i type="int" name="NSW">   300</i>
   <i type="int" name="IBRION">     2</i>
   <i type="int" name="ISIF">     3</i>
   <i name="PSTRESS">      0.00000000</i>
   <i name="EDIFFG">     -0.01000000</i>
   <i type="int" name="NFREE">     1</i>
   <i name="POTIM">      0.15000000</i>
   <i name="SMASS">     -3.00000000</i>
   <i name="SCALEE">      1.00000000</i>
  </separator>
  <separator name="ionic md" >
   <i name="TEBEG">      0.00010000</i>
   <i name="TEEND">      0.00010000</i>
   <i type="int" name="NBLOCK">     1</i>
   <i type="int" name="KBLOCK">   300</i>
   <i type="int" name="NPACO">   256</i>
   <i name="APACO">     16.00000000</i>
  </separator>
  <separator name="symmetry" >
   <i type="int" name="ISYM">     1</i>
   <i name="SYMPREC">      0.00001000</i>
  </separator>
  <separator name="dos" >
   <i type="logical" name="LORBIT"> F  </i>
   <v name="RWIGS">     -1.00000000     -1.00000000     -1.00000000     -1.00000000</v>
   <i type="int" name="NEDOS">   301</i>
   <i name="EMIN">     10.00000000</i>
   <i name="EMAX">    -10.00000000</i>
   <i name="EFERMI">      0.00000000</i>
  </separator>
  <separator name="writing" >
   <i type="int" name="NWRITE">     2</i>
   <i type="logical" name="LWAVE"> F  </i>
   <i type="logical" name="LCHARG"> F  </i>
   <i type="logical" name="LPARD"> F  </i>
   <i type="logical" name="LVTOT"> F  </i>
   <i type="logical" name="LVHAR"> F  </i>
   <i type="logical" name="LELF"> F  </i>
   <i type="logical" name="LOPTICS"> F  </i>
   <v name="STM">      0.00000000      0.00000000      0.00000000      0.00000000      0.00000000      0.00000000      0.00000000</v>
  </separator>
  <separator name="performance" >
   <i type="int" name="NPAR">     4</i>
   <i type="int" name="NSIM">     4</i>
   <i type="int" name="NBLK">    -1</i>
   <i type="logical" name="LPLANE"> T  </i>
   <i type="logical" name="LSCALAPACK"> T  </i>
   <i type="logical" name="LSCAAWARE"> F  </i>
   <i type="logical" name="LSCALU"> F  </i>
   <i type="logical" name="LASYNC"> F  </i>
   <i type="logical" name="LORBITALREAL"> F  </i>
  </separator>
  <separator name="miscellaneous" >
   <i type="int" name="IDIOT">     3</i>
   <i type="logical" name="LMUSIC"> F  </i>
   <v name="POMASS">    180.94800000     92.91000000     91.22400000    178.49000000</v>
   <v name="DARWINR">      0.00000000      0.00000000      0.00000000      0.00000000</v>
   <v name="DARWINV">      1.00000000      1.00000000      1.00000000      1.00000000</v>
   <i type="logical" name="LCORR"> T  </i>
  </separator>
  <i type="logical" name="GGA_COMPAT"> T  </i>
  <i type="logical" name="LBERRY"> F  </i>
  <i type="int" name="ICORELEVEL">     0</i>
  <i type="logical" name="LDAU"> F  </i>
  <i type="int" name="I_CONSTRAINED_M">     0</i>
  <separator name="electronic exchange-correlation" >
   <i type="string" name="GGA">--</i>
   <i type="int" name="VOSKOWN">     0</i>
   <i type="logical" name="LHFCALC"> F  </i>
   <i type="string" name="PRECFOCK"></i>
   <i type="logical" name="LSYMGRAD"> F  </i>
   <i type="logical" name="LHFONE"> F  </i>
   <i type="logical" name="LRHFCALC"> F  </i>
   <i type="logical" name="LTHOMAS"> F  </i>
   <i type="logical" name="LMODELHF"> F  </i>
   <i name="ENCUT4O">     -1.00000000</i>
   <i type="int" name="EXXOEP">     0</i>
   <i type="int" name="FOURORBIT">     0</i>
   <i name="AEXX">      0.00000000</i>
   <i name="HFALPHA">      0.00000000</i>
   <i name="MCALPHA">      0.00000000</i>
   <i name="ALDAX">      1.00000000</i>
   <i name="AGGAX">      1.00000000</i>
   <i name="ALDAC">      1.00000000</i>
   <i name="AGGAC">      1.00000000</i>
   <i type="int" name="NKREDX">     1</i>
   <i type="int" name="NKREDY">     1</i>
   <i type="int" name="NKREDZ">     1</i>
   <i type="logical" name="SHIFTRED"> F  </i>
   <i type="logical" name="ODDONLY"> F  </i>
   <i type="logical" name="EVENONLY"> F  </i>
   <i type="int" name="LMAXFOCK">     0</i>
   <i type="int" name="NMAXFOCKAE">     0</i>
   <i type="logical" name="LFOCKAEDFT"> F  </i>
   <i name="HFSCREEN">      0.00000000</i>
   <i name="HFSCREENC">      0.00000000</i>
   <i type="int" name="NBANDSGWLOW">     0</i>
  </separator>
  <separator name="vdW DFT" >
   <i type="logical" name="LUSE_VDW"> F  </i>
   <i name="Zab_VDW">     -0.84910000</i>
   <i name="PARAM1">      0.12340000</i>
   <i name="PARAM2">      1.00000000</i>
   <i name="PARAM3">      0.00000000</i>
  </separator>
  <separator name="model GW" >
   <i type="int" name="MODEL_GW">     0</i>
   <i name="MODEL_EPS0">     12.44192331</i>
   <i name="MODEL_ALPHA">      1.00000000</i>
  </separator>
  <separator name="linear response parameters" >
   <i type="logical" name="LEPSILON"> F  </i>
   <i type="logical" name="LRPA"> F  </i>
   <i type="logical" name="LNABLA"> F  </i>
   <i type="logical" name="LVEL"> F  </i>
   <i type="int" name="KINTER">     0</i>
   <i name="CSHIFT">      0.10000000</i>
   <i name="OMEGAMAX">     -1.00000000</i>
   <i name="DEG_THRESHOLD">      0.00200000</i>
  </separator>
  <separator name="orbital magnetization" >
   <i type="logical" name="NUCIND"> F  </i>
   <v name="MAGPOS">      0.00000000      0.00000000      0.00000000</v>
   <i type="logical" name="LNICSALL"> T  </i>
   <i type="logical" name="ORBITALMAG"> F  </i>
   <i type="logical" name="LMAGBLOCH"> F  </i>
   <i type="logical" name="LCHIMAG"> F  </i>
   <i type="logical" name="LGAUGE"> T  </i>
   <i type="int" name="MAGATOM">     0</i>
   <v name="MAGDIPOL">      0.00000000      0.00000000      0.00000000</v>
   <v name="AVECCONST">      0.00000000      0.00000000      0.00000000</v>
  </separator>
  <separator name="response functions" >
   <i type="logical" name="LADDER"> F  </i>
   <i type="logical" name="LFXC"> F  </i>
   <i type="logical" name="LHARTREE"> T  </i>
   <i type="int" name="IBSE">     0</i>
   <v type="int" name="KPOINT">    -1     0     0     0</v>
   <i type="logical" name="LTCTE"> F  </i>
   <i type="logical" name="LTETE"> F  </i>
   <i type="logical" name="LTRIPLET"> F  </i>
   <i type="logical" name="LFXCEPS"> F  </i>
   <i type="logical" name="LFXHEG"> F  </i>
   <i type="int" name="NATURALO">     0</i>
   <i type="logical" name="L2ORDER"> F  </i>
   <i type="logical" name="LUSEW"> F  </i>
   <i name="ENCUTGW">     -2.00000000</i>
   <i name="ENCUTGWSOFT">     -2.00000000</i>
   <i name="ENCUTLF">     -1.00000000</i>
   <i type="int" name="LMAXMP2">    -1</i>
   <i name="SCISSOR">      0.00000000</i>
   <i type="int" name="NOMEGA">     0</i>
   <i type="int" name="NOMEGAR">     0</i>
   <i type="int" name="NBANDSGW">    -1</i>
   <i type="int" name="NBANDSO">    -1</i>
   <i type="int" name="NBANDSV">    -1</i>
   <i type="int" name="NELM">    70</i>
   <i type="int" name="NELMHF">     1</i>
   <i type="int" name="DIM">     3</i>
   <i type="int" name="ANTIRES">     0</i>
   <i name="OMEGAMAX">    -30.00000000</i>
   <i name="OMEGAMIN">    -30.00000000</i>
   <i name="OMEGATL">   -200.00000000</i>
   <i type="int" name="OMEGAGRID">     0</i>
   <i name="CSHIFT">     -0.10000000</i>
   <i type="logical" name="SELFENERGY"> F  </i>
   <i type="logical" name="LSPECTRAL"> F  </i>
   <i type="logical" name="LSPECTRALGW"> F  </i>
   <i type="logical" name="LSINGLES"> F  </i>
   <i type="logical" name="LFERMIGW"> F  </i>
   <i type="logical" name="ODDONLYGW"> F  </i>
   <i type="logical" name="EVENONLYGW"> F  </i>
   <i type="int" name="NKREDLFX">     1</i>
   <i type="int" name="NKREDLFY">     1</i>
   <i type="int" name="NKREDLFZ">     1</i>
   <i type="int" name="MAXMEM">  1800</i>
   <i type="int" name="TELESCOPE">     0</i>
   <i type="int" name="TAUPAR">     1</i>
   <i type="int" name="OMEGAPAR">    -1</i>
   <i name="LAMBDA">      1.00000000</i>
  </separator>
  <separator name="External order field" >
   <i name="OFIELD_KAPPA">      0.00000000</i>
   <v name="OFIELD_K">      0.00000000      0.00000000      0.00000000</v>
   <i name="OFIELD_Q6_NEAR">      0.00000000</i>
   <i name="OFIELD_Q6_FAR">      0.00000000</i>
   <i name="OFIELD_A">      0.00000000</i>
  </separator>
 </parameters>
 <atominfo>
  <atoms>      36 </atoms>
  <types>       4 </types>
  <array name="atoms" >
   <dimension dim="1">ion</dimension>
   <field type="string">element</field>
   <field type="int">atomtype</field>
   <set>
    <rc><c>Ta</c><c>   1</c></rc>
    <rc><c>Ta</c><c>   1</c></rc>
    <rc><c>Ta</c><c>   1</c></rc>
    <rc><c>Ta</c><c>   1</c></rc>
    <rc><c>Ta</c><c>   1</c></rc>
    <rc><c>Nb</c><c>   2</c></rc>
    <rc><c>Nb</c><c>   2</c></rc>
    <rc><c>Nb</c><c>   2</c></rc>
    <rc><c>Nb</c><c>   2</c></rc>
    <rc><c>Nb</c><c>   2</c></rc>
    <rc><c>Nb</c><c>   2</c></rc>
    <rc><c>Nb</c><c>   2</c></rc>
    <rc><c>Nb</c><c>   2</c></rc>
    <rc><c>Nb</c><c>   2</c></rc>
    <rc><c>Nb</c><c>   2</c></rc>
    <rc><c>Zr</c><c>   3</c></rc>
    <rc><c>Zr</c><c>   3</c></rc>
    <rc><c>Zr</c><c>   3</c></rc>
    <rc><c>Zr</c><c>   3</c></rc>
    <rc><c>Zr</c><c>   3</c></rc>
    <rc><c>Zr</c><c>   3</c></rc>
    <rc><c>Zr</c><c>   3</c></rc>
    <rc><c>Zr</c><c>   3</c></rc>
    <rc><c>Zr</c><c>   3</c></rc>
    <rc><c>Zr</c><c>   3</c></rc>
    <rc><c>Zr</c><c>   3</c></rc>
    <rc><c>Zr</c><c>   3</c></rc>
    <rc><c>Hf</c><c>   4</c></rc>
    <rc><c>Hf</c><c>   4</c></rc>
    <rc><c>Hf</c><c>   4</c></rc>
    <rc><c>Hf</c><c>   4</c></rc>
    <rc><c>Hf</c><c>   4</c></rc>
    <rc><c>Hf</c><c>   4</c></rc>
    <rc><c>Hf</c><c>   4</c></rc>
    <rc><c>Hf</c><c>   4</c></rc>
    <rc><c>Hf</c><c>   4</c></rc>
   </set>
  </array>
  <array name="atomtypes" >
   <dimension dim="1">type</dimension>
   <field type="int">atomspertype</field>
   <field type="string">element</field>
   <field>mass</field>
   <field>valence</field>
   <field type="string">pseudopotential</field>
   <set>
    <rc><c>   5</c><c>Ta</c><c>    180.94800000</c><c>      5.00000000</c><c>  PAW_PBE Ta 17Jan2003                  </c></rc>
    <rc><c>  10</c><c>Nb</c><c>     92.91000000</c><c>     13.00000000</c><c>  PAW_PBE Nb_sv 25May2007               </c></rc>
    <rc><c>  12</c><c>Zr</c><c>     91.22400000</c><c>     12.00000000</c><c>  PAW_PBE Zr_sv 04Jan2005               </c></rc>
    <rc><c>   9</c><c>Hf</c><c>    178.49000000</c><c>      4.00000000</c><c>  PAW_PBE Hf 20Jan2003                  </c></rc>
   </set>
  </array>
 </atominfo>
 <structure name="initialpos" >
  <crystal>
   <varray name="basis" >
    <v>       7.03657493       0.00554700       0.00690382 </v>
    <v>       0.00794638      10.33027621       0.02121029 </v>
    <v>       0.01006142       0.02093095      10.26994260 </v>
   </varray>
   <i name="volume">    746.51539874 </i>
   <varray name="rec_basis" >
    <v>       0.14211482      -0.00010903      -0.00013901 </v>
    <v>      -0.00007612       0.09680330      -0.00019722 </v>
    <v>      -0.00009538      -0.00019985       0.09737203 </v>
   </varray>
  </crystal>
  <varray name="positions" >
   <v>       0.73490300       0.49863800       0.17814500 </v>
   <v>       0.52503500       0.66547500       0.01163500 </v>
   <v>       0.00103600       0.99608300       0.33097400 </v>
   <v>       0.04240000       0.99710100       0.65231900 </v>
   <v>       0.50724100       0.67362200       0.33491300 </v>
   <v>       0.48996800       0.99576100       0.34325300 </v>
   <v>       0.74751400       0.81996900       0.18407600 </v>
   <v>       0.22341700       0.17350000       0.48932700 </v>
   <v>       0.49268800       0.32956100       0.34815300 </v>
   <v>       0.27507700       0.49920900       0.84605000 </v>
   <v>       0.99142400       0.33087200       0.32213700 </v>
   <v>       0.02787500       0.33999500       0.67355200 </v>
   <v>       0.98549200       0.67331000       0.32218200 </v>
   <v>       0.22660200       0.82797800       0.48235400 </v>
   <v>       0.50001900       0.34643500       0.99610100 </v>
   <v>       0.25349500       0.16957000       0.16443800 </v>
   <v>       0.97091000       0.99845400       0.02208600 </v>
   <v>       0.76848100       0.16498400       0.50585200 </v>
   <v>       0.24933400       0.16451900       0.84334000 </v>
   <v>       0.76479500       0.16771600       0.82056600 </v>
   <v>       0.25838400       0.50340600       0.17227200 </v>
   <v>       0.53621000       0.98962400       0.00545300 </v>
   <v>       0.73177300       0.18666300       0.17861100 </v>
   <v>       0.73574200       0.49512300       0.82210700 </v>
   <v>       0.47690800       0.66842700       0.65433800 </v>
   <v>       0.47714300       0.32922300       0.65507800 </v>
   <v>       0.76250900       0.83858000       0.81342500 </v>
   <v>       0.99524400       0.34895900       0.00039600 </v>
   <v>       0.98037000       0.65868400       0.00161600 </v>
   <v>       0.25223100       0.82653600       0.16500000 </v>
   <v>       0.46757100       0.99807200       0.65443400 </v>
   <v>       0.76887700       0.83238000       0.50461300 </v>
   <v>       0.22899900       0.49729000       0.47739400 </v>
   <v>       0.03292800       0.65883700       0.67624100 </v>
   <v>       0.76295500       0.49959400       0.49316100 </v>
   <v>       0.25445900       0.83585500       0.85440400 </v>
  </varray>
 </structure>
 <calculation>
  <scstep>
   <time name="dav">    1.20    1.22</time>
   <time name="total">    1.28    1.66</time>
   <energy>
    <i name="alphaZ">   1692.97020654 </i>
    <i name="ewald"> -24545.52547144 </i>
    <i name="hartreedc">  -8239.92760617 </i>
    <i name="XCdc">    355.84674114 </i>
    <i name="pawpsdc">  26445.06794014 </i>
    <i name="pawaedc"> -25129.54349280 </i>
    <i name="eentropy">      0.01058985 </i>
    <i name="bandstr">   -459.50047257 </i>
    <i name="atom">  32297.57955594 </i>
    <i name="e_fr_energy">   2416.97799062 </i>
    <i name="e_wo_entrp">   2416.96740077 </i>
    <i name="e_0_energy">   2416.97446067 </i>
   </energy>
  </scstep>
  <scstep>
   <time name="dav">    1.12    1.13</time>
   <time name="total">    1.12    1.36</time>
   <energy>
    <i name="e_fr_energy">    -15.75039258 </i>
    <i name="e_wo_entrp">    -15.73662070 </i>
    <i name="e_0_energy">    -15.74580195 </i>
   </energy>
  </scstep>
  <scstep>
   <time name="dav">    1.64    1.66</time>
   <time name="total">    1.65    1.71</time>
   <energy>
    <i name="e_fr_energy">   -323.47017568 </i>
    <i name="e_wo_entrp">   -323.45751294 </i>
    <i name="e_0_energy">   -323.46595477 </i>
   </energy>
  </scstep>
  <scstep>
   <time name="dav">    1.62    1.63</time>
   <time name="total">    1.62    1.68</time>
   <energy>
    <i name="e_fr_energy">   -360.49492269 </i>
    <i name="e_wo_entrp">   -360.48930235 </i>
    <i name="e_0_energy">   -360.49304924 </i>
   </energy>
  </scstep>
  <scstep>
   <time name="dav">    1.60    1.61</time>
   <time name="total">    1.66    1.70</time>
   <energy>
    <i name="e_fr_energy">   -364.28079384 </i>
    <i name="e_wo_entrp">   -364.27641873 </i>
    <i name="e_0_energy">   -364.27933547 </i>
   </energy>
  </scstep>
  <scstep>
   <time name="diag">    0.17    0.17</time>
   <time name="diis">    0.86    0.87</time>
   <time name="orth">    0.02    0.02</time>
   <time name="total">    1.13    1.19</time>
   <energy>
    <i name="e_fr_energy">   -354.43798317 </i>
    <i name="e_wo_entrp">   -354.43121974 </i>
    <i name="e_0_energy">   -354.43572869 </i>
   </energy>
  </scstep>
  <scstep>
   <time name="diag">    0.10    0.11</time>
   <time name="diis">    0.84    0.85</time>
   <time name="orth">    0.02    0.02</time>
   <time name="total">    1.04    1.13</time>
   <energy>
    <i name="e_fr_energy">   -358.39820575 </i>
    <i name="e_wo_entrp">   -358.39936042 </i>
    <i name="e_0_energy">   -358.39859064 </i>
   </energy>
  </scstep>
  <scstep>
   <time name="diag">    0.09    0.10</time>
   <time name="diis">    0.82    0.82</time>
   <time name="orth">    0.02    0.02</time>
   <time name="total">    1.00    1.05</time>
   <energy>
    <i name="e_fr_energy">   -350.02481630 </i>
    <i name="e_wo_entrp">   -350.02127824 </i>
    <i name="e_0_energy">   -350.02363694 </i>
   </energy>
  </scstep>
  <scstep>
   <time name="diag">    0.09    0.09</time>
   <time name="diis">    0.84    0.85</time>
   <time name="orth">    0.02    0.02</time>
   <time name="total">    1.02    1.07</time>
   <energy>
    <i name="e_fr_energy">   -349.81311213 </i>
    <i name="e_wo_entrp">   -349.81527401 </i>
    <i name="e_0_energy">   -349.81383276 </i>
   </energy>
  </scstep>
  <scstep>
   <time name="diag">    0.09    0.09</time>
   <time name="diis">    0.94    0.95</time>
   <time name="orth">    0.02    0.02</time>
   <time name="total">    1.11    1.17</time>
   <energy>
    <i name="e_fr_energy">   -349.77749132 </i>
    <i name="e_wo_entrp">   -349.77878736 </i>
    <i name="e_0_energy">   -349.77792333 </i>
   </energy>
  </scstep>
  <scstep>
   <time name="diag">    0.10    0.10</time>
   <time name="diis">    0.82    0.83</time>
   <time name="orth">    0.02    0.02</time>
   <time name="total">    1.00    1.08</time>
   <energy>
    <i name="e_fr_energy">   -349.72478226 </i>
    <i name="e_wo_entrp">   -349.72519288 </i>
    <i name="e_0_energy">   -349.72491914 </i>
   </energy>
  </scstep>
  <scstep>
   <time name="diag">    0.11    0.11</time>
   <time name="diis">    0.79    0.90</time>
   <time name="orth">    0.02    0.02</time>
   <time name="total">    0.98    1.16</time>
   <energy>
    <i name="e_fr_energy">   -349.71597601 </i>
    <i name="e_wo_entrp">   -349.71628498 </i>
    <i name="e_0_energy">   -349.71607900 </i>
   </energy>
  </scstep>
  <scstep>
   <time name="diag">    0.09    0.09</time>
   <time name="diis">    0.84    0.85</time>
   <time name="orth">    0.02    0.02</time>
   <time name="total">    1.02    1.10</time>
   <energy>
    <i name="e_fr_energy">   -349.71174108 </i>
    <i name="e_wo_entrp">   -349.71248951 </i>
    <i name="e_0_energy">   -349.71199056 </i>
   </energy>
  </scstep>
  <scstep>
   <time name="diag">    0.12    0.12</time>
   <time name="diis">    0.91    0.92</time>
   <time name="orth">    0.02    0.02</time>
   <time name="total">    1.13    1.18</time>
   <energy>
    <i name="e_fr_energy">   -349.71185151 </i>
    <i name="e_wo_entrp">   -349.71243722 </i>
    <i name="e_0_energy">   -349.71204674 </i>
   </energy>
  </scstep>
  <scstep>
   <time name="diag">    0.09    0.10</time>
   <time name="diis">    0.87    0.88</time>
   <time name="orth">    0.02    0.02</time>
   <time name="total">    1.05    1.10</time>
   <energy>
    <i name="e_fr_energy">   -349.71185979 </i>
    <i name="e_wo_entrp">   -349.71255905 </i>
    <i name="e_0_energy">   -349.71209287 </i>
   </energy>
  </scstep>
  <scstep>
   <time name="diag">    0.14    0.14</time>
   <time name="diis">    0.89    0.90</time>
   <time name="orth">    0.02    0.02</time>
   <time name="total">    1.19    1.25</time>
   <energy>
    <i name="e_fr_energy">   -349.71185955 </i>
    <i name="e_wo_entrp">   -349.71268233 </i>
    <i name="e_0_energy">   -349.71213381 </i>
   </energy>
  </scstep>
  <scstep>
   <time name="diag">    0.10    0.10</time>
   <time name="diis">    0.75    0.76</time>
   <time name="orth">    0.02    0.02</time>
   <time name="total">    0.94    0.98</time>
   <energy>
    <i name="e_fr_energy">   -349.71184941 </i>
    <i name="e_wo_entrp">   -349.71258668 </i>
    <i name="e_0_energy">   -349.71209517 </i>
   </energy>
  </scstep>
  <scstep>
   <time name="diag">    0.10    0.10</time>
   <time name="diis">    0.64    0.64</time>
   <time name="orth">    0.02    0.02</time>
   <time name="total">    0.82    0.87</time>
   <energy>
    <i name="e_fr_energy">   -349.71186678 </i>
    <i name="e_wo_entrp">   -349.71261958 </i>
    <i name="e_0_energy">   -349.71211771 </i>
   </energy>
  </scstep>
  <scstep>
   <time name="diag">    0.09    0.09</time>
   <time name="diis">    0.66    0.66</time>
   <time name="orth">    0.02    0.02</time>
   <time name="total">    0.83    0.90</time>
   <energy>
    <i name="e_fr_energy">   -349.71187478 </i>
    <i name="e_wo_entrp">   -349.71262640 </i>
    <i name="e_0_energy">   -349.71212532 </i>
   </energy>
  </scstep>
  <scstep>
   <time name="diag">    0.09    0.09</time>
   <time name="diis">    0.54    0.54</time>
   <time name="orth">    0.02    0.02</time>
   <time name="total">    0.68    0.72</time>
   <energy>
    <i name="alphaZ">   1692.97020654 </i>
    <i name="ewald"> -24545.52547144 </i>
    <i name="hartreedc">  -7938.73157071 </i>
    <i name="XCdc">    348.18502347 </i>
    <i name="pawpsdc">  38957.65671234 </i>
    <i name="pawaedc"> -37609.62516498 </i>
    <i name="eentropy">      0.00075359 </i>
    <i name="bandstr">  -3552.22192097 </i>
    <i name="atom">  32297.57955594 </i>
    <i name="e_fr_energy">   -349.71187622 </i>
    <i name="e_wo_entrp">   -349.71262981 </i>
    <i name="e_0_energy">   -349.71212742 </i>
   </energy>
  </scstep>
  <structure>
   <crystal>
    <varray name="basis" >
     <v>       7.03657493       0.00554700       0.00690382 </v>
     <v>       0.00794638      10.33027621       0.02121029 </v>
     <v>       0.01006142       0.02093095      10.26994260 </v>
    </varray>
    <i name="volume">    746.51539874 </i>
    <varray name="rec_basis" >
     <v>       0.14211482      -0.00010903      -0.00013901 </v>
     <v>      -0.00007612       0.09680330      -0.00019722 </v>
     <v>      -0.00009538      -0.00019985       0.09737203 </v>
    </varray>
   </crystal>
   <varray name="positions" >
    <v>       0.73490300       0.49863800       0.17814500 </v>
    <v>       0.52503500       0.66547500       0.01163500 </v>
    <v>       0.00103600       0.99608300       0.33097400 </v>
    <v>       0.04240000       0.99710100       0.65231900 </v>
    <v>       0.50724100       0.67362200       0.33491300 </v>
    <v>       0.48996800       0.99576100       0.34325300 </v>
    <v>       0.74751400       0.81996900       0.18407600 </v>
    <v>       0.22341700       0.17350000       0.48932700 </v>
    <v>       0.49268800       0.32956100       0.34815300 </v>
    <v>       0.27507700       0.49920900       0.84605000 </v>
    <v>       0.99142400       0.33087200       0.32213700 </v>
    <v>       0.02787500       0.33999500       0.67355200 </v>
    <v>       0.98549200       0.67331000       0.32218200 </v>
    <v>       0.22660200       0.82797800       0.48235400 </v>
    <v>       0.50001900       0.34643500       0.99610100 </v>
    <v>       0.25349500       0.16957000       0.16443800 </v>
    <v>       0.97091000       0.99845400       0.02208600 </v>
    <v>       0.76848100       0.16498400       0.50585200 </v>
    <v>       0.24933400       0.16451900       0.84334000 </v>
    <v>       0.76479500       0.16771600       0.82056600 </v>
    <v>       0.25838400       0.50340600       0.17227200 </v>
    <v>       0.53621000       0.98962400       0.00545300 </v>
    <v>       0.73177300       0.18666300       0.17861100 </v>
    <v>       0.73574200       0.49512300       0.82210700 </v>
    <v>       0.47690800       0.66842700       0.65433800 </v>
    <v>       0.47714300       0.32922300       0.65507800 </v>
    <v>       0.76250900       0.83858000       0.81342500 </v>
    <v>       0.99524400       0.34895900       0.00039600 </v>
    <v>       0.98037000       0.65868400       0.00161600 </v>
    <v>       0.25223100       0.82653600       0.16500000 </v>
    <v>       0.46757100       0.99807200       0.65443400 </v>
    <v>       0.76887700       0.83238000       0.50461300 </v>
    <v>       0.22899900       0.49729000       0.47739400 </v>
    <v>       0.03292800       0.65883700       0.67624100 </v>
    <v>       0.76295500       0.49959400       0.49316100 </v>
    <v>       0.25445900       0.83585500       0.85440400 </v>
   </varray>
  </structure>
  <varray name="forces" >
   <v>      -0.02246783       0.00173463       0.01309191 </v>
   <v>       0.00557158      -0.01209064      -0.00885974 </v>
   <v>       0.00400643      -0.02053786      -0.01549644 </v>
   <v>      -0.02261654      -0.00010043       0.04534635 </v>
   <v>       0.02860561      -0.01680096      -0.04385462 </v>
   <v>      -0.08194027      -0.16489115       0.11833622 </v>
   <v>      -0.28490945       0.38055593       0.22562072 </v>
   <v>       0.32448012      -0.33493479      -0.17928720 </v>
   <v>       0.00083266       0.00634225       0.01629781 </v>
   <v>       0.01008680       0.00454408      -0.01973216 </v>
   <v>       0.01716046       0.00125174       0.01594507 </v>
   <v>       0.00732863       0.01817795       0.03105957 </v>
   <v>      -0.00814634      -0.01854719      -0.02033786 </v>
   <v>       0.44614112       0.47388225      -0.24474076 </v>
   <v>       0.00184341       0.00990532      -0.03190629 </v>
   <v>       0.18332292      -0.20631959       0.27891308 </v>
   <v>       0.03268058       0.00434346      -0.03524591 </v>
   <v>      -0.28128493      -0.16489216      -0.19194035 </v>
   <v>      -0.00840575      -0.00955190       0.00247246 </v>
   <v>      -0.01353847       0.01955718       0.00705497 </v>
   <v>       0.00300894       0.00153276       0.00431099 </v>
   <v>       0.01042005      -0.00524692       0.09986464 </v>
   <v>      -0.18947360      -0.34393654       0.18173862 </v>
   <v>       0.00377803       0.00363497       0.00214578 </v>
   <v>      -0.03889712      -0.03497879       0.05690860 </v>
   <v>      -0.02376013       0.03238463       0.03266555 </v>
   <v>      -0.00173158      -0.02742822      -0.01930012 </v>
   <v>       0.00289758       0.03277887      -0.01559841 </v>
   <v>      -0.00001222      -0.03642169      -0.02268846 </v>
   <v>       0.21576170       0.22579405       0.23892224 </v>
   <v>      -0.01998296       0.00403534      -0.29430120 </v>
   <v>      -0.29881847       0.19339523      -0.24245703 </v>
   <v>       0.00074728       0.00093625      -0.01783886 </v>
   <v>       0.01415353      -0.03293051       0.03233192 </v>
   <v>      -0.00545729       0.00842322      -0.01247397 </v>
   <v>      -0.01138449       0.00639922       0.01303288 </v>
  </varray>
  <varray name="stress" >
   <v>      -9.59021897      -0.37941502      -0.63151432 </v>
   <v>      -0.37941499      -8.70605310       0.44205828 </v>
   <v>      -0.63151432       0.44205823      -8.11993719 </v>
  </varray>
  <energy>
   <i name="e_fr_energy">   -349.71187622 </i>
   <i name="e_wo_entrp">   -349.71212742 </i>
   <i name="e_0_energy">      0.00075359 </i>
  </energy>
  <time name="totalsc">   23.98   25.98</time>
 </calculation>
 <calculation>
  <scstep>
   <time name="dav">    1.40    1.41</time>
   <time name="total">    1.48    1.70</time>
   <energy>
    <i name="alphaZ">   1701.37517637 </i>
    <i name="ewald"> -24583.14335684 </i>
    <i name="hartreedc">  -7954.75422133 </i>
    <i name="XCdc">    350.04936626 </i>
    <i name="pawpsdc">  38957.84741967 </i>
    <i name="pawaedc"> -37609.81275336 </i>
    <i name="eentropy">      0.00017599 </i>
    <i name="bandstr">  -3508.95457323 </i>
    <i name="atom">  32297.57955594 </i>
    <i name="e_fr_energy">   -349.81321054 </i>
    <i name="e_wo_entrp">   -349.81338654 </i>
    <i name="e_0_energy">   -349.81326921 </i>
   </energy>
  </scstep>
  <scstep>
   <time name="diag">    0.09    0.09</time>
   <time name="diis">    0.82    0.84</time>
   <time name="orth">    0.02    0.02</time>
   <time name="total">    1.00    1.07</time>
   <energy>
    <i name="e_fr_energy">   -349.78198904 </i>
    <i name="e_wo_entrp">   -349.78294391 </i>
    <i name="e_0_energy">   -349.78230733 </i>
   </energy>
  </scstep>
  <scstep>
   <time name="diag">    0.09    0.10</time>
   <time name="diis">    0.85    0.88</time>
   <time name="orth">    0.02    0.02</time>
   <time name="total">    1.05    1.18</time>
   <energy>
    <i name="e_fr_energy">   -349.76529451 </i>
    <i name="e_wo_entrp">   -349.76580869 </i>
    <i name="e_0_energy">   -349.76546590 </i>
   </energy>
  </scstep>
  <scstep>
   <time name="diag">    0.10    0.10</time>
   <time name="diis">    0.86    0.87</time>
   <time name="orth">    0.02    0.02</time>
   <time name="total">    1.05    1.10</time>
   <energy>
    <i name="e_fr_energy">   -349.75353193 </i>
    <i name="e_wo_entrp">   -349.75453785 </i>
    <i name="e_0_energy">   -349.75386724 </i>
   </energy>
  </scstep>
  <scstep>
   <time name="diag">    0.09    0.10</time>
   <time name="diis">    0.84    0.85</time>
   <time name="orth">    0.02    0.02</time>
   <time name="total">    1.02    1.08</time>
   <energy>
    <i name="e_fr_energy">   -349.75203585 </i>
    <i name="e_wo_entrp">   -349.75278524 </i>
    <i name="e_0_energy">   -349.75228564 </i>
   </energy>
  </scstep>
  <scstep>
   <time name="diag">    0.09    0.09</time>
   <time name="diis">    0.98    0.99</time>
   <time name="orth">    0.02    0.02</time>
   <time name="total">    1.16    1.21</time>
   <energy>
    <i name="e_fr_energy">   -349.75243427 </i>
    <i name="e_wo_entrp">   -349.75330555 </i>
    <i name="e_0_energy">   -349.75272470 </i>
   </energy>
  </scstep>
  <scstep>
   <time name="diag">    0.09    0.09</time>
   <time name="diis">    0.92    0.92</time>
   <time name="orth">    0.02    0.02</time>
   <time name="total">    1.09    1.16</time>
   <energy>
    <i name="e_fr_energy">   -349.75252243 </i>
    <i name="e_wo_entrp">   -349.75326175 </i>
    <i name="e_0_energy">   -349.75276887 </i>
   </energy>
  </scstep>
  <scstep>
   <time name="diag">    0.15    0.15</time>
   <time name="diis">    0.82    0.83</time>
   <time name="orth">    0.02    0.02</time>
   <time name="total">    1.06    1.11</time>
   <energy>
    <i name="e_fr_energy">   -349.75262394 </i>
    <i name="e_wo_entrp">   -349.75341938 </i>
    <i name="e_0_energy">   -349.75288909 </i>
   </energy>
  </scstep>
  <scstep>
   <time name="diag">    0.09    0.09</time>
   <time name="diis">    0.71    0.72</time>
   <time name="orth">    0.02    0.02</time>
   <time name="total">    0.89    0.94</time>
   <energy>
    <i name="e_fr_energy">   -349.75271208 </i>
    <i name="e_wo_entrp">   -349.75349079 </i>
    <i name="e_0_energy">   -349.75297165 </i>
   </energy>
  </scstep>
  <scstep>
   <time name="diag">    0.10    0.10</time>
   <time name="diis">    0.72    0.72</time>
   <time name="orth">    0.03    0.03</time>
   <time name="total">    0.98    1.03</time>
   <energy>
    <i name="e_fr_energy">   -349.75281554 </i>
    <i name="e_wo_entrp">   -349.75359873 </i>
    <i name="e_0_energy">   -349.75307660 </i>
   </energy>
  </scstep>
  <scstep>
   <time name="diag">    0.12    0.12</time>
   <time name="diis">    0.61    0.62</time>
   <time name="orth">    0.02    0.02</time>
   <time name="total">    0.83    0.89</time>
   <energy>
    <i name="e_fr_energy">   -349.75286376 </i>
    <i name="e_wo_entrp">   -349.75365560 </i>
    <i name="e_0_energy">   -349.75312770 </i>
   </energy>
  </scstep>
  <scstep>
   <time name="diag">    0.09    0.09</time>
   <time name="diis">    0.53    0.53</time>
   <time name="orth">    0.02    0.02</time>
   <time name="total">    0.67    0.75</time>
   <energy>
    <i name="alphaZ">   1701.37517637 </i>
    <i name="ewald"> -24583.14335684 </i>
    <i name="hartreedc">  -7928.72596164 </i>
    <i name="XCdc">    348.83173782 </i>
    <i name="pawpsdc">  39184.55567771 </i>
    <i name="pawaedc"> -37836.01617114 </i>
    <i name="eentropy">      0.00078270 </i>
    <i name="bandstr">  -3534.21031427 </i>
    <i name="atom">  32297.57955594 </i>
    <i name="e_fr_energy">   -349.75287335 </i>
    <i name="e_wo_entrp">   -349.75365605 </i>
    <i name="e_0_energy">   -349.75313425 </i>
   </energy>
  </scstep>
  <structure>
   <crystal>
    <varray name="basis" >
     <v>       7.02393311       0.00503843       0.00606140 </v>
     <v>       0.00719541      10.31343084       0.02203249 </v>
     <v>       0.00882699       0.02174650      10.25432251 </v>
    </varray>
    <i name="volume">    742.82753525 </i>
    <varray name="rec_basis" >
     <v>       0.14237055      -0.00009907      -0.00012234 </v>
     <v>      -0.00006938       0.09696143      -0.00020557 </v>
     <v>      -0.00008401      -0.00020827       0.09752036 </v>
    </varray>
   </crystal>
   <varray name="positions" >
    <v>       0.73485676       0.49864042       0.17816348 </v>
    <v>       0.52504650       0.66545808       0.01162254 </v>
    <v>       0.00104430       0.99605427       0.33095222 </v>
    <v>       0.04235339       0.99710075       0.65238294 </v>
    <v>       0.50729995       0.67359856       0.33485121 </v>
    <v>       0.48979949       0.99552974       0.34342035 </v>
    <v>       0.74692694       0.82050183       0.18439325 </v>
    <v>       0.22408528       0.17303091       0.48907486 </v>
    <v>       0.49268967       0.32956984       0.34817595 </v>
    <v>       0.27509778       0.49921541       0.84602217 </v>
    <v>       0.99145926       0.33087369       0.32215944 </v>
    <v>       0.02788998       0.34002037       0.67359571 </v>
    <v>       0.98547531       0.67328408       0.32215340 </v>
    <v>       0.22751937       0.82864212       0.48200711 </v>
    <v>       0.50002284       0.34644897       0.99605601 </v>
    <v>       0.25387182       0.16927995       0.16483140 </v>
    <v>       0.97097728       0.99846015       0.02203627 </v>
    <v>       0.76790310       0.16475384       0.50558237 </v>
    <v>       0.24931672       0.16450562       0.84334352 </v>
    <v>       0.76476711       0.16774339       0.82057590 </v>
    <v>       0.25839018       0.50340813       0.17227807 </v>
    <v>       0.53623124       0.98961635       0.00559373 </v>
    <v>       0.73138347       0.18618083       0.17886837 </v>
    <v>       0.73574976       0.49512808       0.82211001 </v>
    <v>       0.47682794       0.66837787       0.65441835 </v>
    <v>       0.47709401       0.32926830       0.65512397 </v>
    <v>       0.76250552       0.83854163       0.81339788 </v>
    <v>       0.99524994       0.34900497       0.00037392 </v>
    <v>       0.98037008       0.65863304       0.00158413 </v>
    <v>       0.25267394       0.82685142       0.16533575 </v>
    <v>       0.46753048       0.99807852       0.65401927 </v>
    <v>       0.76826257       0.83265197       0.50427117 </v>
    <v>       0.22900057       0.49729136       0.47736886 </v>
    <v>       0.03295710       0.65879076       0.67628664 </v>
    <v>       0.76294379       0.49960584       0.49314340 </v>
    <v>       0.25443555       0.83586394       0.85442236 </v>
   </varray>
  </structure>
  <varray name="forces" >
   <v>      -0.01086584      -0.00408531       0.00399749 </v>
   <v>      -0.00195602      -0.00036447      -0.01789441 </v>
   <v>      -0.00349871      -0.00704058      -0.01771744 </v>
   <v>      -0.04200445       0.00362851       0.05017806 </v>
   <v>       0.01617291      -0.02506177      -0.02582268 </v>
   <v>      -0.06541103      -0.14459887       0.11237303 </v>
   <v>      -0.25426157       0.35425641       0.19308600 </v>
   <v>       0.30727170      -0.29941211      -0.16332059 </v>
   <v>       0.00155904       0.00684162       0.01668903 </v>
   <v>      -0.00550544       0.01399695      -0.01835218 </v>
   <v>       0.01564930      -0.01134758       0.01220804 </v>
   <v>      -0.00257469       0.00622221       0.02742855 </v>
   <v>      -0.00324019      -0.00720931      -0.02009542 </v>
   <v>       0.42109018       0.40693876      -0.20831677 </v>
   <v>       0.00741749      -0.01210652      -0.02236553 </v>
   <v>       0.16254120      -0.18451083       0.24606327 </v>
   <v>       0.03558856       0.01366860      -0.04027675 </v>
   <v>      -0.26960480      -0.14192992      -0.17078938 </v>
   <v>      -0.00465422      -0.01070139       0.00432892 </v>
   <v>      -0.01367736       0.02094411       0.00465569 </v>
   <v>      -0.00773655      -0.00206636      -0.00105920 </v>
   <v>       0.01021950       0.00653556       0.07881220 </v>
   <v>      -0.17037506      -0.33041430       0.15862422 </v>
   <v>       0.01369213       0.00960130      -0.00356106 </v>
   <v>      -0.02717050      -0.03022549       0.05471973 </v>
   <v>      -0.01364742       0.02680444       0.02753861 </v>
   <v>      -0.00337589      -0.03108926      -0.02214156 </v>
   <v>      -0.00065705       0.00704825      -0.00482643 </v>
   <v>       0.00532909      -0.01773967      -0.01400498 </v>
   <v>       0.19502890       0.20801175       0.20673656 </v>
   <v>      -0.00314044       0.00535374      -0.25730493 </v>
   <v>      -0.28096692       0.16506354      -0.20880998 </v>
   <v>       0.00242436       0.00426951      -0.00646799 </v>
   <v>       0.00410286      -0.01682227       0.01215873 </v>
   <v>      -0.00599700       0.00978378       0.00189732 </v>
   <v>      -0.00776611       0.00775701       0.01163182 </v>
  </varray>
  <varray name="stress" >
   <v>      -3.54988117      -0.31132433      -0.56332816 </v>
   <v>      -0.31132433      -2.43087374       0.33696073 </v>
   <v>      -0.56332815       0.33696070      -2.12770951 </v>
  </varray>
  <energy>
   <i name="e_fr_energy">   -349.75287335 </i>
   <i name="e_wo_entrp">   -349.75313425 </i>
   <i name="e_0_energy">      0.00078270 </i>
  </energy>
  <time name="totalsc">   14.03   15.20</time>
 </calculation>
 <calculation>
  <scstep>
   <time name="dav">    1.25    1.26</time>
   <time name="total">    1.33    1.51</time>
   <energy>
    <i name="alphaZ">   1720.18538700 </i>
    <i name="ewald"> -24666.02742926 </i>
    <i name="hartreedc">  -7965.08443790 </i>
    <i name="XCdc">    352.98167478 </i>
    <i name="pawpsdc">  39184.86588033 </i>
    <i name="pawaedc"> -37836.29766741 </i>
    <i name="eentropy">      0.00001958 </i>
    <i name="bandstr">  -3438.28385236 </i>
    <i name="atom">  32297.57955594 </i>
    <i name="e_fr_energy">   -350.08086930 </i>
    <i name="e_wo_entrp">   -350.08088889 </i>
    <i name="e_0_energy">   -350.08087583 </i>
   </energy>
  </scstep>
  <scstep>
   <time name="diag">    0.17    0.17</time>
   <time name="diis">    0.86    0.87</time>
   <time name="orth">    0.02    0.02</time>
   <time name="total">    1.15    1.20</time>
   <energy>
    <i name="e_fr_energy">   -349.92176034 </i>
    <i name="e_wo_entrp">   -349.92289200 </i>
    <i name="e_0_energy">   -349.92213756 </i>
   </energy>
  </scstep>
  <scstep>
   <time name="diag">    0.09    0.09</time>
   <time name="diis">    0.83    0.90</time>
   <time name="orth">    0.02    0.02</time>
   <time name="total">    1.01    1.13</time>
   <energy>
    <i name="e_fr_energy">   -349.84222566 </i>
    <i name="e_wo_entrp">   -349.84281255 </i>
    <i name="e_0_energy">   -349.84242129 </i>
   </energy>
  </scstep>
  <scstep>
   <time name="diag">    0.09    0.09</time>
   <time name="diis">    0.85    0.96</time>
   <time name="orth">    0.02    0.02</time>
   <time name="total">    1.04    1.24</time>
   <energy>
    <i name="e_fr_energy">   -349.78424751 </i>
    <i name="e_wo_entrp">   -349.78561921 </i>
    <i name="e_0_energy">   -349.78470474 </i>
   </energy>
  </scstep>
  <scstep>
   <time name="diag">    0.11    0.16</time>
   <time name="diis">    0.84    0.93</time>
   <time name="orth">    0.02    0.03</time>
   <time name="total">    1.07    1.29</time>
   <energy>
    <i name="e_fr_energy">   -349.77740265 </i>
    <i name="e_wo_entrp">   -349.77827014 </i>
    <i name="e_0_energy">   -349.77769181 </i>
   </energy>
  </scstep>
  <scstep>
   <time name="diag">    0.09    0.09</time>
   <time name="diis">    0.92    0.93</time>
   <time name="orth">    0.02    0.02</time>
   <time name="total">    1.09    1.15</time>
   <energy>
    <i name="e_fr_energy">   -349.77908118 </i>
    <i name="e_wo_entrp">   -349.78008304 </i>
    <i name="e_0_energy">   -349.77941513 </i>
   </energy>
  </scstep>
  <scstep>
   <time name="diag">    0.09    0.09</time>
   <time name="diis">    0.96    0.97</time>
   <time name="orth">    0.02    0.02</time>
   <time name="total">    1.14    1.19</time>
   <energy>
    <i name="e_fr_energy">   -349.77970124 </i>
    <i name="e_wo_entrp">   -349.78052051 </i>
    <i name="e_0_energy">   -349.77997433 </i>
   </energy>
  </scstep>
  <scstep>
   <time name="diag">    0.09    0.09</time>
   <time name="diis">    1.01    1.02</time>
   <time name="orth">    0.02    0.02</time>
   <time name="total">    1.19    1.24</time>
   <energy>
    <i name="e_fr_energy">   -349.78007916 </i>
    <i name="e_wo_entrp">   -349.78102685 </i>
    <i name="e_0_energy">   -349.78039505 </i>
   </energy>
  </scstep>
  <scstep>
   <time name="diag">    0.09    0.09</time>
   <time name="diis">    0.92    0.93</time>
   <time name="orth">    0.02    0.02</time>
   <time name="total">    1.10    1.14</time>
   <energy>
    <i name="e_fr_energy">   -349.78047003 </i>
    <i name="e_wo_entrp">   -349.78136272 </i>
    <i name="e_0_energy">   -349.78076760 </i>
   </energy>
  </scstep>
  <scstep>
   <time name="diag">    0.09    0.09</time>
   <time name="diis">    0.95    0.96</time>
   <time name="orth">    0.02    0.02</time>
   <time name="total">    1.12    1.17</time>
   <energy>
    <i name="e_fr_energy">   -349.78091910 </i>
    <i name="e_wo_entrp">   -349.78183953 </i>
    <i name="e_0_energy">   -349.78122591 </i>
   </energy>
  </scstep>
  <scstep>
   <time name="diag">    0.09    0.09</time>
   <time name="diis">    0.80    0.80</time>
   <time name="orth">    0.02    0.02</time>
   <time name="total">    0.97    1.03</time>
   <energy>
    <i name="e_fr_energy">   -349.78106515 </i>
    <i name="e_wo_entrp">   -349.78198487 </i>
    <i name="e_0_energy">   -349.78137172 </i>
   </energy>
  </scstep>
  <scstep>
   <time name="diag">    0.09    0.09</time>
   <time name="diis">    0.69    0.71</time>
   <time name="orth">    0.02    0.02</time>
   <time name="total">    0.86    0.92</time>
   <energy>
    <i name="e_fr_energy">   -349.78109270 </i>
    <i name="e_wo_entrp">   -349.78199554 </i>
    <i name="e_0_energy">   -349.78139365 </i>
   </energy>
  </scstep>
  <scstep>
   <time name="diag">    0.12    0.12</time>
   <time name="diis">    0.64    0.64</time>
   <time name="orth">    0.02    0.02</time>
   <time name="total">    0.80    0.85</time>
   <energy>
    <i name="alphaZ">   1720.18538700 </i>
    <i name="ewald"> -24666.02742926 </i>
    <i name="hartreedc">  -7907.67360054 </i>
    <i name="XCdc">    350.29262864 </i>
    <i name="pawpsdc">  39706.09345605 </i>
    <i name="pawaedc"> -38356.16797279 </i>
    <i name="eentropy">      0.00090715 </i>
    <i name="bandstr">  -3494.06403384 </i>
    <i name="atom">  32297.57955594 </i>
    <i name="e_fr_energy">   -349.78110166 </i>
    <i name="e_wo_entrp">   -349.78200881 </i>
    <i name="e_0_energy">   -349.78140405 </i>
   </energy>
  </scstep>
  <structure>
   <crystal>
    <varray name="basis" >
     <v>       6.99594102       0.00391233       0.00419607 </v>
     <v>       0.00553258      10.27613104       0.02385305 </v>
     <v>       0.00609366       0.02355234      10.21973577 </v>
    </varray>
    <i name="volume">    734.70472331 </i>
    <varray name="rec_basis" >
     <v>       0.14294012      -0.00007676      -0.00008505 </v>
     <v>      -0.00005429       0.09731344      -0.00022424 </v>
     <v>      -0.00005856      -0.00022710       0.09785045 </v>
    </varray>
   </crystal>
   <varray name="positions" >
    <v>       0.73475419       0.49864577       0.17820444 </v>
    <v>       0.52507199       0.66542056       0.01159492 </v>
    <v>       0.00106271       0.99599054       0.33090391 </v>
    <v>       0.04225003       0.99710019       0.65252471 </v>
    <v>       0.50743069       0.67354658       0.33471419 </v>
    <v>       0.48942570       0.99501678       0.34379150 </v>
    <v>       0.74562497       0.82168347       0.18509658 </v>
    <v>       0.22556747       0.17199064       0.48851592 </v>
    <v>       0.49269338       0.32958944       0.34822684 </v>
    <v>       0.27514386       0.49922964       0.84596044 </v>
    <v>       0.99153749       0.33087744       0.32220922 </v>
    <v>       0.02792324       0.34007663       0.67369263 </v>
    <v>       0.98543829       0.67322660       0.32208999 </v>
    <v>       0.22955432       0.83011522       0.48123789 </v>
    <v>       0.50003134       0.34647995       0.99595622 </v>
    <v>       0.25470779       0.16863661       0.16570393 </v>
    <v>       0.97112651       0.99847381       0.02192601 </v>
    <v>       0.76662103       0.16424337       0.50498439 </v>
    <v>       0.24927839       0.16447594       0.84335134 </v>
    <v>       0.76470525       0.16780415       0.82059786 </v>
    <v>       0.25840388       0.50341286       0.17229152 </v>
    <v>       0.53627841       0.98959937       0.00590584 </v>
    <v>       0.73051938       0.18511135       0.17943914 </v>
    <v>       0.73576698       0.49513935       0.82211668 </v>
    <v>       0.47665036       0.66826890       0.65459654 </v>
    <v>       0.47698538       0.32936877       0.65522591 </v>
    <v>       0.76249778       0.83845653       0.81333775 </v>
    <v>       0.99526312       0.34910691       0.00032494 </v>
    <v>       0.98037023       0.65852002       0.00151347 </v>
    <v>       0.25365669       0.82755097       0.16608033 </v>
    <v>       0.46744045       0.99809304       0.65309956 </v>
    <v>       0.76689956       0.83325516       0.50351297 </v>
    <v>       0.22900405       0.49729439       0.47731310 </v>
    <v>       0.03302165       0.65868819       0.67638786 </v>
    <v>       0.76291891       0.49963211       0.49310438 </v>
    <v>       0.25438354       0.83588376       0.85446308 </v>
   </varray>
  </structure>
  <varray name="forces" >
   <v>       0.01625346      -0.01613646      -0.01742837 </v>
   <v>      -0.01749036       0.02448138      -0.03746973 </v>
   <v>      -0.02131515       0.02422571      -0.02266045 </v>
   <v>      -0.08490289       0.01152114       0.05983168 </v>
   <v>      -0.01186464      -0.04880341       0.01433897 </v>
   <v>      -0.02307732      -0.09095927       0.09275029 </v>
   <v>      -0.18203042       0.28980215       0.11838037 </v>
   <v>       0.26305828      -0.21549773      -0.12544226 </v>
   <v>       0.00370683       0.01250659       0.01794920 </v>
   <v>      -0.04209271       0.03683790      -0.01436310 </v>
   <v>       0.01197253      -0.03635487       0.00443116 </v>
   <v>      -0.02275837      -0.01914796       0.01539147 </v>
   <v>       0.00940179       0.01536075      -0.01865926 </v>
   <v>       0.35645902       0.24596404      -0.12194912 </v>
   <v>       0.02033290      -0.05985111      -0.00051968 </v>
   <v>       0.11392022      -0.13141298       0.17120743 </v>
   <v>       0.04200746       0.03290359      -0.05002502 </v>
   <v>      -0.23959314      -0.08832432      -0.12355532 </v>
   <v>       0.00383422      -0.01306425       0.00738250 </v>
   <v>      -0.01415594       0.02428440      -0.00021037 </v>
   <v>      -0.03275422      -0.00888318      -0.01333495 </v>
   <v>       0.00855104       0.03333455       0.02954508 </v>
   <v>      -0.12787825      -0.29769432       0.10557570 </v>
   <v>       0.03719502       0.02276950      -0.01601081 </v>
   <v>      -0.00301750      -0.02011360       0.04873240 </v>
   <v>       0.00706769       0.01516033       0.01579921 </v>
   <v>      -0.00542072      -0.04019616      -0.02739965 </v>
   <v>      -0.00821130      -0.05002224       0.02078870 </v>
   <v>       0.01780769       0.02219710       0.00652988 </v>
   <v>       0.14586736       0.16548976       0.13172428 </v>
   <v>       0.03731030       0.00701729      -0.16863309 </v>
   <v>      -0.23870250       0.09871265      -0.13110276 </v>
   <v>       0.00457215       0.01057075       0.01917809 </v>
   <v>      -0.01981431       0.01981349      -0.03413415 </v>
   <v>      -0.00481728       0.01288302       0.03415173 </v>
   <v>       0.00057908       0.01062578       0.00920997 </v>
  </varray>
  <varray name="stress" >
   <v>      10.47860171      -0.14896307      -0.40503629 </v>
   <v>      -0.14896313      12.13876652       0.10409736 </v>
   <v>      -0.40503634       0.10409734      11.85398559 </v>
  </varray>
  <energy>
   <i name="e_fr_energy">   -349.78110166 </i>
   <i name="e_wo_entrp">   -349.78140405 </i>
   <i name="e_0_energy">      0.00090715 </i>
  </energy>
  <time name="totalsc">   15.66   17.04</time>
 </calculation>
 <calculation>
  <scstep>
   <time name="dav">    1.06    1.07</time>
   <time name="total">    1.14    1.36</time>
   <energy>
    <i name="alphaZ">   1718.94690920 </i>
    <i name="ewald"> -24655.12907193 </i>
    <i name="hartreedc">  -7910.73314681 </i>
    <i name="XCdc">    350.02981484 </i>
    <i name="pawpsdc">  39707.20327535 </i>
    <i name="pawaedc"> -38357.19388770 </i>
    <i name="eentropy">      0.00084395 </i>
    <i name="bandstr">  -3500.50440271 </i>
    <i name="atom">  32297.57955594 </i>
    <i name="e_fr_energy">   -349.80010986 </i>
    <i name="e_wo_entrp">   -349.80095381 </i>
    <i name="e_0_energy">   -349.80039118 </i>
   </energy>
  </scstep>
  <scstep>
   <time name="diag">    0.09    0.09</time>
   <time name="diis">    0.80    0.81</time>
   <time name="orth">    0.02    0.02</time>
   <time name="total">    0.98    1.02</time>
   <energy>
    <i name="e_fr_energy">   -349.81624109 </i>
    <i name="e_wo_entrp">   -349.81777238 </i>
    <i name="e_0_energy">   -349.81675152 </i>
   </energy>
  </scstep>
  <scstep>
   <time name="diag">    0.09    0.09</time>
   <time name="diis">    0.84    0.84</time>
   <time name="orth">    0.02    0.02</time>
   <time name="total">    1.01    1.07</time>
   <energy>
    <i name="e_fr_energy">   -349.80965548 </i>
    <i name="e_wo_entrp">   -349.81067161 </i>
    <i name="e_0_energy">   -349.80999419 </i>
   </energy>
  </scstep>
  <scstep>
   <time name="diag">    0.09    0.09</time>
   <time name="diis">    0.92    0.93</time>
   <time name="orth">    0.02    0.02</time>
   <time name="total">    1.12    1.18</time>
   <energy>
    <i name="e_fr_energy">   -349.80937500 </i>
    <i name="e_wo_entrp">   -349.81051247 </i>
    <i name="e_0_energy">   -349.80975416 </i>
   </energy>
  </scstep>
  <scstep>
   <time name="diag">    0.17    0.17</time>
   <time name="diis">    0.87    0.88</time>
   <time name="orth">    0.02    0.02</time>
   <time name="total">    1.12    1.18</time>
   <energy>
    <i name="e_fr_energy">   -349.80921733 </i>
    <i name="e_wo_entrp">   -349.81036154 </i>
    <i name="e_0_energy">   -349.80959873 </i>
   </energy>
  </scstep>
  <scstep>
   <time name="diag">    0.13    0.13</time>
   <time name="diis">    0.89    0.90</time>
   <time name="orth">    0.02    0.02</time>
   <time name="total">    1.12    1.18</time>
   <energy>
    <i name="e_fr_energy">   -349.80917636 </i>
    <i name="e_wo_entrp">   -349.81033981 </i>
    <i name="e_0_energy">   -349.80956418 </i>
   </energy>
  </scstep>
  <scstep>
   <time name="diag">    0.09    0.09</time>
   <time name="diis">    0.79    0.79</time>
   <time name="orth">    0.02    0.02</time>
   <time name="total">    0.96    1.01</time>
   <energy>
    <i name="e_fr_energy">   -349.80916310 </i>
    <i name="e_wo_entrp">   -349.81033022 </i>
    <i name="e_0_energy">   -349.80955214 </i>
   </energy>
  </scstep>
  <scstep>
   <time name="diag">    0.09    0.09</time>
   <time name="diis">    0.58    0.59</time>
   <time name="orth">    0.02    0.02</time>
   <time name="total">    0.72    0.77</time>
   <energy>
    <i name="alphaZ">   1718.94690920 </i>
    <i name="ewald"> -24655.12907193 </i>
    <i name="hartreedc">  -7914.94162880 </i>
    <i name="XCdc">    350.21420477 </i>
    <i name="pawpsdc">  39672.16945087 </i>
    <i name="pawaedc"> -38321.99391113 </i>
    <i name="eentropy">      0.00116878 </i>
    <i name="bandstr">  -3496.65583472 </i>
    <i name="atom">  32297.57955594 </i>
    <i name="e_fr_energy">   -349.80915703 </i>
    <i name="e_wo_entrp">   -349.81032581 </i>
    <i name="e_0_energy">   -349.80954662 </i>
   </energy>
  </scstep>
  <structure>
   <crystal>
    <varray name="basis" >
     <v>       6.99574296       0.00334527       0.00309499 </v>
     <v>       0.00469321      10.27971000       0.02473356 </v>
     <v>       0.00448018       0.02442709      10.22382932 </v>
    </varray>
    <i name="volume">    735.23406804 </i>
    <varray name="rec_basis" >
     <v>       0.14294413      -0.00006511      -0.00006248 </v>
     <v>      -0.00004641       0.09727959      -0.00023240 </v>
     <v>      -0.00004316      -0.00023532       0.09781129 </v>
    </varray>
   </crystal>
   <varray name="positions" >
    <v>       0.73474085       0.49863031       0.17820111 </v>
    <v>       0.52505384       0.66543289       0.01154333 </v>
    <v>       0.00103572       0.99599253       0.33086059 </v>
    <v>       0.04207477       0.99711239       0.65264446 </v>
    <v>       0.50746188       0.67347358       0.33467750 </v>
    <v>       0.48924551       0.99472101       0.34403537 </v>
    <v>       0.74483489       0.82245116       0.18549472 </v>
    <v>       0.22655601       0.17135787       0.48816515 </v>
    <v>       0.49270071       0.32961049       0.34826592 </v>
    <v>       0.27509430       0.49927521       0.84592102 </v>
    <v>       0.99158664       0.33083933       0.32223323 </v>
    <v>       0.02789967       0.34007735       0.67374666 </v>
    <v>       0.98543909       0.67322131       0.32204525 </v>
    <v>       0.23090375       0.83094749       0.48080899 </v>
    <v>       0.50006711       0.34642676       0.99591755 </v>
    <v>       0.25521027       0.16824663       0.16622582 </v>
    <v>       0.97125081       0.99851492       0.02182897 </v>
    <v>       0.76574688       0.16395212       0.50462049 </v>
    <v>       0.24926982       0.16445034       0.84336243 </v>
    <v>       0.76465891       0.16785384       0.82060598 </v>
    <v>       0.25835686       0.50340507       0.17228215 </v>
    <v>       0.53631013       0.98962900       0.00605765 </v>
    <v>       0.72998399       0.18437752       0.17977413 </v>
    <v>       0.73583297       0.49516845       0.82210165 </v>
    <v>       0.47657743       0.66820512       0.65471814 </v>
    <v>       0.47695500       0.32942370       0.65528218 </v>
    <v>       0.76248620       0.83838029       0.81328487 </v>
    <v>       0.99525508       0.34909157       0.00032903 </v>
    <v>       0.98039867       0.65850080       0.00149347 </v>
    <v>       0.25426636       0.82799859       0.16650917 </v>
    <v>       0.46746553       0.99810669       0.65256272 </v>
    <v>       0.76599573       0.83359415       0.50307886 </v>
    <v>       0.22901265       0.49730699       0.47731266 </v>
    <v>       0.03301479       0.65867050       0.67638932 </v>
    <v>       0.76290163       0.49965610       0.49312672 </v>
    <v>       0.25436451       0.83590289       0.85448872 </v>
   </varray>
  </structure>
  <varray name="forces" >
   <v>       0.01894781      -0.01642956      -0.02272630 </v>
   <v>      -0.01207751       0.02923316      -0.02561680 </v>
   <v>      -0.01832665       0.02646680      -0.01264842 </v>
   <v>      -0.07537320       0.01133754       0.03346493 </v>
   <v>      -0.01215936      -0.05268278       0.02085415 </v>
   <v>      -0.00758297      -0.06598034       0.08191479 </v>
   <v>      -0.13886005       0.21735995       0.08982009 </v>
   <v>       0.21034273      -0.16534881      -0.09639342 </v>
   <v>       0.00173850       0.02044091       0.02416097 </v>
   <v>      -0.04679409       0.03774318      -0.00170797 </v>
   <v>       0.00767423      -0.04535681      -0.00497674 </v>
   <v>      -0.01728872      -0.02643067       0.00825532 </v>
   <v>       0.00200503       0.04111785      -0.02842313 </v>
   <v>       0.29044458       0.16230292      -0.07701864 </v>
   <v>       0.02361805      -0.05701064       0.00749908 </v>
   <v>       0.08664206      -0.09331169       0.13816536 </v>
   <v>       0.03720703       0.03031364      -0.04305329 </v>
   <v>      -0.19994150      -0.05693043      -0.10368164 </v>
   <v>       0.00105521      -0.01198060      -0.00008371 </v>
   <v>      -0.00594029       0.03027595      -0.00670201 </v>
   <v>      -0.03373746      -0.00852466      -0.01471003 </v>
   <v>       0.01485123       0.03058055       0.00900540 </v>
   <v>      -0.10361933      -0.25167994       0.08558235 </v>
   <v>       0.04070776       0.02448363      -0.01226429 </v>
   <v>      -0.00335829      -0.01356148       0.03818148 </v>
   <v>       0.00012154       0.01149345       0.00371332 </v>
   <v>      -0.00179472      -0.04355783      -0.03264850 </v>
   <v>      -0.01108516      -0.06783733       0.03758988 </v>
   <v>       0.01162445       0.03828930       0.02583686 </v>
   <v>       0.11635826       0.12677869       0.09600876 </v>
   <v>       0.03333262       0.00498271      -0.12044521 </v>
   <v>      -0.19298508       0.06274059      -0.09636417 </v>
   <v>      -0.00363486       0.00300407       0.01797233 </v>
   <v>      -0.01749562       0.03868310      -0.05554002 </v>
   <v>       0.00386843       0.01248006       0.03109961 </v>
   <v>       0.00151538       0.01651553       0.00587960 </v>
  </varray>
  <varray name="stress" >
   <v>       9.70885080      -0.06444490      -0.32263575 </v>
   <v>      -0.06444490      11.35950407       0.02528162 </v>
   <v>      -0.32263575       0.02528163      10.94205460 </v>
  </varray>
  <energy>
   <i name="e_fr_energy">   -349.80915703 </i>
   <i name="e_wo_entrp">   -349.80954662 </i>
   <i name="e_0_energy">      0.00116878 </i>
  </energy>
  <time name="totalsc">   10.05   10.80</time>
 </calculation>
 <calculation>
  <scstep>
   <time name="dav">    1.26    1.27</time>
   <time name="total">    1.34    1.56</time>
   <energy>
    <i name="alphaZ">   1715.24051930 </i>
    <i name="ewald"> -24619.81115846 </i>
    <i name="hartreedc">  -7926.27666542 </i>
    <i name="XCdc">    349.43088352 </i>
    <i name="pawpsdc">  39672.69784647 </i>
    <i name="pawaedc"> -38322.56017780 </i>
    <i name="eentropy">      0.00148679 </i>
    <i name="bandstr">  -3516.06907102 </i>
    <i name="atom">  32297.57955594 </i>
    <i name="e_fr_energy">   -349.76678068 </i>
    <i name="e_wo_entrp">   -349.76826747 </i>
    <i name="e_0_energy">   -349.76727628 </i>
   </energy>
  </scstep>
  <scstep>
   <time name="diag">    0.10    0.10</time>
   <time name="diis">    1.28    1.28</time>
   <time name="orth">    0.02    0.02</time>
   <time name="total">    1.46    1.50</time>
   <energy>
    <i name="e_fr_energy">   -349.90429056 </i>
    <i name="e_wo_entrp">   -349.90696084 </i>
    <i name="e_0_energy">   -349.90518065 </i>
   </energy>
  </scstep>
  <scstep>
   <time name="diag">    0.11    0.11</time>
   <time name="diis">    0.94    0.95</time>
   <time name="orth">    0.02    0.02</time>
   <time name="total">    1.15    1.22</time>
   <energy>
    <i name="e_fr_energy">   -349.85929376 </i>
    <i name="e_wo_entrp">   -349.86135596 </i>
    <i name="e_0_energy">   -349.85998116 </i>
   </energy>
  </scstep>
  <scstep>
   <time name="diag">    0.10    0.10</time>
   <time name="diis">    1.93    2.02</time>
   <time name="orth">    0.02    0.02</time>
   <time name="total">    2.12    2.30</time>
   <energy>
    <i name="e_fr_energy">   -349.85599530 </i>
    <i name="e_wo_entrp">   -349.85827230 </i>
    <i name="e_0_energy">   -349.85675430 </i>
   </energy>
  </scstep>
  <scstep>
   <time name="diag">    0.12    0.14</time>
   <time name="diis">    0.93    0.94</time>
   <time name="orth">    0.02    0.02</time>
   <time name="total">    1.18    1.28</time>
   <energy>
    <i name="e_fr_energy">   -349.85479373 </i>
    <i name="e_wo_entrp">   -349.85709526 </i>
    <i name="e_0_energy">   -349.85556091 </i>
   </energy>
  </scstep>
  <scstep>
   <time name="diag">    0.13    0.13</time>
   <time name="diis">    0.80    0.95</time>
   <time name="orth">    0.02    0.02</time>
   <time name="total">    1.02    1.24</time>
   <energy>
    <i name="e_fr_energy">   -349.85436831 </i>
    <i name="e_wo_entrp">   -349.85670308 </i>
    <i name="e_0_energy">   -349.85514657 </i>
   </energy>
  </scstep>
  <scstep>
   <time name="diag">    0.09    0.09</time>
   <time name="diis">    0.98    0.99</time>
   <time name="orth">    0.02    0.02</time>
   <time name="total">    1.15    1.24</time>
   <energy>
    <i name="e_fr_energy">   -349.85430325 </i>
    <i name="e_wo_entrp">   -349.85665096 </i>
    <i name="e_0_energy">   -349.85508582 </i>
   </energy>
  </scstep>
  <scstep>
   <time name="diag">    0.09    0.10</time>
   <time name="diis">    0.91    0.92</time>
   <time name="orth">    0.02    0.03</time>
   <time name="total">    1.09    1.15</time>
   <energy>
    <i name="e_fr_energy">   -349.85429353 </i>
    <i name="e_wo_entrp">   -349.85665724 </i>
    <i name="e_0_energy">   -349.85508143 </i>
   </energy>
  </scstep>
  <scstep>
   <time name="diag">    0.09    0.09</time>
   <time name="diis">    0.81    0.81</time>
   <time name="orth">    0.02    0.02</time>
   <time name="total">    0.98    1.03</time>
   <energy>
    <i name="e_fr_energy">   -349.85430902 </i>
    <i name="e_wo_entrp">   -349.85665930 </i>
    <i name="e_0_energy">   -349.85509245 </i>
   </energy>
  </scstep>
  <scstep>
   <time name="diag">    0.09    0.09</time>
   <time name="diis">    0.74    0.75</time>
   <time name="orth">    0.02    0.02</time>
   <time name="total">    0.91    0.97</time>
   <energy>
    <i name="e_fr_energy">   -349.85431432 </i>
    <i name="e_wo_entrp">   -349.85668528 </i>
    <i name="e_0_energy">   -349.85510464 </i>
   </energy>
  </scstep>
  <scstep>
   <time name="diag">    0.09    0.09</time>
   <time name="diis">    0.69    0.69</time>
   <time name="orth">    0.02    0.02</time>
   <time name="total">    0.83    0.88</time>
   <energy>
    <i name="alphaZ">   1715.24051930 </i>
    <i name="ewald"> -24619.81115846 </i>
    <i name="hartreedc">  -7938.40406329 </i>
    <i name="XCdc">    349.95623417 </i>
    <i name="pawpsdc">  39570.78811100 </i>
    <i name="pawaedc"> -38220.87728049 </i>
    <i name="eentropy">      0.00236208 </i>
    <i name="bandstr">  -3504.32859440 </i>
    <i name="atom">  32297.57955594 </i>
    <i name="e_fr_energy">   -349.85431415 </i>
    <i name="e_wo_entrp">   -349.85667623 </i>
    <i name="e_0_energy">   -349.85510151 </i>
   </energy>
  </scstep>
  <structure>
   <crystal>
    <varray name="basis" >
     <v>       6.99514879       0.00164409      -0.00020822 </v>
     <v>       0.00217508      10.29044687       0.02737509 </v>
     <v>      -0.00036026       0.02705134      10.23610995 </v>
    </varray>
    <i name="volume">    736.82280390 </i>
    <varray name="rec_basis" >
     <v>       0.14295622      -0.00003023       0.00000511 </v>
     <v>      -0.00002285       0.09717820      -0.00025682 </v>
     <v>       0.00000297      -0.00025989       0.09769405 </v>
    </varray>
   </crystal>
   <varray name="positions" >
    <v>       0.73470083       0.49858394       0.17819112 </v>
    <v>       0.52499938       0.66546990       0.01138862 </v>
    <v>       0.00095472       0.99599848       0.33073067 </v>
    <v>       0.04154909       0.99714891       0.65300352 </v>
    <v>       0.50755540       0.67325470       0.33456750 </v>
    <v>       0.48870501       0.99383393       0.34476671 </v>
    <v>       0.74246517       0.82475320       0.18668822 </v>
    <v>       0.22952122       0.16946049       0.48711375 </v>
    <v>       0.49272272       0.32967363       0.34838313 </v>
    <v>       0.27494558       0.49941186       0.84580279 </v>
    <v>       0.99173409       0.33072506       0.32230525 </v>
    <v>       0.02782901       0.34007950       0.67390868 </v>
    <v>       0.98544147       0.67320546       0.32191108 </v>
    <v>       0.23495217       0.83344378       0.47952300 </v>
    <v>       0.50017437       0.34626726       0.99580161 </v>
    <v>       0.25671799       0.16707704       0.16779110 </v>
    <v>       0.97162368       0.99863828       0.02153799 </v>
    <v>       0.76312403       0.16307864       0.50352905 </v>
    <v>       0.24924410       0.16437356       0.84339570 </v>
    <v>       0.76451993       0.16800285       0.82063031 </v>
    <v>       0.25821578       0.50338170       0.17225402 </v>
    <v>       0.53640544       0.98971781       0.00651291 </v>
    <v>       0.72837774       0.18217662       0.18077872 </v>
    <v>       0.73603095       0.49525570       0.82205661 </v>
    <v>       0.47635871       0.66801381       0.65508280 </v>
    <v>       0.47686393       0.32958843       0.65545092 </v>
    <v>       0.76245140       0.83815167       0.81312631 </v>
    <v>       0.99523098       0.34904556       0.00034127 </v>
    <v>       0.98048399       0.65844318       0.00143350 </v>
    <v>       0.25609588       0.82934097       0.16779523 </v>
    <v>       0.46754038       0.99814779       0.65095286 </v>
    <v>       0.76328398       0.83461074       0.50177670 </v>
    <v>       0.22903845       0.49734479       0.47731136 </v>
    <v>       0.03299419       0.65861747       0.67639368 </v>
    <v>       0.76284982       0.49972805       0.49319371 </v>
    <v>       0.25430744       0.83596022       0.85456560 </v>
   </varray>
  </structure>
  <varray name="forces" >
   <v>       0.02775897      -0.01095101      -0.04002330 </v>
   <v>       0.00296340       0.03804389       0.00719447 </v>
   <v>      -0.00888588       0.03526666       0.01624166 </v>
   <v>      -0.04725414       0.01040742      -0.04106845 </v>
   <v>      -0.01372057      -0.07045549       0.03864251 </v>
   <v>       0.04888690       0.02289863       0.03589074 </v>
   <v>      -0.01219019       0.00607994       0.00913547 </v>
   <v>       0.05761411      -0.01757362      -0.01158317 </v>
   <v>      -0.00324531       0.04728982       0.04105632 </v>
   <v>      -0.06299327       0.04037826       0.03467135 </v>
   <v>      -0.00418312      -0.06963026      -0.03540977 </v>
   <v>      -0.00346756      -0.04349805      -0.00800893 </v>
   <v>      -0.01755794       0.10637431      -0.05837364 </v>
   <v>       0.08725284      -0.09562799       0.06114605 </v>
   <v>       0.03315920      -0.04500995       0.02845092 </v>
   <v>      -0.00188923       0.01854072       0.03930563 </v>
   <v>       0.02454822       0.02233753      -0.02137296 </v>
   <v>      -0.07836379       0.03502322      -0.04209919 </v>
   <v>      -0.00976306      -0.00847124      -0.02729817 </v>
   <v>       0.01915195       0.04835256      -0.02736350 </v>
   <v>      -0.03632803      -0.00482143      -0.01796645 </v>
   <v>       0.02991692       0.02321132      -0.05685516 </v>
   <v>      -0.02830485      -0.11478871       0.02802193 </v>
   <v>       0.05383282       0.02749660      -0.00087171 </v>
   <v>      -0.00436035       0.00750625       0.00755402 </v>
   <v>      -0.02173317      -0.00215419      -0.02970513 </v>
   <v>       0.01113508      -0.05145616      -0.04630954 </v>
   <v>      -0.01964305      -0.11795063       0.08720281 </v>
   <v>      -0.00376587       0.08034732       0.07999367 </v>
   <v>       0.02304451       0.00939348      -0.01119281 </v>
   <v>       0.02571782       0.00100893       0.03036252 </v>
   <v>      -0.05796862      -0.04583449       0.00818150 </v>
   <v>      -0.02936915      -0.01690080       0.01744347 </v>
   <v>      -0.01262335       0.08961571      -0.11336832 </v>
   <v>       0.03161349       0.01453174       0.02321791 </v>
   <v>       0.00101427       0.03101968      -0.00484277 </v>
  </varray>
  <varray name="stress" >
   <v>       6.87703036       0.19726065      -0.08348578 </v>
   <v>       0.19726062       8.41533470      -0.23908814 </v>
   <v>      -0.08348581      -0.23908811       7.82596623 </v>
  </varray>
  <energy>
   <i name="e_fr_energy">   -349.85431415 </i>
   <i name="e_wo_entrp">   -349.85510151 </i>
   <i name="e_0_energy">      0.00236208 </i>
  </energy>
  <time name="totalsc">   14.97   16.27</time>
 </calculation>
 <calculation>
  <scstep>
   <time name="dav">    1.06    1.07</time>
   <time name="total">    1.13    1.35</time>
   <energy>
    <i name="alphaZ">   1714.27348474 </i>
    <i name="ewald"> -24609.92181939 </i>
    <i name="hartreedc">  -7941.94424059 </i>
    <i name="XCdc">    349.75317922 </i>
    <i name="pawpsdc">  39570.01883981 </i>
    <i name="pawaedc"> -38220.14337172 </i>
    <i name="eentropy">      0.00258362 </i>
    <i name="bandstr">  -3509.46898306 </i>
    <i name="atom">  32297.57955594 </i>
    <i name="e_fr_energy">   -349.85077143 </i>
    <i name="e_wo_entrp">   -349.85335505 </i>
    <i name="e_0_energy">   -349.85163263 </i>
   </energy>
  </scstep>
  <scstep>
   <time name="diag">    0.09    0.09</time>
   <time name="diis">    0.76    0.82</time>
   <time name="orth">    0.02    0.02</time>
   <time name="total">    0.93    1.05</time>
   <energy>
    <i name="e_fr_energy">   -349.85981165 </i>
    <i name="e_wo_entrp">   -349.86267022 </i>
    <i name="e_0_energy">   -349.86076451 </i>
   </energy>
  </scstep>
  <scstep>
   <time name="diag">    0.09    0.09</time>
   <time name="diis">    0.83    0.84</time>
   <time name="orth">    0.02    0.02</time>
   <time name="total">    1.01    1.09</time>
   <energy>
    <i name="e_fr_energy">   -349.85666515 </i>
    <i name="e_wo_entrp">   -349.85937097 </i>
    <i name="e_0_energy">   -349.85756709 </i>
   </energy>
  </scstep>
  <scstep>
   <time name="diag">    0.09    0.09</time>
   <time name="diis">    0.97    0.99</time>
   <time name="orth">    0.02    0.02</time>
   <time name="total">    1.16    1.25</time>
   <energy>
    <i name="e_fr_energy">   -349.85649321 </i>
    <i name="e_wo_entrp">   -349.85923496 </i>
    <i name="e_0_energy">   -349.85740713 </i>
   </energy>
  </scstep>
  <scstep>
   <time name="diag">    0.09    0.10</time>
   <time name="diis">    0.86    0.87</time>
   <time name="orth">    0.02    0.02</time>
   <time name="total">    1.04    1.11</time>
   <energy>
    <i name="e_fr_energy">   -349.85640878 </i>
    <i name="e_wo_entrp">   -349.85916286 </i>
    <i name="e_0_energy">   -349.85732681 </i>
   </energy>
  </scstep>
  <scstep>
   <time name="diag">    0.10    0.10</time>
   <time name="diis">    0.87    0.88</time>
   <time name="orth">    0.02    0.02</time>
   <time name="total">    1.05    1.10</time>
   <energy>
    <i name="e_fr_energy">   -349.85639327 </i>
    <i name="e_wo_entrp">   -349.85916072 </i>
    <i name="e_0_energy">   -349.85731575 </i>
   </energy>
  </scstep>
  <scstep>
   <time name="diag">    0.09    0.09</time>
   <time name="diis">    0.78    0.79</time>
   <time name="orth">    0.02    0.02</time>
   <time name="total">    0.96    1.01</time>
   <energy>
    <i name="e_fr_energy">   -349.85638347 </i>
    <i name="e_wo_entrp">   -349.85914800 </i>
    <i name="e_0_energy">   -349.85730498 </i>
   </energy>
  </scstep>
  <scstep>
   <time name="diag">    0.09    0.09</time>
   <time name="diis">    0.55    0.55</time>
   <time name="orth">    0.02    0.02</time>
   <time name="total">    0.69    0.74</time>
   <energy>
    <i name="alphaZ">   1714.27348474 </i>
    <i name="ewald"> -24609.92181939 </i>
    <i name="hartreedc">  -7945.16311667 </i>
    <i name="XCdc">    349.89314901 </i>
    <i name="pawpsdc">  39544.31216829 </i>
[...]
       <r>    7.6147    1.0000 </r>
       <r>    7.6761    1.0002 </r>
       <r>    7.7042    1.0005 </r>
       <r>    7.7558    1.0025 </r>
       <r>    7.7804    1.0046 </r>
       <r>    7.8414    1.0163 </r>
       <r>    7.8618    1.0223 </r>
       <r>    7.9023    1.0335 </r>
       <r>    7.9179    1.0354 </r>
       <r>    7.9601    1.0206 </r>
       <r>    7.9884    0.9828 </r>
       <r>    8.0283    0.8736 </r>
       <r>    8.0488    0.7907 </r>
       <r>    8.0948    0.5535 </r>
       <r>    8.1205    0.4089 </r>
       <r>    8.1495    0.2575 </r>
       <r>    8.1855    0.1078 </r>
       <r>    8.2272    0.0051 </r>
       <r>    8.2624   -0.0299 </r>
       <r>    8.2982   -0.0348 </r>
       <r>    8.3460   -0.0225 </r>
       <r>    8.3883   -0.0111 </r>
       <r>    8.4288   -0.0046 </r>
       <r>    8.4583   -0.0021 </r>
       <r>    8.5180   -0.0003 </r>
       <r>    8.5374   -0.0002 </r>
       <r>    8.6055   -0.0000 </r>
       <r>    8.6149   -0.0000 </r>
       <r>    8.6878   -0.0000 </r>
       <r>    8.7261   -0.0000 </r>
       <r>    8.7798   -0.0000 </r>
       <r>    8.8217   -0.0000 </r>
       <r>    8.9128   -0.0000 </r>
       <r>    8.9317   -0.0000 </r>
       <r>    8.9882   -0.0000 </r>
       <r>    9.0332   -0.0000 </r>
       <r>    9.1130   -0.0000 </r>
       <r>    9.2887   -0.0000 </r>
       <r>    9.3712   -0.0000 </r>
       <r>    9.4308   -0.0000 </r>
       <r>    9.8644   -0.0000 </r>
       <r>    9.9258   -0.0000 </r>
       <r>   10.0208   -0.0000 </r>
       <r>   10.0415   -0.0000 </r>
       <r>   10.0932   -0.0000 </r>
       <r>   10.1798   -0.0000 </r>
       <r>   10.2755   -0.0000 </r>
       <r>   10.2821   -0.0000 </r>
       <r>   10.3649   -0.0000 </r>
      </set>
     </set>
    </set>
   </array>
  </eigenvalues>
  <separator name="orbital magnetization" >
   <v name="MAGDIPOLOUT">      0.00000000      0.00000000      0.00000000</v>
  </separator>
  <dos>
   <i name="efermi">      8.10428302 </i>
   <total>
    <array>
     <dimension dim="1">gridpoints</dimension>
     <dimension dim="2">spin</dimension>
     <field>energy</field>
     <field>total</field>
     <field>integrated</field>
     <set>
      <set comment="spin 1">
       <r>   -49.0585     0.0000     0.0000 </r>
       <r>   -48.8509     0.0000     0.0000 </r>
       <r>   -48.6434     0.0000     0.0000 </r>
       <r>   -48.4358     0.0000     0.0000 </r>
       <r>   -48.2282     0.0000     0.0000 </r>
       <r>   -48.0206     0.0000     0.0000 </r>
       <r>   -47.8130     0.0000     0.0000 </r>
       <r>   -47.6054    -0.0000    -0.0000 </r>
       <r>   -47.3979    -0.0000    -0.0000 </r>
       <r>   -47.1903    -0.0000    -0.0000 </r>
       <r>   -46.9827    -0.0000    -0.0000 </r>
       <r>   -46.7751    -0.0000    -0.0000 </r>
       <r>   -46.5675    -0.0564    -0.0117 </r>
       <r>   -46.3599    -1.3429    -0.2905 </r>
       <r>   -46.1523    31.7725     6.3050 </r>
       <r>   -45.9448    61.2278    19.0149 </r>
       <r>   -45.7372     5.2951    20.1140 </r>
       <r>   -45.5296    -0.5472    20.0004 </r>
       <r>   -45.3220    -0.0021    20.0000 </r>
       <r>   -45.1144    -0.0000    20.0000 </r>
       <r>   -44.9068    -0.0000    20.0000 </r>
       <r>   -44.6993     0.0000    20.0000 </r>
       <r>   -44.4917     0.0000    20.0000 </r>
       <r>   -44.2841     0.0000    20.0000 </r>
       <r>   -44.0765     0.0000    20.0000 </r>
       <r>   -43.8689     0.0000    20.0000 </r>
       <r>   -43.6613     0.0000    20.0000 </r>
       <r>   -43.4538     0.0000    20.0000 </r>
       <r>   -43.2462     0.0000    20.0000 </r>
       <r>   -43.0386     0.0000    20.0000 </r>
       <r>   -42.8310     0.0000    20.0000 </r>
       <r>   -42.6234     0.0000    20.0000 </r>
       <r>   -42.4158     0.0000    20.0000 </r>
       <r>   -42.2083     0.0000    20.0000 </r>
       <r>   -42.0007     0.0000    20.0000 </r>
       <r>   -41.7931     0.0000    20.0000 </r>
       <r>   -41.5855    -0.0000    20.0000 </r>
       <r>   -41.3779    -0.0000    20.0000 </r>
       <r>   -41.1703    -0.0000    20.0000 </r>
       <r>   -40.9628    -0.0000    20.0000 </r>
       <r>   -40.7552    -0.0000    20.0000 </r>
       <r>   -40.5476    -0.0743    19.9846 </r>
       <r>   -40.3400    -1.9520    19.5794 </r>
       <r>   -40.1324    45.0632    28.9337 </r>
       <r>   -39.9248    68.8494    43.2258 </r>
       <r>   -39.7173     4.2457    44.1071 </r>
       <r>   -39.5097    -0.5133    44.0005 </r>
       <r>   -39.3021    -0.0026    44.0000 </r>
       <r>   -39.0945    -0.0000    44.0000 </r>
       <r>   -38.8869    -0.0000    44.0000 </r>
       <r>   -38.6793     0.0000    44.0000 </r>
       <r>   -38.4718     0.0000    44.0000 </r>
       <r>   -38.2642     0.0000    44.0000 </r>
       <r>   -38.0566     0.0000    44.0000 </r>
       <r>   -37.8490     0.0000    44.0000 </r>
       <r>   -37.6414     0.0000    44.0000 </r>
       <r>   -37.4338     0.0000    44.0000 </r>
       <r>   -37.2262     0.0000    44.0000 </r>
       <r>   -37.0187     0.0000    44.0000 </r>
       <r>   -36.8111     0.0000    44.0000 </r>
       <r>   -36.6035     0.0000    44.0000 </r>
       <r>   -36.3959     0.0000    44.0000 </r>
       <r>   -36.1883     0.0000    44.0000 </r>
       <r>   -35.9807     0.0000    44.0000 </r>
       <r>   -35.7732     0.0000    44.0000 </r>
       <r>   -35.5656     0.0000    44.0000 </r>
       <r>   -35.3580     0.0000    44.0000 </r>
       <r>   -35.1504     0.0000    44.0000 </r>
       <r>   -34.9428     0.0000    44.0000 </r>
       <r>   -34.7352     0.0000    44.0000 </r>
       <r>   -34.5277     0.0000    44.0000 </r>
       <r>   -34.3201     0.0000    44.0000 </r>
       <r>   -34.1125     0.0000    44.0000 </r>
       <r>   -33.9049     0.0000    44.0000 </r>
       <r>   -33.6973     0.0000    44.0000 </r>
       <r>   -33.4897     0.0000    44.0000 </r>
       <r>   -33.2822     0.0000    44.0000 </r>
       <r>   -33.0746     0.0000    44.0000 </r>
       <r>   -32.8670     0.0000    44.0000 </r>
       <r>   -32.6594     0.0000    44.0000 </r>
       <r>   -32.4518     0.0000    44.0000 </r>
       <r>   -32.2442     0.0000    44.0000 </r>
       <r>   -32.0367     0.0000    44.0000 </r>
       <r>   -31.8291     0.0000    44.0000 </r>
       <r>   -31.6215     0.0000    44.0000 </r>
       <r>   -31.4139     0.0000    44.0000 </r>
       <r>   -31.2063     0.0000    44.0000 </r>
       <r>   -30.9987     0.0000    44.0000 </r>
       <r>   -30.7912     0.0000    44.0000 </r>
       <r>   -30.5836     0.0000    44.0000 </r>
       <r>   -30.3760     0.0000    44.0000 </r>
       <r>   -30.1684     0.0000    44.0000 </r>
       <r>   -29.9608     0.0000    44.0000 </r>
       <r>   -29.7532     0.0000    44.0000 </r>
       <r>   -29.5457     0.0000    44.0000 </r>
       <r>   -29.3381     0.0000    44.0000 </r>
       <r>   -29.1305     0.0000    44.0000 </r>
       <r>   -28.9229     0.0000    44.0000 </r>
       <r>   -28.7153     0.0000    44.0000 </r>
       <r>   -28.5077     0.0000    44.0000 </r>
       <r>   -28.3001     0.0000    44.0000 </r>
       <r>   -28.0926     0.0000    44.0000 </r>
       <r>   -27.8850     0.0000    44.0000 </r>
       <r>   -27.6774     0.0000    44.0000 </r>
       <r>   -27.4698     0.0000    44.0000 </r>
       <r>   -27.2622     0.0000    44.0000 </r>
       <r>   -27.0546     0.0000    44.0000 </r>
       <r>   -26.8471     0.0000    44.0000 </r>
       <r>   -26.6395     0.0000    44.0000 </r>
       <r>   -26.4319     0.0000    44.0000 </r>
       <r>   -26.2243     0.0000    44.0000 </r>
       <r>   -26.0167     0.0000    44.0000 </r>
       <r>   -25.8091     0.0000    44.0000 </r>
       <r>   -25.6016     0.0000    44.0000 </r>
       <r>   -25.3940     0.0000    44.0000 </r>
       <r>   -25.1864     0.0000    44.0000 </r>
       <r>   -24.9788     0.0000    44.0000 </r>
       <r>   -24.7712     0.0000    44.0000 </r>
       <r>   -24.5636     0.0000    44.0000 </r>
       <r>   -24.3561     0.0000    44.0000 </r>
       <r>   -24.1485     0.0000    44.0000 </r>
       <r>   -23.9409    -0.0000    44.0000 </r>
       <r>   -23.7333    -0.0000    44.0000 </r>
       <r>   -23.5257    -0.0000    44.0000 </r>
       <r>   -23.3181    -0.0000    44.0000 </r>
       <r>   -23.1106    -0.0005    43.9999 </r>
       <r>   -22.9030    -0.2624    43.9454 </r>
       <r>   -22.6954     1.7337    44.3053 </r>
       <r>   -22.4878    37.7420    52.1399 </r>
       <r>   -22.2802    79.8824    68.7222 </r>
       <r>   -22.0726   102.0815    89.9127 </r>
       <r>   -21.8651    53.1209   100.9397 </r>
       <r>   -21.6575    15.5231   104.1621 </r>
       <r>   -21.4499    -0.7517   104.0060 </r>
       <r>   -21.2423    -0.0291   104.0000 </r>
       <r>   -21.0347    -0.0000   104.0000 </r>
       <r>   -20.8271    -0.0000   104.0000 </r>
       <r>   -20.6196     0.0000   104.0000 </r>
       <r>   -20.4120     0.0000   104.0000 </r>
       <r>   -20.2044     0.0000   104.0000 </r>
       <r>   -19.9968    -0.0000   104.0000 </r>
       <r>   -19.7892    -0.0000   104.0000 </r>
       <r>   -19.5816    -0.0000   104.0000 </r>
       <r>   -19.3740    -0.0000   104.0000 </r>
       <r>   -19.1665    -0.0002   104.0000 </r>
       <r>   -18.9589    -0.1288   103.9732 </r>
       <r>   -18.7513     0.4120   104.0587 </r>
       <r>   -18.5437    23.6704   108.9723 </r>
       <r>   -18.3361    63.5320   122.1605 </r>
       <r>   -18.1285   116.7278   146.3913 </r>
       <r>   -17.9210   115.4681   170.3606 </r>
       <r>   -17.7134    28.3351   176.2426 </r>
       <r>   -17.5058    -1.0983   176.0146 </r>
       <r>   -17.2982    -0.0701   176.0000 </r>
       <r>   -17.0906    -0.0001   176.0000 </r>
       <r>   -16.8830    -0.0000   176.0000 </r>
       <r>   -16.6755     0.0000   176.0000 </r>
       <r>   -16.4679     0.0000   176.0000 </r>
       <r>   -16.2603     0.0000   176.0000 </r>
       <r>   -16.0527     0.0000   176.0000 </r>
       <r>   -15.8451     0.0000   176.0000 </r>
       <r>   -15.6375     0.0000   176.0000 </r>
       <r>   -15.4300     0.0000   176.0000 </r>
       <r>   -15.2224     0.0000   176.0000 </r>
       <r>   -15.0148     0.0000   176.0000 </r>
       <r>   -14.8072     0.0000   176.0000 </r>
       <r>   -14.5996     0.0000   176.0000 </r>
       <r>   -14.3920     0.0000   176.0000 </r>
       <r>   -14.1845     0.0000   176.0000 </r>
       <r>   -13.9769     0.0000   176.0000 </r>
       <r>   -13.7693     0.0000   176.0000 </r>
       <r>   -13.5617     0.0000   176.0000 </r>
       <r>   -13.3541     0.0000   176.0000 </r>
       <r>   -13.1465     0.0000   176.0000 </r>
       <r>   -12.9390     0.0000   176.0000 </r>
       <r>   -12.7314     0.0000   176.0000 </r>
       <r>   -12.5238     0.0000   176.0000 </r>
       <r>   -12.3162     0.0000   176.0000 </r>
       <r>   -12.1086     0.0000   176.0000 </r>
       <r>   -11.9010     0.0000   176.0000 </r>
       <r>   -11.6935     0.0000   176.0000 </r>
       <r>   -11.4859     0.0000   176.0000 </r>
       <r>   -11.2783     0.0000   176.0000 </r>
       <r>   -11.0707     0.0000   176.0000 </r>
       <r>   -10.8631     0.0000   176.0000 </r>
       <r>   -10.6555     0.0000   176.0000 </r>
       <r>   -10.4479     0.0000   176.0000 </r>
       <r>   -10.2404     0.0000   176.0000 </r>
       <r>   -10.0328     0.0000   176.0000 </r>
       <r>    -9.8252     0.0000   176.0000 </r>
       <r>    -9.6176     0.0000   176.0000 </r>
       <r>    -9.4100     0.0000   176.0000 </r>
       <r>    -9.2024     0.0000   176.0000 </r>
       <r>    -8.9949     0.0000   176.0000 </r>
       <r>    -8.7873     0.0000   176.0000 </r>
       <r>    -8.5797     0.0000   176.0000 </r>
       <r>    -8.3721     0.0000   176.0000 </r>
       <r>    -8.1645     0.0000   176.0000 </r>
       <r>    -7.9569     0.0000   176.0000 </r>
       <r>    -7.7494     0.0000   176.0000 </r>
       <r>    -7.5418     0.0000   176.0000 </r>
       <r>    -7.3342     0.0000   176.0000 </r>
       <r>    -7.1266     0.0000   176.0000 </r>
       <r>    -6.9190     0.0000   176.0000 </r>
       <r>    -6.7114     0.0000   176.0000 </r>
       <r>    -6.5039     0.0000   176.0000 </r>
       <r>    -6.2963     0.0000   176.0000 </r>
       <r>    -6.0887     0.0000   176.0000 </r>
       <r>    -5.8811     0.0000   176.0000 </r>
       <r>    -5.6735     0.0000   176.0000 </r>
       <r>    -5.4659     0.0000   176.0000 </r>
       <r>    -5.2584     0.0000   176.0000 </r>
       <r>    -5.0508     0.0000   176.0000 </r>
       <r>    -4.8432     0.0000   176.0000 </r>
       <r>    -4.6356     0.0000   176.0000 </r>
       <r>    -4.4280     0.0000   176.0000 </r>
       <r>    -4.2204     0.0000   176.0000 </r>
       <r>    -4.0129     0.0000   176.0000 </r>
       <r>    -3.8053     0.0000   176.0000 </r>
       <r>    -3.5977     0.0000   176.0000 </r>
       <r>    -3.3901     0.0000   176.0000 </r>
       <r>    -3.1825     0.0000   176.0000 </r>
       <r>    -2.9749     0.0000   176.0000 </r>
       <r>    -2.7674     0.0000   176.0000 </r>
       <r>    -2.5598     0.0000   176.0000 </r>
       <r>    -2.3522     0.0000   176.0000 </r>
       <r>    -2.1446     0.0000   176.0000 </r>
       <r>    -1.9370     0.0000   176.0000 </r>
       <r>    -1.7294     0.0000   176.0000 </r>
       <r>    -1.5218     0.0000   176.0000 </r>
       <r>    -1.3143     0.0000   176.0000 </r>
       <r>    -1.1067     0.0000   176.0000 </r>
       <r>    -0.8991     0.0000   176.0000 </r>
       <r>    -0.6915     0.0000   176.0000 </r>
       <r>    -0.4839     0.0000   176.0000 </r>
       <r>    -0.2763     0.0000   176.0000 </r>
       <r>    -0.0688     0.0000   176.0000 </r>
       <r>     0.1388     0.0000   176.0000 </r>
       <r>     0.3464    -0.0000   176.0000 </r>
       <r>     0.5540    -0.0000   176.0000 </r>
       <r>     0.7616    -0.0000   176.0000 </r>
       <r>     0.9692    -0.0000   176.0000 </r>
       <r>     1.1767    -0.0000   176.0000 </r>
       <r>     1.3843    -0.0063   175.9987 </r>
       <r>     1.5919     0.0636   176.0119 </r>
       <r>     1.7995     0.6067   176.1378 </r>
       <r>     2.0071     1.5329   176.4560 </r>
       <r>     2.2147     1.7948   176.8286 </r>
       <r>     2.4222     2.9311   177.4371 </r>
       <r>     2.6298     4.2607   178.3215 </r>
       <r>     2.8374     1.5005   178.6330 </r>
       <r>     3.0450     5.1236   179.6965 </r>
       <r>     3.2526     2.9111   180.3008 </r>
       <r>     3.4602     4.8317   181.3038 </r>
       <r>     3.6677     6.7162   182.6980 </r>
       <r>     3.8753     8.0877   184.3769 </r>
       <r>     4.0829     7.8072   185.9975 </r>
       <r>     4.2905     8.2678   187.7138 </r>
       <r>     4.4981    11.5564   190.1127 </r>
       <r>     4.7057    17.3840   193.7213 </r>
       <r>     4.9132    22.4336   198.3782 </r>
       <r>     5.1208    26.0936   203.7948 </r>
       <r>     5.3284    31.5592   210.3460 </r>
       <r>     5.5360    38.4857   218.3350 </r>
       <r>     5.7436    41.0653   226.8595 </r>
       <r>     5.9512    41.8713   235.5513 </r>
       <r>     6.1587    35.8512   242.9934 </r>
       <r>     6.3663    35.7415   250.4128 </r>
       <r>     6.5739    27.0226   256.0222 </r>
       <r>     6.7815    31.1110   262.4804 </r>
       <r>     6.9891    55.3916   273.9788 </r>
       <r>     7.1967    60.5346   286.5448 </r>
       <r>     7.4043    57.2707   298.4332 </r>
       <r>     7.6118    52.3044   309.2908 </r>
       <r>     7.8194    55.6530   320.8434 </r>
       <r>     8.0270    50.2514   331.2748 </r>
       <r>     8.2346    48.6319   341.3700 </r>
       <r>     8.4422    48.4518   351.4278 </r>
       <r>     8.6498    46.6123   361.1038 </r>
       <r>     8.8573    40.4914   369.5091 </r>
       <r>     9.0649    34.5372   376.6785 </r>
       <r>     9.2725    25.5328   381.9787 </r>
       <r>     9.4801    20.1174   386.1547 </r>
       <r>     9.6877    15.9628   389.4683 </r>
       <r>     9.8953    25.8041   394.8248 </r>
       <r>    10.1028    34.0190   401.8866 </r>
       <r>    10.3104    23.3065   406.7247 </r>
       <r>    10.5180     6.5369   408.0816 </r>
       <r>    10.7256    -0.3851   408.0017 </r>
       <r>    10.9332    -0.0082   408.0000 </r>
       <r>    11.1408    -0.0000   408.0000 </r>
       <r>    11.3483    -0.0000   408.0000 </r>
       <r>    11.5559     0.0000   408.0000 </r>
       <r>    11.7635     0.0000   408.0000 </r>
       <r>    11.9711     0.0000   408.0000 </r>
       <r>    12.1787     0.0000   408.0000 </r>
       <r>    12.3863     0.0000   408.0000 </r>
       <r>    12.5938     0.0000   408.0000 </r>
       <r>    12.8014     0.0000   408.0000 </r>
       <r>    13.0090     0.0000   408.0000 </r>
       <r>    13.2166     0.0000   408.0000 </r>
      </set>
     </set>
    </array>
   </total>
  </dos>
 </calculation>
 <structure name="finalpos" >
  <crystal>
   <varray name="basis" >
    <v>       6.99516758       0.00153541      -0.00967315 </v>
    <v>       0.00195190      10.33535273       0.02124163 </v>
    <v>      -0.01423767       0.02101805      10.25126329 </v>
   </varray>
   <i name="volume">    741.13637879 </i>
   <varray name="rec_basis" >
    <v>       0.14295611      -0.00002741       0.00019860 </v>
    <v>      -0.00002151       0.09675570      -0.00019841 </v>
    <v>       0.00013494      -0.00020051       0.09754955 </v>
   </varray>
  </crystal>
  <varray name="positions" >
   <v>       0.73093521       0.49996809       0.17732413 </v>
   <v>       0.52378450       0.66560786       0.00827221 </v>
   <v>       0.00102071       0.99572531       0.33385728 </v>
   <v>       0.04026051       0.99673429       0.64968142 </v>
   <v>       0.50609888       0.67091249       0.33528329 </v>
   <v>       0.48802075       0.99318177       0.34945833 </v>
   <v>       0.73865932       0.82593595       0.18726659 </v>
   <v>       0.23373773       0.16823556       0.48756586 </v>
   <v>       0.49191075       0.33334170       0.34835303 </v>
   <v>       0.26995010       0.49784953       0.84868700 </v>
   <v>       0.98997229       0.33034292       0.31624302 </v>
   <v>       0.03184502       0.33800988       0.67154381 </v>
   <v>       0.98443745       0.67426904       0.31783064 </v>
   <v>       0.23990511       0.83288866       0.48100345 </v>
   <v>       0.50769133       0.34643201       0.99405786 </v>
   <v>       0.25861298       0.16604802       0.17003111 </v>
   <v>       0.97179389      -0.00001512       0.02220388 </v>
   <v>       0.75962667       0.16510586       0.50172873 </v>
   <v>       0.24773031       0.16436553       0.84269595 </v>
   <v>       0.76812170       0.16978546       0.81838069 </v>
   <v>       0.25767197       0.50311322       0.16938633 </v>
   <v>       0.53741795       0.99043979       0.00178923 </v>
   <v>       0.72180559       0.17699352       0.18383733 </v>
   <v>       0.74461328       0.49685410       0.82192869 </v>
   <v>       0.47589432       0.66621331       0.65796578 </v>
   <v>       0.47496826       0.33239086       0.65683937 </v>
   <v>       0.76571649       0.83478597       0.81274418 </v>
   <v>       0.98688638       0.34287344       0.00845775 </v>
   <v>       0.97917620       0.66152408       0.00566591 </v>
   <v>       0.25812655       0.83131904       0.16771576 </v>
   <v>       0.47185785       0.99856295       0.65362827 </v>
   <v>       0.76107748       0.83202701       0.50144976 </v>
   <v>       0.22561913       0.49713080       0.47613199 </v>
   <v>       0.03818896       0.66183511       0.67348805 </v>
   <v>       0.76497750       0.50042300       0.49304872 </v>
   <v>       0.25189592       0.83879398       0.85445061 </v>
  </varray>
 </structure>
</modeling>
