<?xml version="1.0" encoding="ISO-8859-1"?>
<modeling>
 <generator>
  <i name="program" type="string">vasp </i>
  <i name="version" type="string">5.4.1  </i>
  <i name="subversion" type="string">05Feb16 (build Jan 29 2020 16:04:39) complex                          parallel </i>
  <i name="platform" type="string">IFC91_ompi </i>
  <i name="date" type="string">2020 06 15 </i>
  <i name="time" type="string">04:27:33 </i>
 </generator>
 <incar>
  <i type="string" name="SYSTEM"> automatically generated by mexm</i>
  <i type="int" name="ISTART">     0</i>
  <i type="string" name="PREC">accurate               ! avoid wrap aro</i>
  <i type="string" name="ALGO"> Fast                   ! blocked Davids</i>
  <i type="int" name="ISPIN">     1</i>
  <i type="int" name="ICHARG">     2</i>
  <i type="int" name="NELM">    70</i>
  <i type="int" name="IBRION">     2</i>
  <i name="EDIFF">      0.00001000</i>
  <i name="EDIFFG">     -0.01000000</i>
  <i type="int" name="NSW">   300</i>
  <i type="int" name="ISIF">     3</i>
  <i type="int" name="ISYM">     1</i>
  <i name="ENCUT">    300.00000000</i>
  <i name="POTIM">      0.15000000</i>
  <i type="string" name="LREAL"> Auto                  ! unpublished met</i>
  <i type="int" name="ISMEAR">     1</i>
  <i name="SIGMA">      0.15000000</i>
  <i type="logical" name="LWAVE"> F  </i>
  <i type="logical" name="LCHARG"> F  </i>
  <i type="logical" name="LVTOT"> F  </i>
  <v type="int" name="KPOINT_BSE">    -1     0     0     0</v>
  <i type="int" name="NELM">    70</i>
 </incar>
 <kpoints>
  <generation param="Gamma">
   <v type="int" name="divisions">       3        3        3 </v>
   <v name="usershift">      0.00000000       0.00000000       0.00000000 </v>
   <v name="genvec1">      0.33333333      -0.00000000       0.00000000 </v>
   <v name="genvec2">      0.00000000       0.33333333      -0.00000000 </v>
   <v name="genvec3">      0.00000000       0.00000000       0.33333333 </v>
   <v name="shift">      0.00000000       0.00000000       0.00000000 </v>
  </generation>
  <varray name="kpointlist" >
   <v>       0.00000000       0.00000000       0.00000000 </v>
   <v>       0.33333333       0.00000000      -0.00000000 </v>
   <v>       0.00000000       0.33333333       0.00000000 </v>
   <v>       0.33333333       0.33333333      -0.00000000 </v>
   <v>      -0.33333333       0.33333333       0.00000000 </v>
   <v>      -0.00000000      -0.00000000       0.33333333 </v>
   <v>       0.33333333      -0.00000000       0.33333333 </v>
   <v>      -0.33333333      -0.00000000       0.33333333 </v>
   <v>      -0.00000000       0.33333333       0.33333333 </v>
   <v>       0.33333333       0.33333333       0.33333333 </v>
   <v>      -0.33333333       0.33333333       0.33333333 </v>
   <v>       0.00000000      -0.33333333       0.33333333 </v>
   <v>       0.33333333      -0.33333333       0.33333333 </v>
   <v>      -0.33333333      -0.33333333       0.33333333 </v>
  </varray>
  <varray name="weights" >
   <v>       0.03703704 </v>
   <v>       0.07407407 </v>
   <v>       0.07407407 </v>
   <v>       0.07407407 </v>
   <v>       0.07407407 </v>
   <v>       0.07407407 </v>
   <v>       0.07407407 </v>
   <v>       0.07407407 </v>
   <v>       0.07407407 </v>
   <v>       0.07407407 </v>
   <v>       0.07407407 </v>
   <v>       0.07407407 </v>
   <v>       0.07407407 </v>
   <v>       0.07407407 </v>
  </varray>
 </kpoints>
 <parameters>
  <separator name="general" >
   <i type="string" name="SYSTEM">automatically generated by mexm</i>
   <i type="logical" name="LCOMPAT"> F  </i>
  </separator>
  <separator name="electronic" >
   <i type="string" name="PREC">accura</i>
   <i name="ENMAX">    300.00000000</i>
   <i name="ENAUG">    461.25700000</i>
   <i name="EDIFF">      0.00001000</i>
   <i type="int" name="IALGO">    68</i>
   <i type="int" name="IWAVPR">    11</i>
   <i type="int" name="NBANDS">   172</i>
   <i name="NELECT">    286.00000000</i>
   <i type="int" name="TURBO">     0</i>
   <i type="int" name="IRESTART">     0</i>
   <i type="int" name="NREBOOT">     0</i>
   <i type="int" name="NMIN">     0</i>
   <i name="EREF">      0.00000000</i>
   <separator name="electronic smearing" >
    <i type="int" name="ISMEAR">     1</i>
    <i name="SIGMA">      0.15000000</i>
    <i name="KSPACING">      0.50000000</i>
    <i type="logical" name="KGAMMA"> T  </i>
   </separator>
   <separator name="electronic projectors" >
    <i type="logical" name="LREAL"> T  </i>
    <v name="ROPT">     -0.00025000     -0.00025000     -0.00025000     -0.00025000</v>
    <i type="int" name="LMAXPAW">  -100</i>
    <i type="int" name="LMAXMIX">     2</i>
    <i type="logical" name="NLSPLINE"> F  </i>
   </separator>
   <separator name="electronic startup" >
    <i type="int" name="ISTART">     0</i>
    <i type="int" name="ICHARG">     2</i>
    <i type="int" name="INIWAV">     1</i>
   </separator>
   <separator name="electronic spin" >
    <i type="int" name="ISPIN">     1</i>
    <i type="logical" name="LNONCOLLINEAR"> F  </i>
    <v name="MAGMOM">      1.00000000      1.00000000      1.00000000      1.00000000      1.00000000      1.00000000      1.00000000      1.00000000      1.00000000      1.00000000      1.00000000      1.00000000      1.00000000      1.00000000      1.00000000      1.00000000      1.00000000      1.00000000      1.00000000      1.00000000
      1.00000000      1.00000000      1.00000000      1.00000000      1.00000000      1.00000000      1.00000000      1.00000000      1.00000000      1.00000000      1.00000000      1.00000000      1.00000000      1.00000000      1.00000000      1.00000000</v>
    <i name="NUPDOWN">     -1.00000000</i>
    <i type="logical" name="LSORBIT"> F  </i>
    <v name="SAXIS">      0.00000000      0.00000000      1.00000000</v>
    <i type="logical" name="LSPIRAL"> F  </i>
    <v name="QSPIRAL">      0.00000000      0.00000000      0.00000000</v>
    <i type="logical" name="LZEROZ"> F  </i>
   </separator>
   <separator name="electronic exchange-correlation" >
    <i type="logical" name="LASPH"> F  </i>
    <i type="logical" name="LMETAGGA"> F  </i>
   </separator>
   <separator name="electronic convergence" >
    <i type="int" name="NELM">    70</i>
    <i type="int" name="NELMDL">    -5</i>
    <i type="int" name="NELMIN">     2</i>
    <i name="ENINI">    300.00000000</i>
    <separator name="electronic convergence detail" >
     <i type="logical" name="LDIAG"> T  </i>
     <i type="logical" name="LSUBROT"> F  </i>
     <i name="WEIMIN">      0.00100000</i>
     <i name="EBREAK">      0.00000001</i>
     <i name="DEPER">      0.30000000</i>
     <i type="int" name="NRMM">     4</i>
     <i name="TIME">      0.40000000</i>
    </separator>
   </separator>
   <separator name="electronic mixer" >
    <i name="AMIX">      0.40000000</i>
    <i name="BMIX">      1.00000000</i>
    <i name="AMIN">      0.10000000</i>
    <i name="AMIX_MAG">      1.60000000</i>
    <i name="BMIX_MAG">      1.00000000</i>
    <separator name="electronic mixer details" >
     <i type="int" name="IMIX">     4</i>
     <i type="logical" name="MIXFIRST"> F  </i>
     <i type="int" name="MAXMIX">   -45</i>
     <i name="WC">    100.00000000</i>
     <i type="int" name="INIMIX">     1</i>
     <i type="int" name="MIXPRE">     1</i>
     <i type="int" name="MREMOVE">     5</i>
    </separator>
   </separator>
   <separator name="electronic dipolcorrection" >
    <i type="logical" name="LDIPOL"> F  </i>
    <i type="logical" name="LMONO"> F  </i>
    <i type="int" name="IDIPOL">     0</i>
    <i name="EPSILON">      1.00000000</i>
    <v name="DIPOL">   -100.00000000   -100.00000000   -100.00000000</v>
    <i name="EFIELD">      0.00000000</i>
   </separator>
  </separator>
  <separator name="grids" >
   <i type="int" name="NGX">    40</i>
   <i type="int" name="NGY">    60</i>
   <i type="int" name="NGZ">    60</i>
   <i type="int" name="NGXF">    80</i>
   <i type="int" name="NGYF">   120</i>
   <i type="int" name="NGZF">   120</i>
   <i type="logical" name="ADDGRID"> F  </i>
  </separator>
  <separator name="ionic" >
   <i type="int" name="NSW">   300</i>
   <i type="int" name="IBRION">     2</i>
   <i type="int" name="ISIF">     3</i>
   <i name="PSTRESS">      0.00000000</i>
   <i name="EDIFFG">     -0.01000000</i>
   <i type="int" name="NFREE">     1</i>
   <i name="POTIM">      0.15000000</i>
   <i name="SMASS">     -3.00000000</i>
   <i name="SCALEE">      1.00000000</i>
  </separator>
  <separator name="ionic md" >
   <i name="TEBEG">      0.00010000</i>
   <i name="TEEND">      0.00010000</i>
   <i type="int" name="NBLOCK">     1</i>
   <i type="int" name="KBLOCK">   300</i>
   <i type="int" name="NPACO">   256</i>
   <i name="APACO">     16.00000000</i>
  </separator>
  <separator name="symmetry" >
   <i type="int" name="ISYM">     1</i>
   <i name="SYMPREC">      0.00001000</i>
  </separator>
  <separator name="dos" >
   <i type="logical" name="LORBIT"> F  </i>
   <v name="RWIGS">     -1.00000000     -1.00000000     -1.00000000     -1.00000000</v>
   <i type="int" name="NEDOS">   301</i>
   <i name="EMIN">     10.00000000</i>
   <i name="EMAX">    -10.00000000</i>
   <i name="EFERMI">      0.00000000</i>
  </separator>
  <separator name="writing" >
   <i type="int" name="NWRITE">     2</i>
   <i type="logical" name="LWAVE"> F  </i>
   <i type="logical" name="LCHARG"> F  </i>
   <i type="logical" name="LPARD"> F  </i>
   <i type="logical" name="LVTOT"> F  </i>
   <i type="logical" name="LVHAR"> F  </i>
   <i type="logical" name="LELF"> F  </i>
   <i type="logical" name="LOPTICS"> F  </i>
   <v name="STM">      0.00000000      0.00000000      0.00000000      0.00000000      0.00000000      0.00000000      0.00000000</v>
  </separator>
  <separator name="performance" >
   <i type="int" name="NPAR">     4</i>
   <i type="int" name="NSIM">     4</i>
   <i type="int" name="NBLK">    -1</i>
   <i type="logical" name="LPLANE"> T  </i>
   <i type="logical" name="LSCALAPACK"> T  </i>
   <i type="logical" name="LSCAAWARE"> F  </i>
   <i type="logical" name="LSCALU"> F  </i>
   <i type="logical" name="LASYNC"> F  </i>
   <i type="logical" name="LORBITALREAL"> F  </i>
  </separator>
  <separator name="miscellaneous" >
   <i type="int" name="IDIOT">     3</i>
   <i type="logical" name="LMUSIC"> F  </i>
   <v name="POMASS">    178.49000000     91.22400000     92.91000000    180.94800000</v>
   <v name="DARWINR">      0.00000000      0.00000000      0.00000000      0.00000000</v>
   <v name="DARWINV">      1.00000000      1.00000000      1.00000000      1.00000000</v>
   <i type="logical" name="LCORR"> T  </i>
  </separator>
  <i type="logical" name="GGA_COMPAT"> T  </i>
  <i type="logical" name="LBERRY"> F  </i>
  <i type="int" name="ICORELEVEL">     0</i>
  <i type="logical" name="LDAU"> F  </i>
  <i type="int" name="I_CONSTRAINED_M">     0</i>
  <separator name="electronic exchange-correlation" >
   <i type="string" name="GGA">--</i>
   <i type="int" name="VOSKOWN">     0</i>
   <i type="logical" name="LHFCALC"> F  </i>
   <i type="string" name="PRECFOCK"></i>
   <i type="logical" name="LSYMGRAD"> F  </i>
   <i type="logical" name="LHFONE"> F  </i>
   <i type="logical" name="LRHFCALC"> F  </i>
   <i type="logical" name="LTHOMAS"> F  </i>
   <i type="logical" name="LMODELHF"> F  </i>
   <i name="ENCUT4O">     -1.00000000</i>
   <i type="int" name="EXXOEP">     0</i>
   <i type="int" name="FOURORBIT">     0</i>
   <i name="AEXX">      0.00000000</i>
   <i name="HFALPHA">      0.00000000</i>
   <i name="MCALPHA">      0.00000000</i>
   <i name="ALDAX">      1.00000000</i>
   <i name="AGGAX">      1.00000000</i>
   <i name="ALDAC">      1.00000000</i>
   <i name="AGGAC">      1.00000000</i>
   <i type="int" name="NKREDX">     1</i>
   <i type="int" name="NKREDY">     1</i>
   <i type="int" name="NKREDZ">     1</i>
   <i type="logical" name="SHIFTRED"> F  </i>
   <i type="logical" name="ODDONLY"> F  </i>
   <i type="logical" name="EVENONLY"> F  </i>
   <i type="int" name="LMAXFOCK">     0</i>
   <i type="int" name="NMAXFOCKAE">     0</i>
   <i type="logical" name="LFOCKAEDFT"> F  </i>
   <i name="HFSCREEN">      0.00000000</i>
   <i name="HFSCREENC">      0.00000000</i>
   <i type="int" name="NBANDSGWLOW">     0</i>
  </separator>
  <separator name="vdW DFT" >
   <i type="logical" name="LUSE_VDW"> F  </i>
   <i name="Zab_VDW">     -0.84910000</i>
   <i name="PARAM1">      0.12340000</i>
   <i name="PARAM2">      1.00000000</i>
   <i name="PARAM3">      0.00000000</i>
  </separator>
  <separator name="model GW" >
   <i type="int" name="MODEL_GW">     0</i>
   <i name="MODEL_EPS0">     12.34258066</i>
   <i name="MODEL_ALPHA">      1.00000000</i>
  </separator>
  <separator name="linear response parameters" >
   <i type="logical" name="LEPSILON"> F  </i>
   <i type="logical" name="LRPA"> F  </i>
   <i type="logical" name="LNABLA"> F  </i>
   <i type="logical" name="LVEL"> F  </i>
   <i type="int" name="KINTER">     0</i>
   <i name="CSHIFT">      0.10000000</i>
   <i name="OMEGAMAX">     -1.00000000</i>
   <i name="DEG_THRESHOLD">      0.00200000</i>
  </separator>
  <separator name="orbital magnetization" >
   <i type="logical" name="NUCIND"> F  </i>
   <v name="MAGPOS">      0.00000000      0.00000000      0.00000000</v>
   <i type="logical" name="LNICSALL"> T  </i>
   <i type="logical" name="ORBITALMAG"> F  </i>
   <i type="logical" name="LMAGBLOCH"> F  </i>
   <i type="logical" name="LCHIMAG"> F  </i>
   <i type="logical" name="LGAUGE"> T  </i>
   <i type="int" name="MAGATOM">     0</i>
   <v name="MAGDIPOL">      0.00000000      0.00000000      0.00000000</v>
   <v name="AVECCONST">      0.00000000      0.00000000      0.00000000</v>
  </separator>
  <separator name="response functions" >
   <i type="logical" name="LADDER"> F  </i>
   <i type="logical" name="LFXC"> F  </i>
   <i type="logical" name="LHARTREE"> T  </i>
   <i type="int" name="IBSE">     0</i>
   <v type="int" name="KPOINT">    -1     0     0     0</v>
   <i type="logical" name="LTCTE"> F  </i>
   <i type="logical" name="LTETE"> F  </i>
   <i type="logical" name="LTRIPLET"> F  </i>
   <i type="logical" name="LFXCEPS"> F  </i>
   <i type="logical" name="LFXHEG"> F  </i>
   <i type="int" name="NATURALO">     0</i>
   <i type="logical" name="L2ORDER"> F  </i>
   <i type="logical" name="LUSEW"> F  </i>
   <i name="ENCUTGW">     -2.00000000</i>
   <i name="ENCUTGWSOFT">     -2.00000000</i>
   <i name="ENCUTLF">     -1.00000000</i>
   <i type="int" name="LMAXMP2">    -1</i>
   <i name="SCISSOR">      0.00000000</i>
   <i type="int" name="NOMEGA">     0</i>
   <i type="int" name="NOMEGAR">     0</i>
   <i type="int" name="NBANDSGW">    -1</i>
   <i type="int" name="NBANDSO">    -1</i>
   <i type="int" name="NBANDSV">    -1</i>
   <i type="int" name="NELM">    70</i>
   <i type="int" name="NELMHF">     1</i>
   <i type="int" name="DIM">     3</i>
   <i type="int" name="ANTIRES">     0</i>
   <i name="OMEGAMAX">    -30.00000000</i>
   <i name="OMEGAMIN">    -30.00000000</i>
   <i name="OMEGATL">   -200.00000000</i>
   <i type="int" name="OMEGAGRID">     0</i>
   <i name="CSHIFT">     -0.10000000</i>
   <i type="logical" name="SELFENERGY"> F  </i>
   <i type="logical" name="LSPECTRAL"> F  </i>
   <i type="logical" name="LSPECTRALGW"> F  </i>
   <i type="logical" name="LSINGLES"> F  </i>
   <i type="logical" name="LFERMIGW"> F  </i>
   <i type="logical" name="ODDONLYGW"> F  </i>
   <i type="logical" name="EVENONLYGW"> F  </i>
   <i type="int" name="NKREDLFX">     1</i>
   <i type="int" name="NKREDLFY">     1</i>
   <i type="int" name="NKREDLFZ">     1</i>
   <i type="int" name="MAXMEM">  1800</i>
   <i type="int" name="TELESCOPE">     0</i>
   <i type="int" name="TAUPAR">     1</i>
   <i type="int" name="OMEGAPAR">    -1</i>
   <i name="LAMBDA">      1.00000000</i>
  </separator>
  <separator name="External order field" >
   <i name="OFIELD_KAPPA">      0.00000000</i>
   <v name="OFIELD_K">      0.00000000      0.00000000      0.00000000</v>
   <i name="OFIELD_Q6_NEAR">      0.00000000</i>
   <i name="OFIELD_Q6_FAR">      0.00000000</i>
   <i name="OFIELD_A">      0.00000000</i>
  </separator>
 </parameters>
 <atominfo>
  <atoms>      36 </atoms>
  <types>       4 </types>
  <array name="atoms" >
   <dimension dim="1">ion</dimension>
   <field type="string">element</field>
   <field type="int">atomtype</field>
   <set>
    <rc><c>Hf</c><c>   1</c></rc>
    <rc><c>Hf</c><c>   1</c></rc>
    <rc><c>Hf</c><c>   1</c></rc>
    <rc><c>Hf</c><c>   1</c></rc>
    <rc><c>Hf</c><c>   1</c></rc>
    <rc><c>Hf</c><c>   1</c></rc>
    <rc><c>Hf</c><c>   1</c></rc>
    <rc><c>Hf</c><c>   1</c></rc>
    <rc><c>Hf</c><c>   1</c></rc>
    <rc><c>Hf</c><c>   1</c></rc>
    <rc><c>Hf</c><c>   1</c></rc>
    <rc><c>Zr</c><c>   2</c></rc>
    <rc><c>Zr</c><c>   2</c></rc>
    <rc><c>Zr</c><c>   2</c></rc>
    <rc><c>Zr</c><c>   2</c></rc>
    <rc><c>Zr</c><c>   2</c></rc>
    <rc><c>Zr</c><c>   2</c></rc>
    <rc><c>Zr</c><c>   2</c></rc>
    <rc><c>Zr</c><c>   2</c></rc>
    <rc><c>Zr</c><c>   2</c></rc>
    <rc><c>Zr</c><c>   2</c></rc>
    <rc><c>Zr</c><c>   2</c></rc>
    <rc><c>Nb</c><c>   3</c></rc>
    <rc><c>Nb</c><c>   3</c></rc>
    <rc><c>Nb</c><c>   3</c></rc>
    <rc><c>Nb</c><c>   3</c></rc>
    <rc><c>Nb</c><c>   3</c></rc>
    <rc><c>Ta</c><c>   4</c></rc>
    <rc><c>Ta</c><c>   4</c></rc>
    <rc><c>Ta</c><c>   4</c></rc>
    <rc><c>Ta</c><c>   4</c></rc>
    <rc><c>Ta</c><c>   4</c></rc>
    <rc><c>Ta</c><c>   4</c></rc>
    <rc><c>Ta</c><c>   4</c></rc>
    <rc><c>Ta</c><c>   4</c></rc>
    <rc><c>Ta</c><c>   4</c></rc>
   </set>
  </array>
  <array name="atomtypes" >
   <dimension dim="1">type</dimension>
   <field type="int">atomspertype</field>
   <field type="string">element</field>
   <field>mass</field>
   <field>valence</field>
   <field type="string">pseudopotential</field>
   <set>
    <rc><c>  11</c><c>Hf</c><c>    178.49000000</c><c>      4.00000000</c><c>  PAW_PBE Hf 20Jan2003                  </c></rc>
    <rc><c>  11</c><c>Zr</c><c>     91.22400000</c><c>     12.00000000</c><c>  PAW_PBE Zr_sv 04Jan2005               </c></rc>
    <rc><c>   5</c><c>Nb</c><c>     92.91000000</c><c>     13.00000000</c><c>  PAW_PBE Nb_sv 25May2007               </c></rc>
    <rc><c>   9</c><c>Ta</c><c>    180.94800000</c><c>      5.00000000</c><c>  PAW_PBE Ta 17Jan2003                  </c></rc>
   </set>
  </array>
 </atominfo>
 <structure name="initialpos" >
  <crystal>
   <varray name="basis" >
    <v>       7.00832613       0.01873110      -0.03548185 </v>
    <v>       0.02800437      10.23783784      -0.01398722 </v>
    <v>      -0.05248700      -0.01397724      10.32166639 </v>
   </varray>
   <i name="volume">    740.55483981 </i>
   <varray name="rec_basis" >
    <v>       0.14269214      -0.00038933       0.00072508 </v>
    <v>      -0.00026040       0.09767777       0.00013095 </v>
    <v>       0.00049017       0.00013103       0.09688625 </v>
   </varray>
  </crystal>
  <varray name="positions" >
   <v>       0.96245000       0.32138100       0.67512300 </v>
   <v>       0.75433900       0.16197500       0.16294200 </v>
   <v>       0.01592300       0.99554000       0.67428800 </v>
   <v>       0.99485600       0.34263100       0.32025400 </v>
   <v>       0.22726300       0.49999700       0.51330700 </v>
   <v>       0.00143500       0.66476000       0.31542500 </v>
   <v>       0.46665900       0.98636500       0.01641500 </v>
   <v>       0.48759900       0.00230300       0.32958300 </v>
   <v>       0.53397800       0.33349200       0.65248200 </v>
   <v>       0.73363100       0.83831900       0.83841900 </v>
   <v>       0.99783500       0.33880100       0.00690500 </v>
   <v>       0.50390100       0.66300400       0.32722000 </v>
   <v>       0.72834000       0.15616000       0.84621500 </v>
   <v>       0.02361600       0.99769000       0.00223700 </v>
   <v>       0.23216600       0.16976300       0.50290100 </v>
   <v>       0.26846700       0.18031700       0.83179500 </v>
   <v>       0.00064900       0.66664500       0.00433700 </v>
   <v>       0.50392800       0.33303200       0.33427700 </v>
   <v>       0.78687400       0.52187900       0.51004700 </v>
   <v>       0.49554000       0.66963000       0.66453400 </v>
   <v>       0.75982900       0.84001200       0.50091600 </v>
   <v>       0.25265900       0.49460400       0.83542600 </v>
   <v>       0.01856000       0.68409600       0.68181300 </v>
   <v>       0.26851100       0.82681200       0.82463300 </v>
   <v>       0.50130300       0.34074500       0.00391200 </v>
   <v>       0.74778700       0.50462000       0.84533000 </v>
   <v>       0.23515800       0.17658600       0.16452200 </v>
   <v>       0.75155600       0.84448700       0.16218000 </v>
   <v>       0.00551000       0.99290400       0.32765300 </v>
   <v>       0.26841900       0.49476900       0.14812100 </v>
   <v>       0.24552200       0.82697300       0.18469600 </v>
   <v>       0.24257400       0.83317700       0.49304100 </v>
   <v>       0.48290300       0.99316000       0.65651200 </v>
   <v>       0.73412700       0.49057900       0.14721800 </v>
   <v>       0.76338100       0.14515400       0.49101300 </v>
   <v>       0.50275500       0.66764300       0.00431600 </v>
  </varray>
 </structure>
 <calculation>
  <scstep>
   <time name="dav">    0.94    0.95</time>
   <time name="total">    1.08    1.43</time>
   <energy>
    <i name="alphaZ">   1427.89747597 </i>
    <i name="ewald"> -18415.52627990 </i>
    <i name="hartreedc">  -6349.95550627 </i>
    <i name="XCdc">   -350.36537546 </i>
    <i name="pawpsdc">  20276.24333068 </i>
    <i name="pawaedc"> -18661.04307565 </i>
    <i name="eentropy">     -0.00857811 </i>
    <i name="bandstr">   -103.90976207 </i>
    <i name="atom">  23912.11929042 </i>
    <i name="e_fr_energy">   1735.45151961 </i>
    <i name="e_wo_entrp">   1735.46009772 </i>
    <i name="e_0_energy">   1735.45437898 </i>
   </energy>
  </scstep>
  <scstep>
   <time name="dav">    0.95    0.96</time>
   <time name="total">    0.96    1.13</time>
   <energy>
    <i name="e_fr_energy">    -85.50893975 </i>
    <i name="e_wo_entrp">    -85.50075903 </i>
    <i name="e_0_energy">    -85.50621284 </i>
   </energy>
  </scstep>
  <scstep>
   <time name="dav">    1.39    1.40</time>
   <time name="total">    1.39    1.44</time>
   <energy>
    <i name="e_fr_energy">   -336.57680923 </i>
    <i name="e_wo_entrp">   -336.58167716 </i>
    <i name="e_0_energy">   -336.57843187 </i>
   </energy>
  </scstep>
  <scstep>
   <time name="dav">    1.38    1.39</time>
   <time name="total">    1.38    1.43</time>
   <energy>
    <i name="e_fr_energy">   -367.97504469 </i>
    <i name="e_wo_entrp">   -367.98067822 </i>
    <i name="e_0_energy">   -367.97692253 </i>
   </energy>
  </scstep>
  <scstep>
   <time name="dav">    1.21    1.23</time>
   <time name="total">    1.25    1.30</time>
   <energy>
    <i name="e_fr_energy">   -371.24920072 </i>
    <i name="e_wo_entrp">   -371.25535653 </i>
    <i name="e_0_energy">   -371.25125266 </i>
   </energy>
  </scstep>
  <scstep>
   <time name="diag">    0.07    0.07</time>
   <time name="diis">    0.81    0.81</time>
   <time name="orth">    0.01    0.01</time>
   <time name="total">    0.96    1.00</time>
   <energy>
    <i name="e_fr_energy">   -361.13367571 </i>
    <i name="e_wo_entrp">   -361.14254933 </i>
    <i name="e_0_energy">   -361.13663359 </i>
   </energy>
  </scstep>
  <scstep>
   <time name="diag">    0.10    0.10</time>
   <time name="diis">    0.75    0.75</time>
   <time name="orth">    0.01    0.01</time>
   <time name="total">    0.92    0.96</time>
   <energy>
    <i name="e_fr_energy">   -361.69097474 </i>
    <i name="e_wo_entrp">   -361.70031303 </i>
    <i name="e_0_energy">   -361.69408750 </i>
   </energy>
  </scstep>
  <scstep>
   <time name="diag">    0.08    0.08</time>
   <time name="diis">    0.81    0.81</time>
   <time name="orth">    0.02    0.02</time>
   <time name="total">    0.98    1.02</time>
   <energy>
    <i name="e_fr_energy">   -357.08839531 </i>
    <i name="e_wo_entrp">   -357.10518032 </i>
    <i name="e_0_energy">   -357.09399031 </i>
   </energy>
  </scstep>
  <scstep>
   <time name="diag">    0.12    0.12</time>
   <time name="diis">    0.83    0.84</time>
   <time name="orth">    0.01    0.01</time>
   <time name="total">    1.12    1.18</time>
   <energy>
    <i name="e_fr_energy">   -356.88946425 </i>
    <i name="e_wo_entrp">   -356.90064336 </i>
    <i name="e_0_energy">   -356.89319062 </i>
   </energy>
  </scstep>
  <scstep>
   <time name="diag">    0.09    0.09</time>
   <time name="diis">    0.80    0.80</time>
   <time name="orth">    0.01    0.01</time>
   <time name="total">    0.97    1.01</time>
   <energy>
    <i name="e_fr_energy">   -356.84198416 </i>
    <i name="e_wo_entrp">   -356.85388379 </i>
    <i name="e_0_energy">   -356.84595071 </i>
   </energy>
  </scstep>
  <scstep>
   <time name="diag">    0.07    0.07</time>
   <time name="diis">    0.85    0.85</time>
   <time name="orth">    0.01    0.01</time>
   <time name="total">    1.02    1.06</time>
   <energy>
    <i name="e_fr_energy">   -356.83042544 </i>
    <i name="e_wo_entrp">   -356.84329078 </i>
    <i name="e_0_energy">   -356.83471389 </i>
   </energy>
  </scstep>
  <scstep>
   <time name="diag">    0.08    0.08</time>
   <time name="diis">    0.80    0.80</time>
   <time name="orth">    0.02    0.02</time>
   <time name="total">    0.95    1.00</time>
   <energy>
    <i name="e_fr_energy">   -356.82823175 </i>
    <i name="e_wo_entrp">   -356.84150310 </i>
    <i name="e_0_energy">   -356.83265554 </i>
   </energy>
  </scstep>
  <scstep>
   <time name="diag">    0.07    0.07</time>
   <time name="diis">    0.77    0.77</time>
   <time name="orth">    0.01    0.01</time>
   <time name="total">    0.92    0.96</time>
   <energy>
    <i name="e_fr_energy">   -356.82767233 </i>
    <i name="e_wo_entrp">   -356.84033015 </i>
    <i name="e_0_energy">   -356.83189161 </i>
   </energy>
  </scstep>
  <scstep>
   <time name="diag">    0.08    0.08</time>
   <time name="diis">    0.77    0.77</time>
   <time name="orth">    0.01    0.01</time>
   <time name="total">    0.94    0.99</time>
   <energy>
    <i name="e_fr_energy">   -356.82800562 </i>
    <i name="e_wo_entrp">   -356.84090799 </i>
    <i name="e_0_energy">   -356.83230641 </i>
   </energy>
  </scstep>
  <scstep>
   <time name="diag">    0.07    0.07</time>
   <time name="diis">    0.76    0.80</time>
   <time name="orth">    0.01    0.01</time>
   <time name="total">    0.93    0.99</time>
   <energy>
    <i name="e_fr_energy">   -356.82831824 </i>
    <i name="e_wo_entrp">   -356.84110243 </i>
    <i name="e_0_energy">   -356.83257964 </i>
   </energy>
  </scstep>
  <scstep>
   <time name="diag">    0.07    0.07</time>
   <time name="diis">    0.74    0.75</time>
   <time name="orth">    0.01    0.01</time>
   <time name="total">    0.90    0.94</time>
   <energy>
    <i name="e_fr_energy">   -356.82844208 </i>
    <i name="e_wo_entrp">   -356.84129984 </i>
    <i name="e_0_energy">   -356.83272800 </i>
   </energy>
  </scstep>
  <scstep>
   <time name="diag">    0.13    0.13</time>
   <time name="diis">    0.61    0.61</time>
   <time name="orth">    0.01    0.01</time>
   <time name="total">    0.85    0.89</time>
   <energy>
    <i name="e_fr_energy">   -356.82849358 </i>
    <i name="e_wo_entrp">   -356.84136097 </i>
    <i name="e_0_energy">   -356.83278271 </i>
   </energy>
  </scstep>
  <scstep>
   <time name="diag">    0.11    0.11</time>
   <time name="diis">    0.60    0.61</time>
   <time name="orth">    0.01    0.01</time>
   <time name="total">    0.80    0.83</time>
   <energy>
    <i name="e_fr_energy">   -356.82852327 </i>
    <i name="e_wo_entrp">   -356.84140182 </i>
    <i name="e_0_energy">   -356.83281612 </i>
   </energy>
  </scstep>
  <scstep>
   <time name="diag">    0.08    0.08</time>
   <time name="diis">    0.48    0.48</time>
   <time name="orth">    0.01    0.01</time>
   <time name="total">    0.64    0.69</time>
   <energy>
    <i name="e_fr_energy">   -356.82853704 </i>
    <i name="e_wo_entrp">   -356.84142303 </i>
    <i name="e_0_energy">   -356.83283237 </i>
   </energy>
  </scstep>
  <scstep>
   <time name="diag">    0.08    0.08</time>
   <time name="diis">    0.47    0.47</time>
   <time name="orth">    0.01    0.01</time>
   <time name="total">    0.63    0.67</time>
   <energy>
    <i name="e_fr_energy">   -356.82854605 </i>
    <i name="e_wo_entrp">   -356.84143054 </i>
    <i name="e_0_energy">   -356.83284088 </i>
   </energy>
  </scstep>
  <scstep>
   <time name="diag">    0.08    0.08</time>
   <time name="diis">    0.41    0.42</time>
   <time name="orth">    0.01    0.01</time>
   <time name="total">    0.69    0.73</time>
   <energy>
    <i name="alphaZ">   1427.89747597 </i>
    <i name="ewald"> -18415.52627990 </i>
    <i name="hartreedc">  -6122.10164141 </i>
    <i name="XCdc">   -349.43148012 </i>
    <i name="pawpsdc">  33386.55090814 </i>
    <i name="pawaedc"> -31756.66139270 </i>
    <i name="eentropy">      0.01288775 </i>
    <i name="bandstr">  -2439.68831655 </i>
    <i name="atom">  23912.11929042 </i>
    <i name="e_fr_energy">   -356.82854839 </i>
    <i name="e_wo_entrp">   -356.84143614 </i>
    <i name="e_0_energy">   -356.83284431 </i>
   </energy>
  </scstep>
  <structure>
   <crystal>
    <varray name="basis" >
     <v>       7.00832613       0.01873110      -0.03548185 </v>
     <v>       0.02800437      10.23783784      -0.01398722 </v>
     <v>      -0.05248700      -0.01397724      10.32166639 </v>
    </varray>
    <i name="volume">    740.55483981 </i>
    <varray name="rec_basis" >
     <v>       0.14269214      -0.00038933       0.00072508 </v>
     <v>      -0.00026040       0.09767777       0.00013095 </v>
     <v>       0.00049017       0.00013103       0.09688625 </v>
    </varray>
   </crystal>
   <varray name="positions" >
    <v>       0.96245000       0.32138100       0.67512300 </v>
    <v>       0.75433900       0.16197500       0.16294200 </v>
    <v>       0.01592300       0.99554000       0.67428800 </v>
    <v>       0.99485600       0.34263100       0.32025400 </v>
    <v>       0.22726300       0.49999700       0.51330700 </v>
    <v>       0.00143500       0.66476000       0.31542500 </v>
    <v>       0.46665900       0.98636500       0.01641500 </v>
    <v>       0.48759900       0.00230300       0.32958300 </v>
    <v>       0.53397800       0.33349200       0.65248200 </v>
    <v>       0.73363100       0.83831900       0.83841900 </v>
    <v>       0.99783500       0.33880100       0.00690500 </v>
    <v>       0.50390100       0.66300400       0.32722000 </v>
    <v>       0.72834000       0.15616000       0.84621500 </v>
    <v>       0.02361600       0.99769000       0.00223700 </v>
    <v>       0.23216600       0.16976300       0.50290100 </v>
    <v>       0.26846700       0.18031700       0.83179500 </v>
    <v>       0.00064900       0.66664500       0.00433700 </v>
    <v>       0.50392800       0.33303200       0.33427700 </v>
    <v>       0.78687400       0.52187900       0.51004700 </v>
    <v>       0.49554000       0.66963000       0.66453400 </v>
    <v>       0.75982900       0.84001200       0.50091600 </v>
    <v>       0.25265900       0.49460400       0.83542600 </v>
    <v>       0.01856000       0.68409600       0.68181300 </v>
    <v>       0.26851100       0.82681200       0.82463300 </v>
    <v>       0.50130300       0.34074500       0.00391200 </v>
    <v>       0.74778700       0.50462000       0.84533000 </v>
    <v>       0.23515800       0.17658600       0.16452200 </v>
    <v>       0.75155600       0.84448700       0.16218000 </v>
    <v>       0.00551000       0.99290400       0.32765300 </v>
    <v>       0.26841900       0.49476900       0.14812100 </v>
    <v>       0.24552200       0.82697300       0.18469600 </v>
    <v>       0.24257400       0.83317700       0.49304100 </v>
    <v>       0.48290300       0.99316000       0.65651200 </v>
    <v>       0.73412700       0.49057900       0.14721800 </v>
    <v>       0.76338100       0.14515400       0.49101300 </v>
    <v>       0.50275500       0.66764300       0.00431600 </v>
   </varray>
  </structure>
  <varray name="forces" >
   <v>       0.02611274       0.01572422      -0.06374038 </v>
   <v>      -0.17856715      -0.26416823       0.19641727 </v>
   <v>      -0.01181242       0.02434352       0.02964752 </v>
   <v>       0.02882815       0.01906728       0.05613173 </v>
   <v>       0.01120219      -0.00472642      -0.00111831 </v>
   <v>       0.01079775      -0.06030016      -0.07395907 </v>
   <v>      -0.00405631       0.02095937      -0.00197029 </v>
   <v>      -0.00682446       0.00692986      -0.01263289 </v>
   <v>      -0.01023586      -0.00720206       0.01181525 </v>
   <v>      -0.00024104       0.00281280       0.00975705 </v>
   <v>      -0.02578831      -0.21077359      -0.27535457 </v>
   <v>      -0.01426347      -0.01792228      -0.02543179 </v>
   <v>      -0.26205124      -0.23644801      -0.12905888 </v>
   <v>      -0.03954550      -0.04112233      -0.01362188 </v>
   <v>       0.01542268       0.00257181      -0.02272269 </v>
   <v>       0.28210788      -0.13551175      -0.21308584 </v>
   <v>      -0.02674242       0.02780895       0.02178837 </v>
   <v>      -0.01002528       0.00236645      -0.00634932 </v>
   <v>       0.00657197       0.00527750       0.00070047 </v>
   <v>       0.00801864      -0.02552090       0.00947207 </v>
   <v>       0.01556250       0.00482922      -0.00771390 </v>
   <v>       0.18611843       0.13993870      -0.20689957 </v>
   <v>       0.00438543       0.00618323      -0.00703722 </v>
   <v>       0.02542852      -0.02478484       0.00605092 </v>
   <v>       0.00938491      -0.01594845      -0.01773202 </v>
   <v>      -0.29890187       0.31687149      -0.12888368 </v>
   <v>       0.28911613      -0.26519877       0.33783669 </v>
   <v>       0.00447645       0.01619729       0.03130307 </v>
   <v>       0.00813288      -0.00851150      -0.02830329 </v>
   <v>       0.51598468       0.30804820       0.27506864 </v>
   <v>       0.01528820       0.01395115       0.01548053 </v>
   <v>      -0.01070356       0.01116612       0.00628484 </v>
   <v>       0.01257831       0.01952401       0.02877127 </v>
   <v>      -0.56816769       0.37504548       0.16665189 </v>
   <v>      -0.00744980       0.00308686      -0.01128921 </v>
   <v>      -0.00014205      -0.02456422       0.04372724 </v>
  </varray>
  <varray name="stress" >
   <v>       9.52337844      -0.35378549       0.14127678 </v>
   <v>      -0.35378549       6.86470965      -0.45495447 </v>
   <v>       0.14127680      -0.45495445       5.41363552 </v>
  </varray>
  <energy>
   <i name="e_fr_energy">   -356.82854839 </i>
   <i name="e_wo_entrp">   -356.83284431 </i>
   <i name="e_0_energy">      0.01288775 </i>
  </energy>
  <time name="totalsc">   21.91   23.40</time>
 </calculation>
 <calculation>
  <scstep>
   <time name="dav">    1.01    1.02</time>
   <time name="total">    1.13    1.30</time>
   <energy>
    <i name="alphaZ">   1422.12854644 </i>
    <i name="ewald"> -18392.43229834 </i>
    <i name="hartreedc">  -6112.15959662 </i>
    <i name="XCdc">   -350.53876441 </i>
    <i name="pawpsdc">  33386.49543548 </i>
    <i name="pawaedc"> -31756.60499772 </i>
    <i name="eentropy">      0.01252771 </i>
    <i name="bandstr">  -2465.91514054 </i>
    <i name="atom">  23912.11929042 </i>
    <i name="e_fr_energy">   -356.89499759 </i>
    <i name="e_wo_entrp">   -356.90752530 </i>
    <i name="e_0_energy">   -356.89917349 </i>
   </energy>
  </scstep>
  <scstep>
   <time name="diag">    0.07    0.07</time>
   <time name="diis">    0.72    0.72</time>
   <time name="orth">    0.01    0.01</time>
   <time name="total">    0.87    0.90</time>
   <energy>
    <i name="e_fr_energy">   -356.87776075 </i>
    <i name="e_wo_entrp">   -356.89105400 </i>
    <i name="e_0_energy">   -356.88219183 </i>
   </energy>
  </scstep>
  <scstep>
   <time name="diag">    0.07    0.07</time>
   <time name="diis">    0.77    0.77</time>
   <time name="orth">    0.01    0.01</time>
   <time name="total">    0.92    0.97</time>
   <energy>
    <i name="e_fr_energy">   -356.87236234 </i>
    <i name="e_wo_entrp">   -356.88584420 </i>
    <i name="e_0_energy">   -356.87685629 </i>
   </energy>
  </scstep>
  <scstep>
   <time name="diag">    0.07    0.07</time>
   <time name="diis">    0.83    0.84</time>
   <time name="orth">    0.01    0.01</time>
   <time name="total">    0.98    1.03</time>
   <energy>
    <i name="e_fr_energy">   -356.86664579 </i>
    <i name="e_wo_entrp">   -356.87971442 </i>
    <i name="e_0_energy">   -356.87100200 </i>
   </energy>
  </scstep>
  <scstep>
   <time name="diag">    0.07    0.08</time>
   <time name="diis">    0.81    0.82</time>
   <time name="orth">    0.01    0.01</time>
   <time name="total">    0.96    1.02</time>
   <energy>
    <i name="e_fr_energy">   -356.86614612 </i>
    <i name="e_wo_entrp">   -356.87955685 </i>
    <i name="e_0_energy">   -356.87061636 </i>
   </energy>
  </scstep>
  <scstep>
   <time name="diag">    0.07    0.07</time>
   <time name="diis">    0.86    0.86</time>
   <time name="orth">    0.01    0.01</time>
   <time name="total">    1.02    1.06</time>
   <energy>
    <i name="e_fr_energy">   -356.86612268 </i>
    <i name="e_wo_entrp">   -356.87935547 </i>
    <i name="e_0_energy">   -356.87053361 </i>
   </energy>
  </scstep>
  <scstep>
   <time name="diag">    0.08    0.08</time>
   <time name="diis">    0.68    0.74</time>
   <time name="orth">    0.01    0.01</time>
   <time name="total">    0.84    0.96</time>
   <energy>
    <i name="e_fr_energy">   -356.86613795 </i>
    <i name="e_wo_entrp">   -356.87942244 </i>
    <i name="e_0_energy">   -356.87056611 </i>
   </energy>
  </scstep>
  <scstep>
   <time name="diag">    0.08    0.09</time>
   <time name="diis">    0.67    0.70</time>
   <time name="orth">    0.01    0.01</time>
   <time name="total">    0.82    0.91</time>
   <energy>
    <i name="e_fr_energy">   -356.86616118 </i>
    <i name="e_wo_entrp">   -356.87944234 </i>
    <i name="e_0_energy">   -356.87058824 </i>
   </energy>
  </scstep>
  <scstep>
   <time name="diag">    0.07    0.07</time>
   <time name="diis">    0.55    0.55</time>
   <time name="orth">    0.01    0.01</time>
   <time name="total">    0.70    0.75</time>
   <energy>
    <i name="e_fr_energy">   -356.86617132 </i>
    <i name="e_wo_entrp">   -356.87944043 </i>
    <i name="e_0_energy">   -356.87059436 </i>
   </energy>
  </scstep>
  <scstep>
   <time name="diag">    0.07    0.07</time>
   <time name="diis">    0.61    0.61</time>
   <time name="orth">    0.01    0.01</time>
   <time name="total">    0.73    0.76</time>
   <energy>
    <i name="alphaZ">   1422.12854644 </i>
    <i name="ewald"> -18392.43229834 </i>
    <i name="hartreedc">  -6127.74641661 </i>
    <i name="XCdc">   -349.86043113 </i>
    <i name="pawpsdc">  33198.37598248 </i>
    <i name="pawaedc"> -31568.55181234 </i>
    <i name="eentropy">      0.01328512 </i>
    <i name="bandstr">  -2450.91232482 </i>
    <i name="atom">  23912.11929042 </i>
    <i name="e_fr_energy">   -356.86617878 </i>
    <i name="e_wo_entrp">   -356.87946390 </i>
    <i name="e_0_energy">   -356.87060715 </i>
   </energy>
  </scstep>
  <structure>
   <crystal>
    <varray name="basis" >
     <v>       7.02072626       0.01829726      -0.03533514 </v>
     <v>       0.02738052      10.25089670      -0.01486607 </v>
     <v>      -0.05230800      -0.01486422      10.33204950 </v>
    </varray>
    <i name="volume">    743.55893441 </i>
    <varray name="rec_basis" >
     <v>       0.14244002      -0.00037942       0.00072058 </v>
     <v>      -0.00025354       0.09755332       0.00013906 </v>
     <v>       0.00048677       0.00013907       0.09678888 </v>
    </varray>
   </crystal>
   <varray name="positions" >
    <v>       0.96250317       0.32140301       0.67503384 </v>
    <v>       0.75397378       0.16160260       0.16321565 </v>
    <v>       0.01589878       0.99557451       0.67432953 </v>
    <v>       0.99491602       0.34265795       0.32033295 </v>
    <v>       0.22728615       0.49999027       0.51330550 </v>
    <v>       0.00145686       0.66467457       0.31532126 </v>
    <v>       0.46665048       0.98639464       0.01641225 </v>
    <v>       0.48758473       0.00231280       0.32956525 </v>
    <v>       0.53395703       0.33348188       0.65249848 </v>
    <v>       0.73363059       0.83832300       0.83843269 </v>
    <v>       0.99778004       0.33850261       0.00651831 </v>
    <v>       0.50387138       0.66297867       0.32718420 </v>
    <v>       0.72779880       0.15582648       0.84603172 </v>
    <v>       0.02353442       0.99763199       0.00221754 </v>
    <v>       0.23219760       0.16976653       0.50286925 </v>
    <v>       0.26904812       0.18012396       0.83149795 </v>
    <v>       0.00059384       0.66668445       0.00436742 </v>
    <v>       0.50390722       0.33303537       0.33426803 </v>
    <v>       0.78688755       0.52188644       0.51004804 </v>
    <v>       0.49555680       0.66959391       0.66454729 </v>
    <v>       0.75986103       0.84001875       0.50090530 </v>
    <v>       0.25304040       0.49480073       0.83513747 </v>
    <v>       0.01856895       0.68410471       0.68180318 </v>
    <v>       0.26856372       0.82677688       0.82464162 </v>
    <v>       0.50132229       0.34072239       0.00388717 </v>
    <v>       0.74716658       0.50506883       0.84514776 </v>
    <v>       0.23576011       0.17621065       0.16499727 </v>
    <v>       0.75156548       0.84450994       0.16222396 </v>
    <v>       0.00552655       0.99289188       0.32761335 </v>
    <v>       0.26948574       0.49520306       0.14851095 </v>
    <v>       0.24555366       0.82699269       0.18471784 </v>
    <v>       0.24255190       0.83319284       0.49304976 </v>
    <v>       0.48292917       0.99318761       0.65655247 </v>
    <v>       0.73295328       0.49111165       0.14744836 </v>
    <v>       0.76336548       0.14515837       0.49099712 </v>
    <v>       0.50275530       0.66760836       0.00437727 </v>
   </varray>
  </structure>
  <varray name="forces" >
   <v>       0.01554169       0.00838403      -0.04426963 </v>
   <v>      -0.15157803      -0.24275437       0.17545900 </v>
   <v>      -0.00513979       0.01514646       0.02310587 </v>
   <v>       0.02348161       0.02714182       0.02376544 </v>
   <v>      -0.00126905      -0.00435783      -0.00125220 </v>
   <v>       0.01216036      -0.05860785      -0.07389522 </v>
   <v>      -0.01627556       0.00559304       0.00873146 </v>
   <v>      -0.00934449      -0.00568369      -0.00604192 </v>
   <v>       0.00878975      -0.00107802       0.00300930 </v>
   <v>      -0.00677032      -0.00255150       0.01084970 </v>
   <v>      -0.02796653      -0.16267814      -0.21515680 </v>
   <v>      -0.01606308       0.00133341      -0.01036810 </v>
   <v>      -0.23930493      -0.21702898      -0.12104362 </v>
   <v>      -0.02665420      -0.02855396      -0.00172443 </v>
   <v>       0.01035829      -0.00219284      -0.02897130 </v>
   <v>       0.25775860      -0.11479321      -0.19764325 </v>
   <v>      -0.02611638       0.00794090       0.02968335 </v>
   <v>      -0.00675029      -0.00480339       0.00469646 </v>
   <v>       0.01792319       0.00582825       0.00361166 </v>
   <v>      -0.00085973      -0.01136460       0.00160636 </v>
   <v>       0.02759899       0.01715139      -0.00466699 </v>
   <v>       0.16690052       0.11712969      -0.17615631 </v>
   <v>       0.00863901       0.01891585      -0.00792908 </v>
   <v>       0.02395161      -0.02395041      -0.00193559 </v>
   <v>       0.00894003       0.00934565      -0.00081840 </v>
   <v>      -0.26364161       0.27970172      -0.10323671 </v>
   <v>       0.24446956      -0.23638383       0.30632781 </v>
   <v>       0.01216756       0.01911772       0.02639654 </v>
   <v>       0.01502197      -0.01579041      -0.02305133 </v>
   <v>       0.46548032       0.26286072       0.21381545 </v>
   <v>       0.00083406       0.01705384       0.02343146 </v>
   <v>      -0.02244114       0.01856810       0.00795845 </v>
   <v>       0.00339377      -0.00108212       0.01473779 </v>
   <v>      -0.50343999       0.31610100       0.12002156 </v>
   <v>       0.00120663      -0.00007641      -0.01360253 </v>
   <v>      -0.00100241      -0.01358203       0.03455574 </v>
  </varray>
  <varray name="stress" >
   <v>       4.21048817      -0.20663089       0.10784470 </v>
   <v>      -0.20663089       1.69845310      -0.44637777 </v>
   <v>       0.10784467      -0.44637777       0.24938356 </v>
  </varray>
  <energy>
   <i name="e_fr_energy">   -356.86617878 </i>
   <i name="e_wo_entrp">   -356.87060715 </i>
   <i name="e_0_energy">      0.01328512 </i>
  </energy>
  <time name="totalsc">   10.46   11.29</time>
 </calculation>
 <calculation>
  <scstep>
   <time name="dav">    0.92    0.93</time>
   <time name="total">    1.03    1.20</time>
   <energy>
    <i name="alphaZ">   1406.14416916 </i>
    <i name="ewald"> -18327.32382631 </i>
    <i name="hartreedc">  -6100.55599368 </i>
    <i name="XCdc">   -352.95187583 </i>
    <i name="pawpsdc">  33198.02367271 </i>
    <i name="pawaedc"> -31568.32767131 </i>
    <i name="eentropy">      0.01242950 </i>
    <i name="bandstr">  -2524.26472067 </i>
    <i name="atom">  23912.11929042 </i>
    <i name="e_fr_energy">   -357.12452602 </i>
    <i name="e_wo_entrp">   -357.13695552 </i>
    <i name="e_0_energy">   -357.12866919 </i>
   </energy>
  </scstep>
  <scstep>
   <time name="diag">    0.07    0.07</time>
   <time name="diis">    0.72    0.72</time>
   <time name="orth">    0.01    0.01</time>
   <time name="total">    0.87    0.90</time>
   <energy>
    <i name="e_fr_energy">   -356.98996170 </i>
    <i name="e_wo_entrp">   -357.00420866 </i>
    <i name="e_0_energy">   -356.99471069 </i>
   </energy>
  </scstep>
  <scstep>
   <time name="diag">    0.08    0.08</time>
   <time name="diis">    0.82    0.83</time>
   <time name="orth">    0.01    0.01</time>
   <time name="total">    0.97    1.02</time>
   <energy>
    <i name="e_fr_energy">   -356.94645757 </i>
    <i name="e_wo_entrp">   -356.96128799 </i>
    <i name="e_0_energy">   -356.95140105 </i>
   </energy>
  </scstep>
  <scstep>
   <time name="diag">    0.13    0.13</time>
   <time name="diis">    0.77    0.77</time>
   <time name="orth">    0.01    0.01</time>
   <time name="total">    1.01    1.06</time>
   <energy>
    <i name="e_fr_energy">   -356.90225763 </i>
    <i name="e_wo_entrp">   -356.91627070 </i>
    <i name="e_0_energy">   -356.90692865 </i>
   </energy>
  </scstep>
  <scstep>
   <time name="diag">    0.07    0.07</time>
   <time name="diis">    0.76    0.77</time>
   <time name="orth">    0.01    0.01</time>
   <time name="total">    0.91    0.97</time>
   <energy>
    <i name="e_fr_energy">   -356.89818707 </i>
    <i name="e_wo_entrp">   -356.91319953 </i>
    <i name="e_0_energy">   -356.90319122 </i>
   </energy>
  </scstep>
  <scstep>
   <time name="diag">    0.08    0.08</time>
   <time name="diis">    0.83    0.83</time>
   <time name="orth">    0.01    0.01</time>
   <time name="total">    1.02    1.08</time>
   <energy>
    <i name="e_fr_energy">   -356.89822224 </i>
    <i name="e_wo_entrp">   -356.91269820 </i>
    <i name="e_0_energy">   -356.90304756 </i>
   </energy>
  </scstep>
  <scstep>
   <time name="diag">    0.08    0.08</time>
   <time name="diis">    0.83    0.84</time>
   <time name="orth">    0.01    0.01</time>
   <time name="total">    0.99    1.03</time>
   <energy>
    <i name="e_fr_energy">   -356.89855589 </i>
    <i name="e_wo_entrp">   -356.91315435 </i>
    <i name="e_0_energy">   -356.90342204 </i>
   </energy>
  </scstep>
  <scstep>
   <time name="diag">    0.08    0.15</time>
   <time name="diis">    0.92    0.92</time>
   <time name="orth">    0.01    0.01</time>
   <time name="total">    1.08    1.22</time>
   <energy>
    <i name="e_fr_energy">   -356.89885373 </i>
    <i name="e_wo_entrp">   -356.91345543 </i>
    <i name="e_0_energy">   -356.90372096 </i>
   </energy>
  </scstep>
  <scstep>
   <time name="diag">    0.07    0.07</time>
   <time name="diis">    0.79    0.79</time>
   <time name="orth">    0.01    0.01</time>
   <time name="total">    0.94    0.99</time>
   <energy>
    <i name="e_fr_energy">   -356.89897104 </i>
    <i name="e_wo_entrp">   -356.91353711 </i>
    <i name="e_0_energy">   -356.90382639 </i>
   </energy>
  </scstep>
  <scstep>
   <time name="diag">    0.07    0.07</time>
   <time name="diis">    0.71    0.71</time>
   <time name="orth">    0.01    0.01</time>
   <time name="total">    0.86    0.91</time>
   <energy>
    <i name="e_fr_energy">   -356.89910262 </i>
    <i name="e_wo_entrp">   -356.91371990 </i>
    <i name="e_0_energy">   -356.90397504 </i>
   </energy>
  </scstep>
  <scstep>
   <time name="diag">    0.09    0.09</time>
   <time name="diis">    0.63    0.63</time>
   <time name="orth">    0.01    0.01</time>
   <time name="total">    0.79    0.85</time>
   <energy>
    <i name="e_fr_energy">   -356.89914111 </i>
    <i name="e_wo_entrp">   -356.91373936 </i>
    <i name="e_0_energy">   -356.90400719 </i>
   </energy>
  </scstep>
  <scstep>
   <time name="diag">    0.13    0.13</time>
   <time name="diis">    0.62    0.63</time>
   <time name="orth">    0.01    0.01</time>
   <time name="total">    0.84    0.89</time>
   <energy>
    <i name="e_fr_energy">   -356.89914210 </i>
    <i name="e_wo_entrp">   -356.91372047 </i>
    <i name="e_0_energy">   -356.90400156 </i>
   </energy>
  </scstep>
  <scstep>
   <time name="diag">    0.10    0.12</time>
   <time name="diis">    0.57    0.57</time>
   <time name="orth">    0.01    0.01</time>
   <time name="total">    0.74    0.79</time>
   <energy>
    <i name="alphaZ">   1406.14416916 </i>
    <i name="ewald"> -18327.32382631 </i>
    <i name="hartreedc">  -6143.30032679 </i>
    <i name="XCdc">   -351.09349918 </i>
    <i name="pawpsdc">  32684.31579831 </i>
    <i name="pawaedc"> -31055.57098864 </i>
    <i name="eentropy">      0.01458470 </i>
    <i name="bandstr">  -2482.20434324 </i>
    <i name="atom">  23912.11929042 </i>
    <i name="e_fr_energy">   -356.89914158 </i>
    <i name="e_wo_entrp">   -356.91372628 </i>
    <i name="e_0_energy">   -356.90400314 </i>
   </energy>
  </scstep>
  <structure>
   <crystal>
    <varray name="basis" >
     <v>       7.05544271       0.01708264      -0.03492441 </v>
     <v>       0.02563392      10.28745737      -0.01732656 </v>
     <v>      -0.05180684      -0.01734748      10.36111891 </v>
    </varray>
    <i name="volume">    752.01135828 </i>
    <varray name="rec_basis" >
     <v>       0.14173891      -0.00035199       0.00070812 </v>
     <v>      -0.00023456       0.09720661       0.00016158 </v>
     <v>       0.00047737       0.00016137       0.09651733 </v>
    </varray>
   </crystal>
   <varray name="positions" >
    <v>       0.96265178       0.32146454       0.67478446 </v>
    <v>       0.75295297       0.16056134       0.16398095 </v>
    <v>       0.01583109       0.99567103       0.67444571 </v>
    <v>       0.99508375       0.34273334       0.32055376 </v>
    <v>       0.22735084       0.49997147       0.51330131 </v>
    <v>       0.00151795       0.66443569       0.31503108 </v>
    <v>       0.46662669       0.98647752       0.01640456 </v>
    <v>       0.48754487       0.00234019       0.32951561 </v>
    <v>       0.53389840       0.33345358       0.65254458 </v>
    <v>       0.73362944       0.83833417       0.83847096 </v>
    <v>       0.99762640       0.33766818       0.00543673 </v>
    <v>       0.50378859       0.66290783       0.32708408 </v>
    <v>       0.72628622       0.15489382       0.84551908 </v>
    <v>       0.02330642       0.99746977       0.00216311 </v>
    <v>       0.23228591       0.16977641       0.50278046 </v>
    <v>       0.27067219       0.17958422       0.83066707 </v>
    <v>       0.00043971       0.66679478       0.00445249 </v>
    <v>       0.50384913       0.33304479       0.33424295 </v>
    <v>       0.78692542       0.52190723       0.51005095 </v>
    <v>       0.49560375       0.66949300       0.66458445 </v>
    <v>       0.75995055       0.84003764       0.50087538 </v>
    <v>       0.25410641       0.49535080       0.83433051 </v>
    <v>       0.01859396       0.68412907       0.68177570 </v>
    <v>       0.26871104       0.82667868       0.82466571 </v>
    <v>       0.50137618       0.34065915       0.00381773 </v>
    <v>       0.74543282       0.50632370       0.84463819 </v>
    <v>       0.23744270       0.17516131       0.16632641 </v>
    <v>       0.75159198       0.84457409       0.16234690 </v>
    <v>       0.00557279       0.99285800       0.32750247 </v>
    <v>       0.27246707       0.49641695       0.14960163 </v>
    <v>       0.24564213       0.82704777       0.18477893 </v>
    <v>       0.24249013       0.83323712       0.49307426 </v>
    <v>       0.48300230       0.99326481       0.65666566 </v>
    <v>       0.72967317       0.49260090       0.14809285 </v>
    <v>       0.76332211       0.14517059       0.49095272 </v>
    <v>       0.50275614       0.66751151       0.00454862 </v>
   </varray>
  </structure>
  <varray name="forces" >
   <v>      -0.01041986      -0.01140361       0.00628226 </v>
   <v>      -0.08106057      -0.18869702       0.12160017 </v>
   <v>       0.01212637      -0.01042710       0.00470235 </v>
   <v>       0.00960536       0.04525048      -0.05613107 </v>
   <v>      -0.03508801      -0.00278959      -0.00088417 </v>
   <v>       0.01653688      -0.05626902      -0.07309389 </v>
   <v>      -0.04798986      -0.03340428       0.03667717 </v>
   <v>      -0.01582991      -0.04018546       0.01456701 </v>
   <v>       0.05794987       0.01529902      -0.01857331 </v>
   <v>      -0.02195583      -0.01752357       0.01213886 </v>
   <v>      -0.03487207      -0.04347766      -0.06747109 </v>
   <v>      -0.02044294       0.05693038       0.03296586 </v>
   <v>      -0.17694811      -0.16170537      -0.09527308 </v>
   <v>       0.00744977       0.00456477       0.03000475 </v>
   <v>      -0.00353846      -0.01620410      -0.04979385 </v>
   <v>       0.19122551      -0.05781170      -0.15303699 </v>
   <v>      -0.02441953      -0.04372438       0.04675513 </v>
   <v>       0.00023875      -0.02454031       0.03081598 </v>
   <v>       0.04908376       0.01045381       0.01145274 </v>
   <v>      -0.02547330       0.03025304      -0.01937475 </v>
   <v>       0.05891278       0.04893750       0.00285036 </v>
   <v>       0.11423109       0.05909209      -0.09467651 </v>
   <v>       0.02207582       0.05091766      -0.01044551 </v>
   <v>       0.01685007      -0.02692499      -0.02267837 </v>
   <v>       0.00803393       0.07360922       0.04004590 </v>
   <v>      -0.17404455       0.18898000      -0.03724403 </v>
   <v>       0.13349522      -0.16793283       0.22927795 </v>
   <v>       0.03457742       0.02662776       0.01123645 </v>
   <v>       0.03383596      -0.03296117      -0.00847724 </v>
   <v>       0.33696663       0.14915207       0.05538517 </v>
   <v>      -0.03960206       0.02338686       0.04650157 </v>
   <v>      -0.05352467       0.03947257       0.01300897 </v>
   <v>      -0.02124339      -0.05886525      -0.02525699 </v>
   <v>      -0.33900538       0.16457898       0.00037274 </v>
   <v>       0.02508538      -0.00875477      -0.02056734 </v>
   <v>      -0.00282208       0.01609597       0.00633678 </v>
  </varray>
  <varray name="stress" >
   <v>     -10.64598185       0.17181016      -0.00830186 </v>
   <v>       0.17181018     -12.68718582      -0.41321923 </v>
   <v>      -0.00830181      -0.41321920     -14.06489724 </v>
  </varray>
  <energy>
   <i name="e_fr_energy">   -356.89914158 </i>
   <i name="e_wo_entrp">   -356.90400314 </i>
   <i name="e_0_energy">      0.01458470 </i>
  </energy>
  <time name="totalsc">   13.62   14.62</time>
 </calculation>
 <calculation>
  <scstep>
   <time name="dav">    0.87    0.88</time>
   <time name="total">    0.99    1.15</time>
   <energy>
    <i name="alphaZ">   1407.56475408 </i>
    <i name="ewald"> -18335.25859985 </i>
    <i name="hartreedc">  -6143.55299957 </i>
    <i name="XCdc">   -350.81075134 </i>
    <i name="pawpsdc">  32683.34506187 </i>
    <i name="pawaedc"> -31054.63494931 </i>
    <i name="eentropy">      0.01449246 </i>
    <i name="bandstr">  -2475.70779596 </i>
    <i name="atom">  23912.11929042 </i>
    <i name="e_fr_energy">   -356.92149720 </i>
    <i name="e_wo_entrp">   -356.93598967 </i>
    <i name="e_0_energy">   -356.92632802 </i>
   </energy>
  </scstep>
  <scstep>
   <time name="diag">    0.07    0.07</time>
   <time name="diis">    0.74    0.74</time>
   <time name="orth">    0.01    0.01</time>
   <time name="total">    0.89    0.94</time>
   <energy>
    <i name="e_fr_energy">   -356.92601387 </i>
    <i name="e_wo_entrp">   -356.94059655 </i>
    <i name="e_0_energy">   -356.93087476 </i>
   </energy>
  </scstep>
  <scstep>
   <time name="diag">    0.07    0.07</time>
   <time name="diis">    0.74    0.75</time>
   <time name="orth">    0.01    0.01</time>
   <time name="total">    0.90    0.94</time>
   <energy>
    <i name="e_fr_energy">   -356.92420516 </i>
    <i name="e_wo_entrp">   -356.93856423 </i>
    <i name="e_0_energy">   -356.92899151 </i>
   </energy>
  </scstep>
  <scstep>
   <time name="diag">    0.07    0.07</time>
   <time name="diis">    0.82    0.82</time>
   <time name="orth">    0.01    0.01</time>
   <time name="total">    0.97    1.01</time>
   <energy>
    <i name="e_fr_energy">   -356.92349427 </i>
    <i name="e_wo_entrp">   -356.93806774 </i>
    <i name="e_0_energy">   -356.92835209 </i>
   </energy>
  </scstep>
  <scstep>
   <time name="diag">    0.07    0.07</time>
   <time name="diis">    0.76    0.77</time>
   <time name="orth">    0.01    0.01</time>
   <time name="total">    0.91    0.95</time>
   <energy>
    <i name="e_fr_energy">   -356.92341286 </i>
    <i name="e_wo_entrp">   -356.93786649 </i>
    <i name="e_0_energy">   -356.92823074 </i>
   </energy>
  </scstep>
  <scstep>
   <time name="diag">    0.08    0.08</time>
   <time name="diis">    0.72    0.72</time>
   <time name="orth">    0.01    0.01</time>
   <time name="total">    0.87    0.91</time>
   <energy>
    <i name="e_fr_energy">   -356.92341366 </i>
    <i name="e_wo_entrp">   -356.93794397 </i>
    <i name="e_0_energy">   -356.92825710 </i>
   </energy>
  </scstep>
  <scstep>
   <time name="diag">    0.08    0.08</time>
   <time name="diis">    0.61    0.61</time>
   <time name="orth">    0.01    0.01</time>
   <time name="total">    0.76    0.80</time>
   <energy>
    <i name="e_fr_energy">   -356.92341921 </i>
    <i name="e_wo_entrp">   -356.93791729 </i>
    <i name="e_0_energy">   -356.92825190 </i>
   </energy>
  </scstep>
  <scstep>
   <time name="diag">    0.08    0.08</time>
   <time name="diis">    0.49    0.50</time>
   <time name="orth">    0.01    0.01</time>
   <time name="total">    0.65    0.69</time>
   <energy>
    <i name="e_fr_energy">   -356.92343016 </i>
    <i name="e_wo_entrp">   -356.93794121 </i>
    <i name="e_0_energy">   -356.92826718 </i>
   </energy>
  </scstep>
  <scstep>
   <time name="diag">    0.07    0.07</time>
   <time name="diis">    0.49    0.50</time>
   <time name="orth">    0.01    0.01</time>
   <time name="total">    0.62    0.67</time>
   <energy>
    <i name="alphaZ">   1407.56475408 </i>
    <i name="ewald"> -18335.25859985 </i>
    <i name="hartreedc">  -6139.76842963 </i>
    <i name="XCdc">   -350.97389567 </i>
    <i name="pawpsdc">  32729.26393498 </i>
    <i name="pawaedc"> -31100.63642108 </i>
    <i name="eentropy">      0.01450172 </i>
    <i name="bandstr">  -2479.24856836 </i>
    <i name="atom">  23912.11929042 </i>
    <i name="e_fr_energy">   -356.92343340 </i>
    <i name="e_wo_entrp">   -356.93793512 </i>
    <i name="e_0_energy">   -356.92826731 </i>
   </energy>
  </scstep>
  <structure>
   <crystal>
    <varray name="basis" >
     <v>       7.05695177       0.01684173      -0.03475451 </v>
     <v>       0.02529238      10.28310964      -0.01850889 </v>
     <v>      -0.05160600      -0.01854370      10.35282431 </v>
    </varray>
    <i name="volume">    751.25239071 </i>
    <varray name="rec_basis" >
     <v>       0.14170855      -0.00034728       0.00070576 </v>
     <v>      -0.00023123       0.09724773       0.00017303 </v>
     <v>       0.00047530       0.00017269       0.09659468 </v>
    </varray>
   </crystal>
   <varray name="positions" >
    <v>       0.96268179       0.32147258       0.67471751 </v>
    <v>       0.75255766       0.16009831       0.16430563 </v>
    <v>       0.01582677       0.99569001       0.67448342 </v>
    <v>       0.99514376       0.34279392       0.32057002 </v>
    <v>       0.22732564       0.49996371       0.51329919 </v>
    <v>       0.00155601       0.66431809       0.31488469 </v>
    <v>       0.46656010       0.98647300       0.01643334 </v>
    <v>       0.48751376       0.00231368       0.32951352 </v>
    <v>       0.53395380       0.33345837       0.65254237 </v>
    <v>       0.73360176       0.83832243       0.83849228 </v>
    <v>       0.99753803       0.33738920       0.00506561 </v>
    <v>       0.50373910       0.66293626       0.32708316 </v>
    <v>       0.72562736       0.15448518       0.84528836 </v>
    <v>       0.02324998       0.99742674       0.00217293 </v>
    <v>       0.23230675       0.16976530       0.50271226 </v>
    <v>       0.27138020       0.17937773       0.83029661 </v>
    <v>       0.00036502       0.66678931       0.00451683 </v>
    <v>       0.50383291       0.33302650       0.33426190 </v>
    <v>       0.78699783       0.52192214       0.51006177 </v>
    <v>       0.49558523       0.66948978       0.66457864 </v>
    <v>       0.76005002       0.84008499       0.50086946 </v>
    <v>       0.25455682       0.49556037       0.83401663 </v>
    <v>       0.01862859       0.68417975       0.68175900 </v>
    <v>       0.26877465       0.82662709       0.82465339 </v>
    <v>       0.50140183       0.34070405       0.00383186 </v>
    <v>       0.74471308       0.50684938       0.84445847 </v>
    <v>       0.23809803       0.17471361       0.16690708 </v>
    <v>       0.75164290       0.84461547       0.16239228 </v>
    <v>       0.00562855       0.99281981       0.32746321 </v>
    <v>       0.27375059       0.49689594       0.14996648 </v>
    <v>       0.24561838       0.82708394       0.18483613 </v>
    <v>       0.24240526       0.83328394       0.49309228 </v>
    <v>       0.48299689       0.99323667       0.65667677 </v>
    <v>       0.72830025       0.49317391       0.14827885 </v>
    <v>       0.76334086       0.14516652       0.49092242 </v>
    <v>       0.50275283       0.66749731       0.00460366 </v>
   </varray>
  </structure>
  <varray name="forces" >
   <v>      -0.00518512      -0.01726441       0.02657983 </v>
   <v>      -0.06251437      -0.16403579       0.09874998 </v>
   <v>       0.01015461      -0.01074534       0.00559435 </v>
   <v>       0.00413944       0.04761621      -0.07026620 </v>
   <v>      -0.03293363      -0.00540352      -0.00750423 </v>
   <v>       0.01181180      -0.06228689      -0.06115650 </v>
   <v>      -0.05002576      -0.03485094       0.03621548 </v>
   <v>      -0.01334036      -0.04882305       0.02836806 </v>
   <v>       0.05966531       0.02335481      -0.02574310 </v>
   <v>      -0.01534241      -0.02201710       0.01292940 </v>
   <v>      -0.03624486      -0.01690136      -0.03226131 </v>
   <v>      -0.01551221       0.07460852       0.06367834 </v>
   <v>      -0.14409709      -0.14304966      -0.08144550 </v>
   <v>       0.01166156       0.02225077       0.02545753 </v>
   <v>      -0.00350383      -0.01357140      -0.06072615 </v>
   <v>       0.15500317      -0.03722781      -0.13310707 </v>
   <v>      -0.01990224      -0.05298767       0.04194755 </v>
   <v>       0.00343817      -0.02919915       0.04991616 </v>
   <v>       0.04820659       0.00898290       0.00636186 </v>
   <v>      -0.02371920       0.03637925      -0.03340185 </v>
   <v>       0.06256308       0.04687452       0.00145701 </v>
   <v>       0.09122647       0.03519058      -0.07242374 </v>
   <v>       0.01262025       0.05264737      -0.01306468 </v>
   <v>       0.00628653      -0.02466113      -0.01610888 </v>
   <v>       0.00832858       0.06847973       0.03178469 </v>
   <v>      -0.13384701       0.15507172      -0.02782461 </v>
   <v>       0.09497495      -0.13985968       0.20002202 </v>
   <v>       0.03720557       0.01929365       0.00902956 </v>
   <v>       0.03719744      -0.02766623       0.00166354 </v>
   <v>       0.26368641       0.11455333       0.02462070 </v>
   <v>      -0.04792820       0.01893920       0.03741017 </v>
   <v>      -0.05985052       0.03528089       0.01601338 </v>
   <v>      -0.01866683      -0.06701402      -0.03612419 </v>
   <v>      -0.25415224       0.11962766      -0.00965750 </v>
   <v>       0.02821107       0.00083046      -0.02090136 </v>
   <v>      -0.00961511       0.03758358      -0.01608275 </v>
  </varray>
  <varray name="stress" >
   <v>      -9.69737822       0.26516270      -0.04774598 </v>
   <v>       0.26516266     -11.41972721      -0.35175056 </v>
   <v>      -0.04774595      -0.35175051     -12.72687719 </v>
  </varray>
  <energy>
   <i name="e_fr_energy">   -356.92343340 </i>
   <i name="e_wo_entrp">   -356.92826731 </i>
   <i name="e_0_energy">      0.01450172 </i>
  </energy>
  <time name="totalsc">    9.20    9.84</time>
 </calculation>
 <calculation>
  <scstep>
   <time name="dav">    0.92    0.93</time>
   <time name="total">    1.04    1.22</time>
   <energy>
    <i name="alphaZ">   1411.84273126 </i>
    <i name="ewald"> -18357.96335542 </i>
    <i name="hartreedc">  -6141.59480638 </i>
    <i name="XCdc">   -350.11787269 </i>
    <i name="pawpsdc">  32729.40264709 </i>
    <i name="pawaedc"> -31100.75247454 </i>
    <i name="eentropy">      0.01449612 </i>
    <i name="bandstr">  -2459.90051585 </i>
    <i name="atom">  23912.11929042 </i>
    <i name="e_fr_energy">   -356.94985999 </i>
    <i name="e_wo_entrp">   -356.96435611 </i>
    <i name="e_0_energy">   -356.95469203 </i>
   </energy>
  </scstep>
  <scstep>
   <time name="diag">    0.08    0.08</time>
   <time name="diis">    0.74    0.74</time>
   <time name="orth">    0.01    0.01</time>
   <time name="total">    0.90    0.95</time>
   <energy>
    <i name="e_fr_energy">   -356.99107873 </i>
    <i name="e_wo_entrp">   -357.00576736 </i>
    <i name="e_0_energy">   -356.99597494 </i>
   </energy>
  </scstep>
  <scstep>
   <time name="diag">    0.07    0.07</time>
   <time name="diis">    0.74    0.75</time>
   <time name="orth">    0.01    0.01</time>
   <time name="total">    0.89    0.93</time>
   <energy>
    <i name="e_fr_energy">   -356.97277449 </i>
    <i name="e_wo_entrp">   -356.98668163 </i>
    <i name="e_0_energy">   -356.97741020 </i>
   </energy>
  </scstep>
  <scstep>
   <time name="diag">    0.08    0.08</time>
   <time name="diis">    0.83    0.84</time>
   <time name="orth">    0.01    0.01</time>
   <time name="total">    0.98    1.03</time>
   <energy>
    <i name="e_fr_energy">   -356.96692198 </i>
    <i name="e_wo_entrp">   -356.98159317 </i>
    <i name="e_0_energy">   -356.97181238 </i>
   </energy>
  </scstep>
  <scstep>
   <time name="diag">    0.11    0.11</time>
   <time name="diis">    0.75    0.76</time>
   <time name="orth">    0.01    0.01</time>
   <time name="total">    0.94    0.98</time>
   <energy>
    <i name="e_fr_energy">   -356.96628111 </i>
    <i name="e_wo_entrp">   -356.98055912 </i>
    <i name="e_0_energy">   -356.97104044 </i>
   </energy>
  </scstep>
  <scstep>
   <time name="diag">    0.07    0.07</time>
   <time name="diis">    0.77    0.78</time>
   <time name="orth">    0.03    0.03</time>
   <time name="total">    0.95    1.00</time>
   <energy>
    <i name="e_fr_energy">   -356.96631905 </i>
    <i name="e_wo_entrp">   -356.98080076 </i>
    <i name="e_0_energy">   -356.97114628 </i>
   </energy>
  </scstep>
  <scstep>
   <time name="diag">    0.07    0.07</time>
   <time name="diis">    0.78    0.79</time>
   <time name="orth">    0.01    0.01</time>
   <time name="total">    0.94    1.13</time>
   <energy>
    <i name="e_fr_energy">   -356.96635371 </i>
    <i name="e_wo_entrp">   -356.98074762 </i>
    <i name="e_0_energy">   -356.97115168 </i>
   </energy>
  </scstep>
  <scstep>
   <time name="diag">    0.07    0.07</time>
   <time name="diis">    0.70    0.71</time>
   <time name="orth">    0.01    0.01</time>
   <time name="total">    0.89    0.93</time>
   <energy>
    <i name="e_fr_energy">   -356.96642840 </i>
    <i name="e_wo_entrp">   -356.98086507 </i>
    <i name="e_0_energy">   -356.97124062 </i>
   </energy>
  </scstep>
  <scstep>
   <time name="diag">    0.09    0.09</time>
   <time name="diis">    0.72    0.73</time>
   <time name="orth">    0.01    0.01</time>
   <time name="total">    0.89    0.93</time>
   <energy>
    <i name="e_fr_energy">   -356.96645071 </i>
    <i name="e_wo_entrp">   -356.98085272 </i>
    <i name="e_0_energy">   -356.97125138 </i>
   </energy>
  </scstep>
  <scstep>
   <time name="diag">    0.08    0.08</time>
   <time name="diis">    0.59    0.59</time>
   <time name="orth">    0.01    0.01</time>
   <time name="total">    0.74    0.78</time>
   <energy>
    <i name="e_fr_energy">   -356.96646991 </i>
    <i name="e_wo_entrp">   -356.98087617 </i>
    <i name="e_0_energy">   -356.97127200 </i>
   </energy>
  </scstep>
  <scstep>
   <time name="diag">    0.07    0.07</time>
   <time name="diis">    0.48    0.48</time>
   <time name="orth">    0.01    0.01</time>
   <time name="total">    0.60    0.63</time>
   <energy>
    <i name="alphaZ">   1411.84273126 </i>
    <i name="ewald"> -18357.96335542 </i>
    <i name="hartreedc">  -6130.79798655 </i>
    <i name="XCdc">   -350.58647378 </i>
    <i name="pawpsdc">  32884.24966654 </i>
    <i name="pawaedc"> -31255.31122700 </i>
    <i name="eentropy">      0.01441599 </i>
    <i name="bandstr">  -2470.53353697 </i>
    <i name="atom">  23912.11929042 </i>
    <i name="e_fr_energy">   -356.96647551 </i>
    <i name="e_wo_entrp">   -356.98089150 </i>
    <i name="e_0_energy">   -356.97128084 </i>
   </energy>
  </scstep>
  <structure>
   <crystal>
    <varray name="basis" >
     <v>       7.06147894       0.01611898      -0.03424483 </v>
     <v>       0.02426776      10.27006645      -0.02205589 </v>
     <v>      -0.05100347      -0.02213235      10.32794050 </v>
    </varray>
    <i name="volume">    748.97604610 </i>
    <varray name="rec_basis" >
     <v>       0.14161754      -0.00033314       0.00069865 </v>
     <v>      -0.00022126       0.09737132       0.00020757 </v>
     <v>       0.00046910       0.00020684       0.09682748 </v>
    </varray>
   </crystal>
   <varray name="positions" >
    <v>       0.96277181       0.32149671       0.67451649 </v>
    <v>       0.75137189       0.15870874       0.16528029 </v>
    <v>       0.01581378       0.99574698       0.67459665 </v>
    <v>       0.99532379       0.34297575       0.32061884 </v>
    <v>       0.22725006       0.49994040       0.51329282 </v>
    <v>       0.00167016       0.66396509       0.31444516 </v>
    <v>       0.46636038       0.98645943       0.01651975 </v>
    <v>       0.48742043       0.00223412       0.32950724 </v>
    <v>       0.53411996       0.33347276       0.65253574 </v>
    <v>       0.73351875       0.83828721       0.83855627 </v>
    <v>       0.99727295       0.33655175       0.00395129 </v>
    <v>       0.50359067       0.66302157       0.32708039 </v>
    <v>       0.72365115       0.15325861       0.84459554 </v>
    <v>       0.02308071       0.99729760       0.00220242 </v>
    <v>       0.23236928       0.16973193       0.50250752 </v>
    <v>       0.27350379       0.17875794       0.82918422 </v>
    <v>       0.00014101       0.66677292       0.00470998 </v>
    <v>       0.50378425       0.33297160       0.33431882 </v>
    <v>       0.78721501       0.52196690       0.51009427 </v>
    <v>       0.49552966       0.66948011       0.66456118 </v>
    <v>       0.76034836       0.84022709       0.50085170 </v>
    <v>       0.25590783       0.49618927       0.83307428 </v>
    <v>       0.01873248       0.68433187       0.68170890 </v>
    <v>       0.26896543       0.82647224       0.82461638 </v>
    <v>       0.50147878       0.34083881       0.00387432 </v>
    <v>       0.74255442       0.50842695       0.84391910 </v>
    <v>       0.24006350       0.17337020       0.16865029 </v>
    <v>       0.75179562       0.84473968       0.16252855 </v>
    <v>       0.00579579       0.99270520       0.32734533 </v>
    <v>       0.27760036       0.49833375       0.15106202 </v>
    <v>       0.24554713       0.82719252       0.18500785 </v>
    <v>       0.24215071       0.83342447       0.49314639 </v>
    <v>       0.48298066       0.99315220       0.65671010 </v>
    <v>       0.72418245       0.49489362       0.14883756 </v>
    <v>       0.76339710       0.14515432       0.49083146 </v>
    <v>       0.50274289       0.66745472       0.00476893 </v>
   </varray>
  </structure>
  <varray name="forces" >
   <v>       0.01096857      -0.03395274       0.08511681 </v>
   <v>      -0.00806202      -0.08735910       0.03107149 </v>
   <v>       0.00508231      -0.01023763       0.00971168 </v>
   <v>      -0.01015194       0.05003635      -0.11118312 </v>
   <v>      -0.02691568      -0.01310124      -0.02635260 </v>
   <v>      -0.00278918      -0.08149559      -0.02624294 </v>
   <v>      -0.05811265      -0.03803984       0.03402859 </v>
   <v>      -0.00661376      -0.07785731       0.07354587 </v>
   <v>       0.06358007       0.04881231      -0.04524914 </v>
   <v>       0.00588566      -0.03882289       0.01480717 </v>
   <v>      -0.04045960       0.05621963       0.06047558 </v>
   <v>       0.00101372       0.13494278       0.16523321 </v>
   <v>      -0.03803860      -0.08179436      -0.03824234 </v>
   <v>       0.02262965       0.07315241       0.01167999 </v>
   <v>      -0.00410432      -0.00442005      -0.09630120 </v>
   <v>       0.04206963       0.02660064      -0.07270381 </v>
   <v>      -0.00503832      -0.08142946       0.02460835 </v>
   <v>       0.01250923      -0.04387873       0.10756057 </v>
   <v>       0.04488078       0.00406869      -0.00990247 </v>
   <v>      -0.01810136       0.05518491      -0.07571730 </v>
   <v>       0.07150722       0.04041436      -0.00341778 </v>
   <v>       0.01752742      -0.03535142      -0.00593345 </v>
   <v>      -0.01457178       0.05530508      -0.01768191 </v>
   <v>      -0.02963983      -0.02106327       0.00763367 </v>
   <v>       0.00914227       0.04697343       0.00129846 </v>
   <v>      -0.01264281       0.05625317      -0.00148096 </v>
   <v>      -0.01300490      -0.05738058       0.12031885 </v>
   <v>       0.04669342      -0.00524339      -0.00203138 </v>
   <v>       0.04889983      -0.00967692       0.03263448 </v>
   <v>       0.03584559       0.01192882      -0.06029468 </v>
   <v>      -0.07467889       0.00448011       0.00689748 </v>
   <v>      -0.07776358       0.02210550       0.02610982 </v>
   <v>      -0.01138360      -0.09433381      -0.07235243 </v>
   <v>       0.00746872      -0.01309855      -0.03258229 </v>
   <v>       0.03806195       0.03088087      -0.02206791 </v>
   <v>      -0.03169321       0.11117784      -0.09299434 </v>
  </varray>
  <varray name="stress" >
   <v>      -6.09465533       0.55238843      -0.15729849 </v>
   <v>       0.55238842      -6.85633537      -0.17757381 </v>
   <v>      -0.15729848      -0.17757389      -7.89233970 </v>
  </varray>
  <energy>
   <i name="e_fr_energy">   -356.96647551 </i>
   <i name="e_wo_entrp">   -356.97128084 </i>
   <i name="e_0_energy">      0.01441599 </i>
  </energy>
  <time name="totalsc">   11.32   12.23</time>
 </calculation>
 <calculation>
  <scstep>
   <time name="dav">    0.89    0.90</time>
   <time name="total">    1.01    1.20</time>
   <energy>
    <i name="alphaZ">   1413.74463617 </i>
    <i name="ewald"> -18367.49888796 </i>
    <i name="hartreedc">  -6132.11964875 </i>
    <i name="XCdc">   -350.20354877 </i>
    <i name="pawpsdc">  32884.86987331 </i>
    <i name="pawaedc"> -31255.90084212 </i>
    <i name="eentropy">      0.01449560 </i>
    <i name="bandstr">  -2461.99279678 </i>
    <i name="atom">  23912.11929042 </i>
    <i name="e_fr_energy">   -356.96742888 </i>
    <i name="e_wo_entrp">   -356.98192448 </i>
    <i name="e_0_energy">   -356.97226075 </i>
   </energy>
  </scstep>
  <scstep>
   <time name="diag">    0.12    0.12</time>
   <time name="diis">    0.75    0.75</time>
   <time name="orth">    0.01    0.01</time>
   <time name="total">    0.95    0.99</time>
   <energy>
    <i name="e_fr_energy">   -356.97541755 </i>
    <i name="e_wo_entrp">   -356.99002165 </i>
    <i name="e_0_energy">   -356.98028559 </i>
   </energy>
  </scstep>
  <scstep>
   <time name="diag">    0.07    0.08</time>
   <time name="diis">    0.75    0.75</time>
   <time name="orth">    0.01    0.01</time>
   <time name="total">    0.90    0.96</time>
   <energy>
    <i name="e_fr_energy">   -356.97222449 </i>
    <i name="e_wo_entrp">   -356.98643858 </i>
    <i name="e_0_energy">   -356.97696252 </i>
   </energy>
  </scstep>
  <scstep>
   <time name="diag">    0.08    0.08</time>
   <time name="diis">    0.75    0.75</time>
   <time name="orth">    0.01    0.01</time>
   <time name="total">    0.90    0.94</time>
   <energy>
    <i name="e_fr_energy">   -356.97104689 </i>
    <i name="e_wo_entrp">   -356.98560905 </i>
    <i name="e_0_energy">   -356.97590094 </i>
   </energy>
  </scstep>
  <scstep>
   <time name="diag">    0.08    0.08</time>
   <time name="diis">    0.76    0.77</time>
   <time name="orth">    0.01    0.01</time>
   <time name="total">    0.92    0.96</time>
   <energy>
    <i name="e_fr_energy">   -356.97093901 </i>
    <i name="e_wo_entrp">   -356.98532559 </i>
    <i name="e_0_energy">   -356.97573454 </i>
   </energy>
  </scstep>
  <scstep>
   <time name="diag">    0.07    0.07</time>
   <time name="diis">    0.82    0.86</time>
   <time name="orth">    0.01    0.01</time>
   <time name="total">    0.97    1.04</time>
   <energy>
    <i name="e_fr_energy">   -356.97094623 </i>
    <i name="e_wo_entrp">   -356.98542224 </i>
    <i name="e_0_energy">   -356.97577157 </i>
   </energy>
  </scstep>
  <scstep>
   <time name="diag">    0.07    0.08</time>
   <time name="diis">    0.72    0.72</time>
   <time name="orth">    0.01    0.01</time>
   <time name="total">    0.87    0.91</time>
   <energy>
    <i name="e_fr_energy">   -356.97095996 </i>
    <i name="e_wo_entrp">   -356.98540280 </i>
    <i name="e_0_energy">   -356.97577424 </i>
   </energy>
  </scstep>
  <scstep>
   <time name="diag">    0.07    0.07</time>
   <time name="diis">    0.56    0.56</time>
   <time name="orth">    0.01    0.01</time>
   <time name="total">    0.71    0.75</time>
   <energy>
    <i name="e_fr_energy">   -356.97097866 </i>
    <i name="e_wo_entrp">   -356.98543864 </i>
    <i name="e_0_energy">   -356.97579866 </i>
   </energy>
  </scstep>
  <scstep>
[...]
       <r>    6.5120    1.0000 </r>
       <r>    6.5642    1.0000 </r>
       <r>    6.5869    1.0000 </r>
       <r>    6.6255    1.0000 </r>
       <r>    6.6878    1.0000 </r>
       <r>    6.7149    1.0000 </r>
       <r>    6.7577    1.0000 </r>
       <r>    6.7985    1.0000 </r>
       <r>    6.8528    1.0003 </r>
       <r>    6.8704    1.0005 </r>
       <r>    6.9110    1.0017 </r>
       <r>    6.9455    1.0042 </r>
       <r>    6.9646    1.0066 </r>
       <r>    7.0049    1.0148 </r>
       <r>    7.0373    1.0243 </r>
       <r>    7.0664    1.0325 </r>
       <r>    7.0944    1.0353 </r>
       <r>    7.1405    1.0089 </r>
       <r>    7.1617    0.9746 </r>
       <r>    7.1723    0.9506 </r>
       <r>    7.2279    0.7438 </r>
       <r>    7.2562    0.5963 </r>
       <r>    7.3365    0.1763 </r>
       <r>    7.3754    0.0472 </r>
       <r>    7.3971    0.0039 </r>
       <r>    7.4259   -0.0268 </r>
       <r>    7.4398   -0.0331 </r>
       <r>    7.5020   -0.0266 </r>
       <r>    7.5421   -0.0148 </r>
       <r>    7.5947   -0.0049 </r>
       <r>    7.6185   -0.0027 </r>
       <r>    7.6675   -0.0006 </r>
       <r>    7.6996   -0.0002 </r>
       <r>    7.7298   -0.0001 </r>
       <r>    7.7947   -0.0000 </r>
       <r>    7.8200   -0.0000 </r>
       <r>    7.8717   -0.0000 </r>
       <r>    7.9075   -0.0000 </r>
       <r>    7.9363   -0.0000 </r>
       <r>    8.0384   -0.0000 </r>
       <r>    8.1007   -0.0000 </r>
       <r>    8.1092   -0.0000 </r>
       <r>    8.2169   -0.0000 </r>
       <r>    8.2904   -0.0000 </r>
       <r>    8.3365   -0.0000 </r>
       <r>    8.4327   -0.0000 </r>
       <r>    8.5476   -0.0000 </r>
       <r>    8.6336   -0.0000 </r>
       <r>    9.0649   -0.0000 </r>
      </set>
     </set>
    </set>
   </array>
  </eigenvalues>
  <separator name="orbital magnetization" >
   <v name="MAGDIPOLOUT">      0.00000000      0.00000000      0.00000000</v>
  </separator>
  <dos>
   <i name="efermi">      7.27339815 </i>
   <total>
    <array>
     <dimension dim="1">gridpoints</dimension>
     <dimension dim="2">spin</dimension>
     <field>energy</field>
     <field>total</field>
     <field>integrated</field>
     <set>
      <set comment="spin 1">
       <r>   -49.9059     0.0000     0.0000 </r>
       <r>   -49.6998     0.0000     0.0000 </r>
       <r>   -49.4938     0.0000     0.0000 </r>
       <r>   -49.2877     0.0000     0.0000 </r>
       <r>   -49.0817     0.0000     0.0000 </r>
       <r>   -48.8756     0.0000     0.0000 </r>
       <r>   -48.6696     0.0000     0.0000 </r>
       <r>   -48.4635    -0.0000    -0.0000 </r>
       <r>   -48.2575    -0.0000    -0.0000 </r>
       <r>   -48.0514    -0.0000    -0.0000 </r>
       <r>   -47.8454    -0.0000    -0.0000 </r>
       <r>   -47.6393    -0.0000    -0.0000 </r>
       <r>   -47.4333    -0.0322    -0.0066 </r>
       <r>   -47.2272    -0.1440    -0.0363 </r>
       <r>   -47.0212     8.7562     1.7679 </r>
       <r>   -46.8151    25.3309     6.9873 </r>
       <r>   -46.6091    15.4539    10.1716 </r>
       <r>   -46.4030    -0.8121    10.0042 </r>
       <r>   -46.1970    -0.0205    10.0000 </r>
       <r>   -45.9909    -0.0000    10.0000 </r>
       <r>   -45.7849    -0.0000    10.0000 </r>
       <r>   -45.5788     0.0000    10.0000 </r>
       <r>   -45.3728     0.0000    10.0000 </r>
       <r>   -45.1667     0.0000    10.0000 </r>
       <r>   -44.9607     0.0000    10.0000 </r>
       <r>   -44.7547     0.0000    10.0000 </r>
       <r>   -44.5486     0.0000    10.0000 </r>
       <r>   -44.3426     0.0000    10.0000 </r>
       <r>   -44.1365     0.0000    10.0000 </r>
       <r>   -43.9305     0.0000    10.0000 </r>
       <r>   -43.7244     0.0000    10.0000 </r>
       <r>   -43.5184     0.0000    10.0000 </r>
       <r>   -43.3123     0.0000    10.0000 </r>
       <r>   -43.1063     0.0000    10.0000 </r>
       <r>   -42.9002     0.0000    10.0000 </r>
       <r>   -42.6942     0.0000    10.0000 </r>
       <r>   -42.4881     0.0000    10.0000 </r>
       <r>   -42.2821    -0.0000    10.0000 </r>
       <r>   -42.0760    -0.0000    10.0000 </r>
       <r>   -41.8700    -0.0000    10.0000 </r>
       <r>   -41.6639    -0.0000    10.0000 </r>
       <r>   -41.4579    -0.0011     9.9998 </r>
       <r>   -41.2518    -0.6274     9.8705 </r>
       <r>   -41.0458     4.7444    10.8481 </r>
       <r>   -40.8397    86.6605    28.7044 </r>
       <r>   -40.6337    17.3652    32.2825 </r>
       <r>   -40.4276    -1.3646    32.0013 </r>
       <r>   -40.2216    -0.0063    32.0000 </r>
       <r>   -40.0155    -0.0000    32.0000 </r>
       <r>   -39.8095    -0.0000    32.0000 </r>
       <r>   -39.6034     0.0000    32.0000 </r>
       <r>   -39.3974     0.0000    32.0000 </r>
       <r>   -39.1913     0.0000    32.0000 </r>
       <r>   -38.9853     0.0000    32.0000 </r>
       <r>   -38.7792     0.0000    32.0000 </r>
       <r>   -38.5732     0.0000    32.0000 </r>
       <r>   -38.3671     0.0000    32.0000 </r>
       <r>   -38.1611     0.0000    32.0000 </r>
       <r>   -37.9550     0.0000    32.0000 </r>
       <r>   -37.7490     0.0000    32.0000 </r>
       <r>   -37.5429     0.0000    32.0000 </r>
       <r>   -37.3369     0.0000    32.0000 </r>
       <r>   -37.1308     0.0000    32.0000 </r>
       <r>   -36.9248     0.0000    32.0000 </r>
       <r>   -36.7187     0.0000    32.0000 </r>
       <r>   -36.5127     0.0000    32.0000 </r>
       <r>   -36.3066     0.0000    32.0000 </r>
       <r>   -36.1006     0.0000    32.0000 </r>
       <r>   -35.8945     0.0000    32.0000 </r>
       <r>   -35.6885     0.0000    32.0000 </r>
       <r>   -35.4824     0.0000    32.0000 </r>
       <r>   -35.2764     0.0000    32.0000 </r>
       <r>   -35.0703     0.0000    32.0000 </r>
       <r>   -34.8643     0.0000    32.0000 </r>
       <r>   -34.6583     0.0000    32.0000 </r>
       <r>   -34.4522     0.0000    32.0000 </r>
       <r>   -34.2462     0.0000    32.0000 </r>
       <r>   -34.0401     0.0000    32.0000 </r>
       <r>   -33.8341     0.0000    32.0000 </r>
       <r>   -33.6280     0.0000    32.0000 </r>
       <r>   -33.4220     0.0000    32.0000 </r>
       <r>   -33.2159     0.0000    32.0000 </r>
       <r>   -33.0099     0.0000    32.0000 </r>
       <r>   -32.8038     0.0000    32.0000 </r>
       <r>   -32.5978     0.0000    32.0000 </r>
       <r>   -32.3917     0.0000    32.0000 </r>
       <r>   -32.1857     0.0000    32.0000 </r>
       <r>   -31.9796     0.0000    32.0000 </r>
       <r>   -31.7736     0.0000    32.0000 </r>
       <r>   -31.5675     0.0000    32.0000 </r>
       <r>   -31.3615     0.0000    32.0000 </r>
       <r>   -31.1554     0.0000    32.0000 </r>
       <r>   -30.9494     0.0000    32.0000 </r>
       <r>   -30.7433     0.0000    32.0000 </r>
       <r>   -30.5373     0.0000    32.0000 </r>
       <r>   -30.3312     0.0000    32.0000 </r>
       <r>   -30.1252     0.0000    32.0000 </r>
       <r>   -29.9191     0.0000    32.0000 </r>
       <r>   -29.7131     0.0000    32.0000 </r>
       <r>   -29.5070     0.0000    32.0000 </r>
       <r>   -29.3010     0.0000    32.0000 </r>
       <r>   -29.0949     0.0000    32.0000 </r>
       <r>   -28.8889     0.0000    32.0000 </r>
       <r>   -28.6828     0.0000    32.0000 </r>
       <r>   -28.4768     0.0000    32.0000 </r>
       <r>   -28.2707     0.0000    32.0000 </r>
       <r>   -28.0647     0.0000    32.0000 </r>
       <r>   -27.8586     0.0000    32.0000 </r>
       <r>   -27.6526     0.0000    32.0000 </r>
       <r>   -27.4465     0.0000    32.0000 </r>
       <r>   -27.2405     0.0000    32.0000 </r>
       <r>   -27.0344     0.0000    32.0000 </r>
       <r>   -26.8284     0.0000    32.0000 </r>
       <r>   -26.6223     0.0000    32.0000 </r>
       <r>   -26.4163     0.0000    32.0000 </r>
       <r>   -26.2102     0.0000    32.0000 </r>
       <r>   -26.0042     0.0000    32.0000 </r>
       <r>   -25.7981     0.0000    32.0000 </r>
       <r>   -25.5921     0.0000    32.0000 </r>
       <r>   -25.3860     0.0000    32.0000 </r>
       <r>   -25.1800     0.0000    32.0000 </r>
       <r>   -24.9739     0.0000    32.0000 </r>
       <r>   -24.7679    -0.0000    32.0000 </r>
       <r>   -24.5618    -0.0000    32.0000 </r>
       <r>   -24.3558    -0.0000    32.0000 </r>
       <r>   -24.1498    -0.0000    32.0000 </r>
       <r>   -23.9437    -0.0000    32.0000 </r>
       <r>   -23.7377    -0.0127    31.9974 </r>
       <r>   -23.5316    -0.6089    31.8719 </r>
       <r>   -23.3256     9.9274    33.9175 </r>
       <r>   -23.1195    32.5193    40.6180 </r>
       <r>   -22.9135    67.7706    54.5821 </r>
       <r>   -22.7074    28.1042    60.3729 </r>
       <r>   -22.5014     8.0953    62.0410 </r>
       <r>   -22.2953    -0.1688    62.0062 </r>
       <r>   -22.0893    -0.0300    62.0000 </r>
       <r>   -21.8832    -0.0000    62.0000 </r>
       <r>   -21.6772    -0.0000    62.0000 </r>
       <r>   -21.4711     0.0000    62.0000 </r>
       <r>   -21.2651     0.0000    62.0000 </r>
       <r>   -21.0590     0.0000    62.0000 </r>
       <r>   -20.8530     0.0000    62.0000 </r>
       <r>   -20.6469    -0.0000    62.0000 </r>
       <r>   -20.4409    -0.0000    62.0000 </r>
       <r>   -20.2348    -0.0000    62.0000 </r>
       <r>   -20.0288    -0.0000    62.0000 </r>
       <r>   -19.8227    -0.0005    61.9999 </r>
       <r>   -19.6167    -0.2607    61.9462 </r>
       <r>   -19.4106     0.5850    62.0667 </r>
       <r>   -19.2046    48.6665    72.0944 </r>
       <r>   -18.9985   129.7988    98.8393 </r>
       <r>   -18.7925   119.5311   123.4686 </r>
       <r>   -18.5864    23.5740   128.3260 </r>
       <r>   -18.3804    -1.5495   128.0067 </r>
       <r>   -18.1743    -0.0325   128.0000 </r>
       <r>   -17.9683    -0.0000   128.0000 </r>
       <r>   -17.7622    -0.0000   128.0000 </r>
       <r>   -17.5562     0.0000   128.0000 </r>
       <r>   -17.3501     0.0000   128.0000 </r>
       <r>   -17.1441     0.0000   128.0000 </r>
       <r>   -16.9380     0.0000   128.0000 </r>
       <r>   -16.7320     0.0000   128.0000 </r>
       <r>   -16.5259     0.0000   128.0000 </r>
       <r>   -16.3199     0.0000   128.0000 </r>
       <r>   -16.1138     0.0000   128.0000 </r>
       <r>   -15.9078     0.0000   128.0000 </r>
       <r>   -15.7017     0.0000   128.0000 </r>
       <r>   -15.4957     0.0000   128.0000 </r>
       <r>   -15.2896     0.0000   128.0000 </r>
       <r>   -15.0836     0.0000   128.0000 </r>
       <r>   -14.8775     0.0000   128.0000 </r>
       <r>   -14.6715     0.0000   128.0000 </r>
       <r>   -14.4654     0.0000   128.0000 </r>
       <r>   -14.2594     0.0000   128.0000 </r>
       <r>   -14.0534     0.0000   128.0000 </r>
       <r>   -13.8473     0.0000   128.0000 </r>
       <r>   -13.6413     0.0000   128.0000 </r>
       <r>   -13.4352     0.0000   128.0000 </r>
       <r>   -13.2292     0.0000   128.0000 </r>
       <r>   -13.0231     0.0000   128.0000 </r>
       <r>   -12.8171     0.0000   128.0000 </r>
       <r>   -12.6110     0.0000   128.0000 </r>
       <r>   -12.4050     0.0000   128.0000 </r>
       <r>   -12.1989     0.0000   128.0000 </r>
       <r>   -11.9929     0.0000   128.0000 </r>
       <r>   -11.7868     0.0000   128.0000 </r>
       <r>   -11.5808     0.0000   128.0000 </r>
       <r>   -11.3747     0.0000   128.0000 </r>
       <r>   -11.1687     0.0000   128.0000 </r>
       <r>   -10.9626     0.0000   128.0000 </r>
       <r>   -10.7566     0.0000   128.0000 </r>
       <r>   -10.5505     0.0000   128.0000 </r>
       <r>   -10.3445     0.0000   128.0000 </r>
       <r>   -10.1384     0.0000   128.0000 </r>
       <r>    -9.9324     0.0000   128.0000 </r>
       <r>    -9.7263     0.0000   128.0000 </r>
       <r>    -9.5203     0.0000   128.0000 </r>
       <r>    -9.3142     0.0000   128.0000 </r>
       <r>    -9.1082     0.0000   128.0000 </r>
       <r>    -8.9021     0.0000   128.0000 </r>
       <r>    -8.6961     0.0000   128.0000 </r>
       <r>    -8.4900     0.0000   128.0000 </r>
       <r>    -8.2840     0.0000   128.0000 </r>
       <r>    -8.0779     0.0000   128.0000 </r>
       <r>    -7.8719     0.0000   128.0000 </r>
       <r>    -7.6658     0.0000   128.0000 </r>
       <r>    -7.4598     0.0000   128.0000 </r>
       <r>    -7.2537     0.0000   128.0000 </r>
       <r>    -7.0477     0.0000   128.0000 </r>
       <r>    -6.8416     0.0000   128.0000 </r>
       <r>    -6.6356     0.0000   128.0000 </r>
       <r>    -6.4295     0.0000   128.0000 </r>
       <r>    -6.2235     0.0000   128.0000 </r>
       <r>    -6.0174     0.0000   128.0000 </r>
       <r>    -5.8114     0.0000   128.0000 </r>
       <r>    -5.6053     0.0000   128.0000 </r>
       <r>    -5.3993     0.0000   128.0000 </r>
       <r>    -5.1932     0.0000   128.0000 </r>
       <r>    -4.9872     0.0000   128.0000 </r>
       <r>    -4.7811     0.0000   128.0000 </r>
       <r>    -4.5751     0.0000   128.0000 </r>
       <r>    -4.3690     0.0000   128.0000 </r>
       <r>    -4.1630     0.0000   128.0000 </r>
       <r>    -3.9570     0.0000   128.0000 </r>
       <r>    -3.7509     0.0000   128.0000 </r>
       <r>    -3.5449     0.0000   128.0000 </r>
       <r>    -3.3388     0.0000   128.0000 </r>
       <r>    -3.1328     0.0000   128.0000 </r>
       <r>    -2.9267     0.0000   128.0000 </r>
       <r>    -2.7207     0.0000   128.0000 </r>
       <r>    -2.5146     0.0000   128.0000 </r>
       <r>    -2.3086     0.0000   128.0000 </r>
       <r>    -2.1025     0.0000   128.0000 </r>
       <r>    -1.8965     0.0000   128.0000 </r>
       <r>    -1.6904     0.0000   128.0000 </r>
       <r>    -1.4844     0.0000   128.0000 </r>
       <r>    -1.2783     0.0000   128.0000 </r>
       <r>    -1.0723     0.0000   128.0000 </r>
       <r>    -0.8662     0.0000   128.0000 </r>
       <r>    -0.6602    -0.0000   128.0000 </r>
       <r>    -0.4541    -0.0000   128.0000 </r>
       <r>    -0.2481    -0.0000   128.0000 </r>
       <r>    -0.0420    -0.0000   128.0000 </r>
       <r>     0.1640    -0.0003   127.9999 </r>
       <r>     0.3701    -0.0132   127.9972 </r>
       <r>     0.5761     0.1998   128.0384 </r>
       <r>     0.7822     0.9694   128.2381 </r>
       <r>     0.9882     1.6512   128.5784 </r>
       <r>     1.1943     2.0104   128.9926 </r>
       <r>     1.4003     3.3176   129.6762 </r>
       <r>     1.6064     3.9296   130.4859 </r>
       <r>     1.8124     1.6269   130.8211 </r>
       <r>     2.0185     5.3575   131.9250 </r>
       <r>     2.2245     3.2373   132.5921 </r>
       <r>     2.4306     4.9486   133.6117 </r>
       <r>     2.6366     6.1172   134.8721 </r>
       <r>     2.8427     8.4195   136.6070 </r>
       <r>     3.0487     7.1928   138.0890 </r>
       <r>     3.2548     9.0468   139.9531 </r>
       <r>     3.4608     7.0591   141.4076 </r>
       <r>     3.6669    14.6376   144.4237 </r>
       <r>     3.8729    20.0551   148.5560 </r>
       <r>     4.0790    23.7041   153.4402 </r>
       <r>     4.2850    25.4374   158.6816 </r>
       <r>     4.4911    30.9187   165.0523 </r>
       <r>     4.6971    33.0223   171.8565 </r>
       <r>     4.9032    40.8525   180.2742 </r>
       <r>     5.1092    38.5438   188.2161 </r>
       <r>     5.3153    35.2362   195.4765 </r>
       <r>     5.5213    32.7715   202.2290 </r>
       <r>     5.7274    26.1086   207.6087 </r>
       <r>     5.9334    23.5659   212.4644 </r>
       <r>     6.1394    53.5962   223.5078 </r>
       <r>     6.3455    58.1564   235.4909 </r>
       <r>     6.5515    60.0667   247.8676 </r>
       <r>     6.7576    54.8023   259.1595 </r>
       <r>     6.9636    55.0853   270.5098 </r>
       <r>     7.1697    51.8281   281.1889 </r>
       <r>     7.3757    45.7673   290.6193 </r>
       <r>     7.5818    50.1969   300.9623 </r>
       <r>     7.7878    49.2474   311.1097 </r>
       <r>     7.9939    40.2126   319.3954 </r>
       <r>     8.1999    35.1461   326.6373 </r>
       <r>     8.4060    29.2815   332.6707 </r>
       <r>     8.6120    21.2238   337.0438 </r>
       <r>     8.8181    16.4011   340.4233 </r>
       <r>     9.0241    12.3089   342.9595 </r>
       <r>     9.2302     5.3056   344.0527 </r>
       <r>     9.4362    -0.2457   344.0021 </r>
       <r>     9.6423    -0.0101   344.0000 </r>
       <r>     9.8483    -0.0000   344.0000 </r>
       <r>    10.0544    -0.0000   344.0000 </r>
       <r>    10.2604     0.0000   344.0000 </r>
       <r>    10.4665     0.0000   344.0000 </r>
       <r>    10.6725     0.0000   344.0000 </r>
       <r>    10.8786     0.0000   344.0000 </r>
       <r>    11.0846     0.0000   344.0000 </r>
       <r>    11.2907     0.0000   344.0000 </r>
       <r>    11.4967     0.0000   344.0000 </r>
       <r>    11.7028     0.0000   344.0000 </r>
       <r>    11.9088     0.0000   344.0000 </r>
      </set>
     </set>
    </array>
   </total>
  </dos>
 </calculation>
 <structure name="finalpos" >
  <crystal>
   <varray name="basis" >
    <v>       7.08108015       0.03437485      -0.02602144 </v>
    <v>       0.05076104      10.26805268      -0.02878381 </v>
    <v>      -0.03964301      -0.02924643      10.25681239 </v>
   </varray>
   <i name="volume">    745.72721474 </i>
   <varray name="rec_basis" >
    <v>       0.14122677      -0.00069664       0.00054386 </v>
    <v>      -0.00047177       0.09739256       0.00027588 </v>
    <v>       0.00035697       0.00027155       0.09749833 </v>
   </varray>
  </crystal>
  <varray name="positions" >
   <v>       0.96855389       0.31749681       0.67848352 </v>
   <v>       0.74462945       0.15517070       0.16819672 </v>
   <v>       0.01676888       0.00084525       0.67635820 </v>
   <v>       0.99316579       0.34384621       0.31624066 </v>
   <v>       0.22728006       0.49765638       0.51159940 </v>
   <v>       0.00018933       0.66070426       0.31363497 </v>
   <v>       0.46258174       0.98503324       0.01731160 </v>
   <v>       0.48728939      -0.00590706       0.33178709 </v>
   <v>       0.53659529       0.33635361       0.65120302 </v>
   <v>       0.73466537       0.83766239       0.83753052 </v>
   <v>       0.99650633       0.33522534       0.00555367 </v>
   <v>       0.50264908       0.66783024       0.33036838 </v>
   <v>       0.71931530       0.15112167       0.84372729 </v>
   <v>       0.02135143       0.00332078       0.00221072 </v>
   <v>       0.23752916       0.17014766       0.49509967 </v>
   <v>       0.28056607       0.18014286       0.82837457 </v>
   <v>      -0.00072035       0.66537671       0.00326097 </v>
   <v>       0.50938157       0.33552666       0.33816029 </v>
   <v>       0.79253893       0.51887241       0.51199054 </v>
   <v>       0.49487758       0.67194508       0.66046428 </v>
   <v>       0.76793858       0.84215016       0.50275375 </v>
   <v>       0.25766315       0.49529074       0.83274740 </v>
   <v>       0.01876967       0.68299443       0.68104012 </v>
   <v>       0.26358239       0.82593733       0.82519161 </v>
   <v>       0.50371153       0.34171360       0.00462372 </v>
   <v>       0.74433578       0.50964062       0.84215362 </v>
   <v>       0.24356646       0.17049245       0.17981341 </v>
   <v>       0.75454103       0.84452293       0.15981037 </v>
   <v>       0.00612166       0.99367760       0.32775866 </v>
   <v>       0.28052419       0.50206376       0.15110328 </v>
   <v>       0.23701692       0.82546836       0.18120371 </v>
   <v>       0.23227174       0.83315437       0.49576115 </v>
   <v>       0.48120076       0.98904581       0.65542088 </v>
   <v>       0.72152803       0.49875441       0.14706350 </v>
   <v>       0.76192586       0.14683634       0.49099470 </v>
   <v>       0.49959094       0.66989090       0.00101205 </v>
  </varray>
 </structure>
</modeling>
