       N       E                     dE             d eps       ncg     rms          rms(c)
DAV:   1     0.133566829795E+04    0.13357E+04   -0.91213E+04  4752   0.100E+03
DAV:   2    -0.149491459649E+03   -0.14852E+04   -0.14264E+04  4928   0.340E+02
DAV:   3    -0.354950611826E+03   -0.20546E+03   -0.19434E+03  7520   0.942E+01
DAV:   4    -0.379448279206E+03   -0.24498E+02   -0.23211E+02  7344   0.282E+01
DAV:   5    -0.381902315923E+03   -0.24540E+01   -0.23867E+01  7208   0.933E+00    0.658E+01
RMM:   6    -0.371512839879E+03    0.10389E+02   -0.21542E+01  6125   0.929E+00    0.322E+01
RMM:   7    -0.370062349342E+03    0.14505E+01   -0.23103E+01  6234   0.851E+00    0.776E+00
RMM:   8    -0.367078038769E+03    0.29843E+01   -0.43804E+00  6927   0.331E+00    0.367E+00
RMM:   9    -0.366940976769E+03    0.13706E+00   -0.15609E+00  6898   0.161E+00    0.257E+00
RMM:  10    -0.366912147501E+03    0.28829E-01   -0.35919E-01  6842   0.115E+00    0.121E+00
RMM:  11    -0.366888642267E+03    0.23505E-01   -0.10520E-01  6903   0.515E-01    0.602E-01
RMM:  12    -0.366888464578E+03    0.17769E-03   -0.49904E-02  6942   0.290E-01    0.389E-01
RMM:  13    -0.366887270435E+03    0.11941E-02   -0.17021E-02  6950   0.173E-01    0.226E-01
RMM:  14    -0.366887705091E+03   -0.43466E-03   -0.80486E-03  7007   0.102E-01    0.118E-01
RMM:  15    -0.366887861522E+03   -0.15643E-03   -0.36403E-03  7013   0.616E-02    0.493E-02
RMM:  16    -0.366887969929E+03   -0.10841E-03   -0.17152E-03  6087   0.371E-02    0.298E-02
RMM:  17    -0.366888007680E+03   -0.37751E-04   -0.71034E-04  5636   0.253E-02    0.154E-02
RMM:  18    -0.366888031519E+03   -0.23839E-04   -0.33587E-04  4874   0.179E-02    0.822E-03
RMM:  19    -0.366888044640E+03   -0.13121E-04   -0.17506E-04  3987   0.135E-02    0.421E-03
RMM:  20    -0.366888047927E+03   -0.32873E-05   -0.60239E-05  3689   0.110E-02
   1 F= -.36688805E+03 E0= -.36689819E+03  d E =-.366888E+03
       N       E                     dE             d eps       ncg     rms          rms(c)
DAV:   1    -0.366890589107E+03   -0.25445E-02   -0.75631E-02  5292   0.939E-01    0.343E-01
RMM:   2    -0.366889943335E+03    0.64577E-03   -0.82126E-03  6828   0.246E-01    0.120E-01
RMM:   3    -0.366889583338E+03    0.36000E-03   -0.18061E-03  6876   0.763E-02    0.889E-02
RMM:   4    -0.366889369102E+03    0.21424E-03   -0.52435E-04  6860   0.500E-02    0.456E-02
RMM:   5    -0.366889348971E+03    0.20132E-04   -0.15439E-04  6255   0.261E-02    0.318E-02
RMM:   6    -0.366889361025E+03   -0.12054E-04   -0.54792E-05  3711   0.151E-02    0.230E-02
RMM:   7    -0.366889368549E+03   -0.75242E-05   -0.22371E-05  2900   0.133E-02
   2 F= -.36688937E+03 E0= -.36689950E+03  d E =-.132062E-02
       N       E                     dE             d eps       ncg     rms          rms(c)
DAV:   1    -0.366894655511E+03   -0.52945E-02   -0.27582E-01  5032   0.180E+00    0.653E-01
RMM:   2    -0.366892276585E+03    0.23789E-02   -0.29458E-02  6793   0.469E-01    0.227E-01
RMM:   3    -0.366890966061E+03    0.13105E-02   -0.64059E-03  6893   0.144E-01    0.168E-01
RMM:   4    -0.366890192572E+03    0.77349E-03   -0.18732E-03  6955   0.953E-02    0.870E-02
RMM:   5    -0.366890119012E+03    0.73560E-04   -0.54395E-04  6787   0.478E-02    0.631E-02
RMM:   6    -0.366890155854E+03   -0.36842E-04   -0.21836E-04  6275   0.268E-02    0.423E-02
RMM:   7    -0.366890174873E+03   -0.19019E-04   -0.89940E-05  5070   0.184E-02    0.238E-02
RMM:   8    -0.366890190375E+03   -0.15502E-04   -0.54642E-05  3658   0.153E-02    0.159E-02
RMM:   9    -0.366890204476E+03   -0.14100E-04   -0.33779E-05  3564   0.132E-02    0.829E-03
RMM:  10    -0.366890210131E+03   -0.56553E-05   -0.93299E-06  2824   0.108E-02
   3 F= -.36689021E+03 E0= -.36690033E+03  d E =-.216220E-02
       N       E                     dE             d eps       ncg     rms          rms(c)
DAV:   1    -0.366891097731E+03   -0.89326E-03   -0.71202E-02  4544   0.743E-01    0.865E-02
RMM:   2    -0.366891305019E+03   -0.20729E-03   -0.26535E-03  6604   0.145E-01    0.470E-02
RMM:   3    -0.366891223746E+03    0.81273E-04   -0.35760E-04  6492   0.393E-02    0.341E-02
RMM:   4    -0.366891212710E+03    0.11035E-04   -0.73644E-05  5282   0.161E-02    0.213E-02
RMM:   5    -0.366891209406E+03    0.33046E-05   -0.23816E-05  2921   0.105E-02
   4 F= -.36689121E+03 E0= -.36690134E+03  d E =-.999274E-03
       N       E                     dE             d eps       ncg     rms          rms(c)
DAV:   1    -0.366892036687E+03   -0.82398E-03   -0.63970E-01  4472   0.222E+00    0.258E-01
RMM:   2    -0.366893846306E+03   -0.18096E-02   -0.23283E-02  6576   0.430E-01    0.137E-01
RMM:   3    -0.366893151446E+03    0.69486E-03   -0.30620E-03  6793   0.114E-01    0.990E-02
RMM:   4    -0.366893059836E+03    0.91610E-04   -0.65359E-04  7025   0.441E-02    0.604E-02
RMM:   5    -0.366893043316E+03    0.16520E-04   -0.26202E-04  6588   0.275E-02    0.326E-02
RMM:   6    -0.366893034167E+03    0.91492E-05   -0.10122E-04  5851   0.183E-02    0.161E-02
RMM:   7    -0.366893032671E+03    0.14951E-05   -0.26719E-05  3012   0.115E-02
   5 F= -.36689303E+03 E0= -.36690318E+03  d E =-.282254E-02
       N       E                     dE             d eps       ncg     rms          rms(c)
DAV:   1    -0.366887526255E+03    0.55079E-02   -0.25613E+00  4392   0.445E+00    0.516E-01
RMM:   2    -0.366894736534E+03   -0.72103E-02   -0.93000E-02  6572   0.858E-01    0.274E-01
RMM:   3    -0.366892008869E+03    0.27277E-02   -0.12133E-02  6809   0.229E-01    0.198E-01
RMM:   4    -0.366891630491E+03    0.37838E-03   -0.25380E-03  7292   0.886E-02    0.120E-01
RMM:   5    -0.366891569407E+03    0.61084E-04   -0.10159E-03  6932   0.543E-02    0.649E-02
RMM:   6    -0.366891539798E+03    0.29609E-04   -0.40384E-04  7043   0.359E-02    0.324E-02
RMM:   7    -0.366891541022E+03   -0.12243E-05   -0.12955E-04  5127   0.180E-02    0.198E-02
RMM:   8    -0.366891542740E+03   -0.17181E-05   -0.73769E-05  4227   0.155E-02
   6 F= -.36689154E+03 E0= -.36690169E+03  d E =-.133261E-02
       N       E                     dE             d eps       ncg     rms          rms(c)
DAV:   1    -0.366891387934E+03    0.15309E-03   -0.13430E+00  4400   0.322E+00    0.371E-01
RMM:   2    -0.366895087108E+03   -0.36992E-02   -0.48267E-02  6539   0.622E-01    0.196E-01
RMM:   3    -0.366893529987E+03    0.15571E-02   -0.59310E-03  6775   0.166E-01    0.138E-01
RMM:   4    -0.366893333784E+03    0.19620E-03   -0.12111E-03  7096   0.618E-02    0.836E-02
RMM:   5    -0.366893300755E+03    0.33029E-04   -0.46891E-04  6910   0.376E-02    0.454E-02
RMM:   6    -0.366893294525E+03    0.62301E-05   -0.17878E-04  6652   0.248E-02    0.224E-02
RMM:   7    -0.366893298307E+03   -0.37821E-05   -0.46933E-05  3681   0.129E-02
   7 F= -.36689330E+03 E0= -.36690345E+03  d E =-.308818E-02
       N       E                     dE             d eps       ncg     rms          rms(c)
DAV:   1    -0.366894326128E+03   -0.10316E-02   -0.41780E-02  4840   0.704E-01    0.255E-01
RMM:   2    -0.366894041541E+03    0.28459E-03   -0.47724E-03  6832   0.188E-01    0.926E-02
RMM:   3    -0.366893817715E+03    0.22383E-03   -0.10808E-03  6895   0.598E-02    0.689E-02
RMM:   4    -0.366893686207E+03    0.13151E-03   -0.30086E-04  6713   0.377E-02    0.348E-02
RMM:   5    -0.366893666408E+03    0.19800E-04   -0.86368E-05  5611   0.207E-02    0.240E-02
RMM:   6    -0.366893662338E+03    0.40701E-05   -0.30922E-05  2989   0.118E-02
   8 F= -.36689366E+03 E0= -.36690381E+03  d E =-.364030E-03
       N       E                     dE             d eps       ncg     rms          rms(c)
DAV:   1    -0.366893988424E+03   -0.32202E-03   -0.18003E-02  4880   0.465E-01    0.161E-01
RMM:   2    -0.366893868176E+03    0.12025E-03   -0.19974E-03  6780   0.123E-01    0.583E-02
RMM:   3    -0.366893763453E+03    0.10472E-03   -0.41434E-04  6725   0.378E-02    0.420E-02
RMM:   4    -0.366893713309E+03    0.50144E-04   -0.12003E-04  5968   0.238E-02    0.229E-02
RMM:   5    -0.366893704056E+03    0.92533E-05   -0.29392E-05  2824   0.150E-02
   9 F= -.36689370E+03 E0= -.36690386E+03  d E =-.405749E-03
       N       E                     dE             d eps       ncg     rms          rms(c)
DAV:   1    -0.366893925053E+03   -0.21174E-03   -0.43212E-02  4464   0.612E-01    0.814E-02
RMM:   2    -0.366894031239E+03   -0.10619E-03   -0.20113E-03  6768   0.126E-01    0.403E-02
RMM:   3    -0.366894015502E+03    0.15737E-04   -0.24468E-04  6030   0.318E-02    0.289E-02
RMM:   4    -0.366894005348E+03    0.10154E-04   -0.70948E-05  4988   0.161E-02    0.168E-02
RMM:   5    -0.366894002620E+03    0.27279E-05   -0.23340E-05  2874   0.104E-02
  10 F= -.36689400E+03 E0= -.36690415E+03  d E =-.298564E-03
       N       E                     dE             d eps       ncg     rms          rms(c)
DAV:   1    -0.366893909436E+03    0.95911E-04   -0.17719E-01  4400   0.124E+00    0.155E-01
RMM:   2    -0.366894361485E+03   -0.45205E-03   -0.80884E-03  6766   0.253E-01    0.744E-02
RMM:   3    -0.366894293088E+03    0.68396E-04   -0.91463E-04  6752   0.604E-02    0.531E-02
RMM:   4    -0.366894261124E+03    0.31964E-04   -0.24830E-04  6462   0.270E-02    0.326E-02
RMM:   5    -0.366894258705E+03    0.24193E-05   -0.99818E-05  5762   0.178E-02
  11 F= -.36689426E+03 E0= -.36690438E+03  d E =-.554649E-03
       N       E                     dE             d eps       ncg     rms          rms(c)
DAV:   1    -0.366894353645E+03   -0.92521E-04   -0.24610E-02  4480   0.458E-01    0.343E-02
RMM:   2    -0.366894425154E+03   -0.71509E-04   -0.87894E-04  6095   0.871E-02    0.192E-02
RMM:   3    -0.366894418165E+03    0.69890E-05   -0.10006E-04  4644   0.254E-02    0.161E-02
RMM:   4    -0.366894418810E+03   -0.64495E-06   -0.29798E-05  3256   0.111E-02
  12 F= -.36689442E+03 E0= -.36690454E+03  d E =-.160105E-03
       N       E                     dE             d eps       ncg     rms          rms(c)
DAV:   1    -0.366894171437E+03    0.24673E-03   -0.22182E-01  4392   0.137E+00    0.102E-01
RMM:   2    -0.366894779174E+03   -0.60774E-03   -0.76978E-03  6415   0.258E-01    0.522E-02
RMM:   3    -0.366894748214E+03    0.30960E-04   -0.92429E-04  6610   0.692E-02    0.406E-02
RMM:   4    -0.366894744794E+03    0.34205E-05   -0.22220E-04  6236   0.222E-02    0.274E-02
RMM:   5    -0.366894744304E+03    0.48933E-06   -0.65494E-05  4260   0.137E-02
  13 F= -.36689474E+03 E0= -.36690483E+03  d E =-.485600E-03
