<?xml version="1.0" encoding="ISO-8859-1"?>
<modeling>
 <generator>
  <i name="program" type="string">vasp </i>
  <i name="version" type="string">5.4.1  </i>
  <i name="subversion" type="string">05Feb16 (build Jan 29 2020 16:04:39) complex                          parallel </i>
  <i name="platform" type="string">IFC91_ompi </i>
  <i name="date" type="string">2020 06 15 </i>
  <i name="time" type="string">02:44:33 </i>
 </generator>
 <incar>
  <i type="string" name="SYSTEM"> automatically generated by mexm</i>
  <i type="int" name="ISTART">     0</i>
  <i type="string" name="PREC">accurate               ! avoid wrap aro</i>
  <i type="string" name="ALGO"> Fast                   ! blocked Davids</i>
  <i type="int" name="ISPIN">     1</i>
  <i type="int" name="ICHARG">     2</i>
  <i type="int" name="NELM">    70</i>
  <i type="int" name="IBRION">     2</i>
  <i name="EDIFF">      0.00001000</i>
  <i name="EDIFFG">     -0.01000000</i>
  <i type="int" name="NSW">   300</i>
  <i type="int" name="ISIF">     3</i>
  <i type="int" name="ISYM">     1</i>
  <i name="ENCUT">    300.00000000</i>
  <i name="POTIM">      0.15000000</i>
  <i type="string" name="LREAL"> Auto                  ! unpublished met</i>
  <i type="int" name="ISMEAR">     1</i>
  <i name="SIGMA">      0.15000000</i>
  <i type="logical" name="LWAVE"> F  </i>
  <i type="logical" name="LCHARG"> F  </i>
  <i type="logical" name="LVTOT"> F  </i>
  <v type="int" name="KPOINT_BSE">    -1     0     0     0</v>
  <i type="int" name="NELM">    70</i>
 </incar>
 <kpoints>
  <generation param="Gamma">
   <v type="int" name="divisions">       3        3        3 </v>
   <v name="usershift">      0.00000000       0.00000000       0.00000000 </v>
   <v name="genvec1">      0.33333333       0.00000000       0.00000000 </v>
   <v name="genvec2">      0.00000000       0.33333333       0.00000000 </v>
   <v name="genvec3">      0.00000000      -0.00000000       0.33333333 </v>
   <v name="shift">      0.00000000       0.00000000       0.00000000 </v>
  </generation>
  <varray name="kpointlist" >
   <v>       0.00000000       0.00000000       0.00000000 </v>
   <v>       0.33333333       0.00000000       0.00000000 </v>
   <v>       0.00000000       0.33333333      -0.00000000 </v>
   <v>       0.33333333       0.33333333       0.00000000 </v>
   <v>      -0.33333333       0.33333333       0.00000000 </v>
   <v>      -0.00000000       0.00000000       0.33333333 </v>
   <v>       0.33333333      -0.00000000       0.33333333 </v>
   <v>      -0.33333333       0.00000000       0.33333333 </v>
   <v>      -0.00000000       0.33333333       0.33333333 </v>
   <v>       0.33333333       0.33333333       0.33333333 </v>
   <v>      -0.33333333       0.33333333       0.33333333 </v>
   <v>       0.00000000      -0.33333333       0.33333333 </v>
   <v>       0.33333333      -0.33333333       0.33333333 </v>
   <v>      -0.33333333      -0.33333333       0.33333333 </v>
  </varray>
  <varray name="weights" >
   <v>       0.03703704 </v>
   <v>       0.07407407 </v>
   <v>       0.07407407 </v>
   <v>       0.07407407 </v>
   <v>       0.07407407 </v>
   <v>       0.07407407 </v>
   <v>       0.07407407 </v>
   <v>       0.07407407 </v>
   <v>       0.07407407 </v>
   <v>       0.07407407 </v>
   <v>       0.07407407 </v>
   <v>       0.07407407 </v>
   <v>       0.07407407 </v>
   <v>       0.07407407 </v>
  </varray>
 </kpoints>
 <parameters>
  <separator name="general" >
   <i type="string" name="SYSTEM">automatically generated by mexm</i>
   <i type="logical" name="LCOMPAT"> F  </i>
  </separator>
  <separator name="electronic" >
   <i type="string" name="PREC">accura</i>
   <i name="ENMAX">    300.00000000</i>
   <i name="ENAUG">    461.25700000</i>
   <i name="EDIFF">      0.00001000</i>
   <i type="int" name="IALGO">    68</i>
   <i type="int" name="IWAVPR">    11</i>
   <i type="int" name="NBANDS">   172</i>
   <i name="NELECT">    283.00000000</i>
   <i type="int" name="TURBO">     0</i>
   <i type="int" name="IRESTART">     0</i>
   <i type="int" name="NREBOOT">     0</i>
   <i type="int" name="NMIN">     0</i>
   <i name="EREF">      0.00000000</i>
   <separator name="electronic smearing" >
    <i type="int" name="ISMEAR">     1</i>
    <i name="SIGMA">      0.15000000</i>
    <i name="KSPACING">      0.50000000</i>
    <i type="logical" name="KGAMMA"> T  </i>
   </separator>
   <separator name="electronic projectors" >
    <i type="logical" name="LREAL"> T  </i>
    <v name="ROPT">     -0.00025000     -0.00025000     -0.00025000     -0.00025000</v>
    <i type="int" name="LMAXPAW">  -100</i>
    <i type="int" name="LMAXMIX">     2</i>
    <i type="logical" name="NLSPLINE"> F  </i>
   </separator>
   <separator name="electronic startup" >
    <i type="int" name="ISTART">     0</i>
    <i type="int" name="ICHARG">     2</i>
    <i type="int" name="INIWAV">     1</i>
   </separator>
   <separator name="electronic spin" >
    <i type="int" name="ISPIN">     1</i>
    <i type="logical" name="LNONCOLLINEAR"> F  </i>
    <v name="MAGMOM">      1.00000000      1.00000000      1.00000000      1.00000000      1.00000000      1.00000000      1.00000000      1.00000000      1.00000000      1.00000000      1.00000000      1.00000000      1.00000000      1.00000000      1.00000000      1.00000000      1.00000000      1.00000000      1.00000000      1.00000000
      1.00000000      1.00000000      1.00000000      1.00000000      1.00000000      1.00000000      1.00000000      1.00000000      1.00000000      1.00000000      1.00000000      1.00000000      1.00000000      1.00000000      1.00000000      1.00000000</v>
    <i name="NUPDOWN">     -1.00000000</i>
    <i type="logical" name="LSORBIT"> F  </i>
    <v name="SAXIS">      0.00000000      0.00000000      1.00000000</v>
    <i type="logical" name="LSPIRAL"> F  </i>
    <v name="QSPIRAL">      0.00000000      0.00000000      0.00000000</v>
    <i type="logical" name="LZEROZ"> F  </i>
   </separator>
   <separator name="electronic exchange-correlation" >
    <i type="logical" name="LASPH"> F  </i>
    <i type="logical" name="LMETAGGA"> F  </i>
   </separator>
   <separator name="electronic convergence" >
    <i type="int" name="NELM">    70</i>
    <i type="int" name="NELMDL">    -5</i>
    <i type="int" name="NELMIN">     2</i>
    <i name="ENINI">    300.00000000</i>
    <separator name="electronic convergence detail" >
     <i type="logical" name="LDIAG"> T  </i>
     <i type="logical" name="LSUBROT"> F  </i>
     <i name="WEIMIN">      0.00100000</i>
     <i name="EBREAK">      0.00000001</i>
     <i name="DEPER">      0.30000000</i>
     <i type="int" name="NRMM">     4</i>
     <i name="TIME">      0.40000000</i>
    </separator>
   </separator>
   <separator name="electronic mixer" >
    <i name="AMIX">      0.40000000</i>
    <i name="BMIX">      1.00000000</i>
    <i name="AMIN">      0.10000000</i>
    <i name="AMIX_MAG">      1.60000000</i>
    <i name="BMIX_MAG">      1.00000000</i>
    <separator name="electronic mixer details" >
     <i type="int" name="IMIX">     4</i>
     <i type="logical" name="MIXFIRST"> F  </i>
     <i type="int" name="MAXMIX">   -45</i>
     <i name="WC">    100.00000000</i>
     <i type="int" name="INIMIX">     1</i>
     <i type="int" name="MIXPRE">     1</i>
     <i type="int" name="MREMOVE">     5</i>
    </separator>
   </separator>
   <separator name="electronic dipolcorrection" >
    <i type="logical" name="LDIPOL"> F  </i>
    <i type="logical" name="LMONO"> F  </i>
    <i type="int" name="IDIPOL">     0</i>
    <i name="EPSILON">      1.00000000</i>
    <v name="DIPOL">   -100.00000000   -100.00000000   -100.00000000</v>
    <i name="EFIELD">      0.00000000</i>
   </separator>
  </separator>
  <separator name="grids" >
   <i type="int" name="NGX">    40</i>
   <i type="int" name="NGY">    60</i>
   <i type="int" name="NGZ">    60</i>
   <i type="int" name="NGXF">    80</i>
   <i type="int" name="NGYF">   120</i>
   <i type="int" name="NGZF">   120</i>
   <i type="logical" name="ADDGRID"> F  </i>
  </separator>
  <separator name="ionic" >
   <i type="int" name="NSW">   300</i>
   <i type="int" name="IBRION">     2</i>
   <i type="int" name="ISIF">     3</i>
   <i name="PSTRESS">      0.00000000</i>
   <i name="EDIFFG">     -0.01000000</i>
   <i type="int" name="NFREE">     1</i>
   <i name="POTIM">      0.15000000</i>
   <i name="SMASS">     -3.00000000</i>
   <i name="SCALEE">      1.00000000</i>
  </separator>
  <separator name="ionic md" >
   <i name="TEBEG">      0.00010000</i>
   <i name="TEEND">      0.00010000</i>
   <i type="int" name="NBLOCK">     1</i>
   <i type="int" name="KBLOCK">   300</i>
   <i type="int" name="NPACO">   256</i>
   <i name="APACO">     16.00000000</i>
  </separator>
  <separator name="symmetry" >
   <i type="int" name="ISYM">     1</i>
   <i name="SYMPREC">      0.00001000</i>
  </separator>
  <separator name="dos" >
   <i type="logical" name="LORBIT"> F  </i>
   <v name="RWIGS">     -1.00000000     -1.00000000     -1.00000000     -1.00000000</v>
   <i type="int" name="NEDOS">   301</i>
   <i name="EMIN">     10.00000000</i>
   <i name="EMAX">    -10.00000000</i>
   <i name="EFERMI">      0.00000000</i>
  </separator>
  <separator name="writing" >
   <i type="int" name="NWRITE">     2</i>
   <i type="logical" name="LWAVE"> F  </i>
   <i type="logical" name="LCHARG"> F  </i>
   <i type="logical" name="LPARD"> F  </i>
   <i type="logical" name="LVTOT"> F  </i>
   <i type="logical" name="LVHAR"> F  </i>
   <i type="logical" name="LELF"> F  </i>
   <i type="logical" name="LOPTICS"> F  </i>
   <v name="STM">      0.00000000      0.00000000      0.00000000      0.00000000      0.00000000      0.00000000      0.00000000</v>
  </separator>
  <separator name="performance" >
   <i type="int" name="NPAR">     4</i>
   <i type="int" name="NSIM">     4</i>
   <i type="int" name="NBLK">    -1</i>
   <i type="logical" name="LPLANE"> T  </i>
   <i type="logical" name="LSCALAPACK"> T  </i>
   <i type="logical" name="LSCAAWARE"> F  </i>
   <i type="logical" name="LSCALU"> F  </i>
   <i type="logical" name="LASYNC"> F  </i>
   <i type="logical" name="LORBITALREAL"> F  </i>
  </separator>
  <separator name="miscellaneous" >
   <i type="int" name="IDIOT">     3</i>
   <i type="logical" name="LMUSIC"> F  </i>
   <v name="POMASS">    180.94800000    178.49000000     92.91000000     91.22400000</v>
   <v name="DARWINR">      0.00000000      0.00000000      0.00000000      0.00000000</v>
   <v name="DARWINV">      1.00000000      1.00000000      1.00000000      1.00000000</v>
   <i type="logical" name="LCORR"> T  </i>
  </separator>
  <i type="logical" name="GGA_COMPAT"> T  </i>
  <i type="logical" name="LBERRY"> F  </i>
  <i type="int" name="ICORELEVEL">     0</i>
  <i type="logical" name="LDAU"> F  </i>
  <i type="int" name="I_CONSTRAINED_M">     0</i>
  <separator name="electronic exchange-correlation" >
   <i type="string" name="GGA">--</i>
   <i type="int" name="VOSKOWN">     0</i>
   <i type="logical" name="LHFCALC"> F  </i>
   <i type="string" name="PRECFOCK"></i>
   <i type="logical" name="LSYMGRAD"> F  </i>
   <i type="logical" name="LHFONE"> F  </i>
   <i type="logical" name="LRHFCALC"> F  </i>
   <i type="logical" name="LTHOMAS"> F  </i>
   <i type="logical" name="LMODELHF"> F  </i>
   <i name="ENCUT4O">     -1.00000000</i>
   <i type="int" name="EXXOEP">     0</i>
   <i type="int" name="FOURORBIT">     0</i>
   <i name="AEXX">      0.00000000</i>
   <i name="HFALPHA">      0.00000000</i>
   <i name="MCALPHA">      0.00000000</i>
   <i name="ALDAX">      1.00000000</i>
   <i name="AGGAX">      1.00000000</i>
   <i name="ALDAC">      1.00000000</i>
   <i name="AGGAC">      1.00000000</i>
   <i type="int" name="NKREDX">     1</i>
   <i type="int" name="NKREDY">     1</i>
   <i type="int" name="NKREDZ">     1</i>
   <i type="logical" name="SHIFTRED"> F  </i>
   <i type="logical" name="ODDONLY"> F  </i>
   <i type="logical" name="EVENONLY"> F  </i>
   <i type="int" name="LMAXFOCK">     0</i>
   <i type="int" name="NMAXFOCKAE">     0</i>
   <i type="logical" name="LFOCKAEDFT"> F  </i>
   <i name="HFSCREEN">      0.00000000</i>
   <i name="HFSCREENC">      0.00000000</i>
   <i type="int" name="NBANDSGWLOW">     0</i>
  </separator>
  <separator name="vdW DFT" >
   <i type="logical" name="LUSE_VDW"> F  </i>
   <i name="Zab_VDW">     -0.84910000</i>
   <i name="PARAM1">      0.12340000</i>
   <i name="PARAM2">      1.00000000</i>
   <i name="PARAM3">      0.00000000</i>
  </separator>
  <separator name="model GW" >
   <i type="int" name="MODEL_GW">     0</i>
   <i name="MODEL_EPS0">     12.03055084</i>
   <i name="MODEL_ALPHA">      1.00000000</i>
  </separator>
  <separator name="linear response parameters" >
   <i type="logical" name="LEPSILON"> F  </i>
   <i type="logical" name="LRPA"> F  </i>
   <i type="logical" name="LNABLA"> F  </i>
   <i type="logical" name="LVEL"> F  </i>
   <i type="int" name="KINTER">     0</i>
   <i name="CSHIFT">      0.10000000</i>
   <i name="OMEGAMAX">     -1.00000000</i>
   <i name="DEG_THRESHOLD">      0.00200000</i>
  </separator>
  <separator name="orbital magnetization" >
   <i type="logical" name="NUCIND"> F  </i>
   <v name="MAGPOS">      0.00000000      0.00000000      0.00000000</v>
   <i type="logical" name="LNICSALL"> T  </i>
   <i type="logical" name="ORBITALMAG"> F  </i>
   <i type="logical" name="LMAGBLOCH"> F  </i>
   <i type="logical" name="LCHIMAG"> F  </i>
   <i type="logical" name="LGAUGE"> T  </i>
   <i type="int" name="MAGATOM">     0</i>
   <v name="MAGDIPOL">      0.00000000      0.00000000      0.00000000</v>
   <v name="AVECCONST">      0.00000000      0.00000000      0.00000000</v>
  </separator>
  <separator name="response functions" >
   <i type="logical" name="LADDER"> F  </i>
   <i type="logical" name="LFXC"> F  </i>
   <i type="logical" name="LHARTREE"> T  </i>
   <i type="int" name="IBSE">     0</i>
   <v type="int" name="KPOINT">    -1     0     0     0</v>
   <i type="logical" name="LTCTE"> F  </i>
   <i type="logical" name="LTETE"> F  </i>
   <i type="logical" name="LTRIPLET"> F  </i>
   <i type="logical" name="LFXCEPS"> F  </i>
   <i type="logical" name="LFXHEG"> F  </i>
   <i type="int" name="NATURALO">     0</i>
   <i type="logical" name="L2ORDER"> F  </i>
   <i type="logical" name="LUSEW"> F  </i>
   <i name="ENCUTGW">     -2.00000000</i>
   <i name="ENCUTGWSOFT">     -2.00000000</i>
   <i name="ENCUTLF">     -1.00000000</i>
   <i type="int" name="LMAXMP2">    -1</i>
   <i name="SCISSOR">      0.00000000</i>
   <i type="int" name="NOMEGA">     0</i>
   <i type="int" name="NOMEGAR">     0</i>
   <i type="int" name="NBANDSGW">    -1</i>
   <i type="int" name="NBANDSO">    -1</i>
   <i type="int" name="NBANDSV">    -1</i>
   <i type="int" name="NELM">    70</i>
   <i type="int" name="NELMHF">     1</i>
   <i type="int" name="DIM">     3</i>
   <i type="int" name="ANTIRES">     0</i>
   <i name="OMEGAMAX">    -30.00000000</i>
   <i name="OMEGAMIN">    -30.00000000</i>
   <i name="OMEGATL">   -200.00000000</i>
   <i type="int" name="OMEGAGRID">     0</i>
   <i name="CSHIFT">     -0.10000000</i>
   <i type="logical" name="SELFENERGY"> F  </i>
   <i type="logical" name="LSPECTRAL"> F  </i>
   <i type="logical" name="LSPECTRALGW"> F  </i>
   <i type="logical" name="LSINGLES"> F  </i>
   <i type="logical" name="LFERMIGW"> F  </i>
   <i type="logical" name="ODDONLYGW"> F  </i>
   <i type="logical" name="EVENONLYGW"> F  </i>
   <i type="int" name="NKREDLFX">     1</i>
   <i type="int" name="NKREDLFY">     1</i>
   <i type="int" name="NKREDLFZ">     1</i>
   <i type="int" name="MAXMEM">  1800</i>
   <i type="int" name="TELESCOPE">     0</i>
   <i type="int" name="TAUPAR">     1</i>
   <i type="int" name="OMEGAPAR">    -1</i>
   <i name="LAMBDA">      1.00000000</i>
  </separator>
  <separator name="External order field" >
   <i name="OFIELD_KAPPA">      0.00000000</i>
   <v name="OFIELD_K">      0.00000000      0.00000000      0.00000000</v>
   <i name="OFIELD_Q6_NEAR">      0.00000000</i>
   <i name="OFIELD_Q6_FAR">      0.00000000</i>
   <i name="OFIELD_A">      0.00000000</i>
  </separator>
 </parameters>
 <atominfo>
  <atoms>      36 </atoms>
  <types>       4 </types>
  <array name="atoms" >
   <dimension dim="1">ion</dimension>
   <field type="string">element</field>
   <field type="int">atomtype</field>
   <set>
    <rc><c>Ta</c><c>   1</c></rc>
    <rc><c>Ta</c><c>   1</c></rc>
    <rc><c>Ta</c><c>   1</c></rc>
    <rc><c>Ta</c><c>   1</c></rc>
    <rc><c>Ta</c><c>   1</c></rc>
    <rc><c>Ta</c><c>   1</c></rc>
    <rc><c>Ta</c><c>   1</c></rc>
    <rc><c>Ta</c><c>   1</c></rc>
    <rc><c>Ta</c><c>   1</c></rc>
    <rc><c>Ta</c><c>   1</c></rc>
    <rc><c>Ta</c><c>   1</c></rc>
    <rc><c>Ta</c><c>   1</c></rc>
    <rc><c>Hf</c><c>   2</c></rc>
    <rc><c>Hf</c><c>   2</c></rc>
    <rc><c>Hf</c><c>   2</c></rc>
    <rc><c>Hf</c><c>   2</c></rc>
    <rc><c>Hf</c><c>   2</c></rc>
    <rc><c>Hf</c><c>   2</c></rc>
    <rc><c>Hf</c><c>   2</c></rc>
    <rc><c>Hf</c><c>   2</c></rc>
    <rc><c>Hf</c><c>   2</c></rc>
    <rc><c>Nb</c><c>   3</c></rc>
    <rc><c>Nb</c><c>   3</c></rc>
    <rc><c>Nb</c><c>   3</c></rc>
    <rc><c>Nb</c><c>   3</c></rc>
    <rc><c>Nb</c><c>   3</c></rc>
    <rc><c>Nb</c><c>   3</c></rc>
    <rc><c>Nb</c><c>   3</c></rc>
    <rc><c>Zr</c><c>   4</c></rc>
    <rc><c>Zr</c><c>   4</c></rc>
    <rc><c>Zr</c><c>   4</c></rc>
    <rc><c>Zr</c><c>   4</c></rc>
    <rc><c>Zr</c><c>   4</c></rc>
    <rc><c>Zr</c><c>   4</c></rc>
    <rc><c>Zr</c><c>   4</c></rc>
    <rc><c>Zr</c><c>   4</c></rc>
   </set>
  </array>
  <array name="atomtypes" >
   <dimension dim="1">type</dimension>
   <field type="int">atomspertype</field>
   <field type="string">element</field>
   <field>mass</field>
   <field>valence</field>
   <field type="string">pseudopotential</field>
   <set>
    <rc><c>  12</c><c>Ta</c><c>    180.94800000</c><c>      5.00000000</c><c>  PAW_PBE Ta 17Jan2003                  </c></rc>
    <rc><c>   9</c><c>Hf</c><c>    178.49000000</c><c>      4.00000000</c><c>  PAW_PBE Hf 20Jan2003                  </c></rc>
    <rc><c>   7</c><c>Nb</c><c>     92.91000000</c><c>     13.00000000</c><c>  PAW_PBE Nb_sv 25May2007               </c></rc>
    <rc><c>   8</c><c>Zr</c><c>     91.22400000</c><c>     12.00000000</c><c>  PAW_PBE Zr_sv 04Jan2005               </c></rc>
   </set>
  </array>
 </atominfo>
 <structure name="initialpos" >
  <crystal>
   <varray name="basis" >
    <v>       6.88771878       0.00552705      -0.00274856 </v>
    <v>       0.00853500      10.25740199       0.01001154 </v>
    <v>      -0.00381606       0.00966734      10.21703160 </v>
   </varray>
   <i name="volume">    721.83305067 </i>
   <varray name="rec_basis" >
    <v>       0.14518607      -0.00012086       0.00005434 </v>
    <v>      -0.00007827       0.09749073      -0.00009227 </v>
    <v>       0.00003913      -0.00009556       0.09787589 </v>
   </varray>
  </crystal>
  <varray name="positions" >
   <v>       0.25306300       0.16542700       0.50662300 </v>
   <v>       0.24682800       0.18251400       0.17565100 </v>
   <v>       0.01802400       0.32672400       0.33970000 </v>
   <v>       0.00838400       0.33840200       0.66591400 </v>
   <v>       0.23451900       0.48504800       0.83360000 </v>
   <v>       0.25451400       0.85600400       0.51832000 </v>
   <v>       0.48086700       0.32401400       0.33555400 </v>
   <v>       0.76587500       0.49350500       0.81621500 </v>
   <v>       0.74856900       0.84992600       0.51641100 </v>
   <v>       0.24450200       0.84511500       0.83448200 </v>
   <v>       0.23705300       0.81660000       0.14226700 </v>
   <v>       0.49166900       0.34208100       0.67166200 </v>
   <v>       0.25264700       0.16444000       0.82609400 </v>
   <v>       0.24657600       0.49935500       0.16580500 </v>
   <v>       0.01444300       0.67955800       0.34484400 </v>
   <v>       0.50596400       0.00317900       0.01142700 </v>
   <v>       0.74732000       0.16779900       0.50515700 </v>
   <v>       0.51208900       0.32666300       0.99703300 </v>
   <v>       0.74430400       0.48814400       0.49821200 </v>
   <v>       0.48957300       0.68506800       0.34124200 </v>
   <v>       0.48989800       0.66183100       0.66556300 </v>
   <v>       0.00392000       0.00107300       0.66689900 </v>
   <v>       0.25900400       0.48709600       0.49458200 </v>
   <v>       0.00317900       0.66471200       0.98933000 </v>
   <v>       0.75041800       0.18105700       0.19492100 </v>
   <v>       0.49820800       0.99934900       0.66801600 </v>
   <v>       0.74401900       0.16690700       0.81237000 </v>
   <v>       0.76365800       0.80991200       0.15653800 </v>
   <v>       0.98730600       0.00545900       0.00899400 </v>
   <v>       0.00358800       0.99646100       0.32886900 </v>
   <v>       0.98250000       0.32384900       0.99953100 </v>
   <v>       0.01398200       0.66410400       0.65839900 </v>
   <v>       0.49717300       0.99631900       0.32571300 </v>
   <v>       0.75199800       0.50511600       0.17454100 </v>
   <v>       0.49767900       0.66246900       0.98445800 </v>
   <v>       0.75667700       0.83472500       0.82505800 </v>
  </varray>
 </structure>
 <calculation>
  <scstep>
   <time name="dav">    1.00    1.01</time>
   <time name="total">    1.07    1.42</time>
   <energy>
    <i name="alphaZ">   1474.97673701 </i>
    <i name="ewald"> -18141.89570156 </i>
    <i name="hartreedc">  -6279.33968064 </i>
    <i name="XCdc">   -480.42739501 </i>
    <i name="pawpsdc">  20052.35574852 </i>
    <i name="pawaedc"> -18349.89915684 </i>
    <i name="eentropy">     -0.00258604 </i>
    <i name="bandstr">     -8.41005152 </i>
    <i name="atom">  23409.97763913 </i>
    <i name="e_fr_energy">   1677.33555306 </i>
    <i name="e_wo_entrp">   1677.33813909 </i>
    <i name="e_0_energy">   1677.33641507 </i>
   </energy>
  </scstep>
  <scstep>
   <time name="dav">    1.00    1.00</time>
   <time name="total">    1.00    1.16</time>
   <energy>
    <i name="e_fr_energy">   -116.45447541 </i>
    <i name="e_wo_entrp">   -116.44665722 </i>
    <i name="e_0_energy">   -116.45186935 </i>
   </energy>
  </scstep>
  <scstep>
   <time name="dav">    1.45    1.47</time>
   <time name="total">    1.45    1.50</time>
   <energy>
    <i name="e_fr_energy">   -352.88300118 </i>
    <i name="e_wo_entrp">   -352.88393931 </i>
    <i name="e_0_energy">   -352.88331389 </i>
   </energy>
  </scstep>
  <scstep>
   <time name="dav">    1.43    1.50</time>
   <time name="total">    1.44    1.54</time>
   <energy>
    <i name="e_fr_energy">   -380.42357758 </i>
    <i name="e_wo_entrp">   -380.43333987 </i>
    <i name="e_0_energy">   -380.42683168 </i>
   </energy>
  </scstep>
  <scstep>
   <time name="dav">    1.35    1.37</time>
   <time name="total">    1.39    1.45</time>
   <energy>
    <i name="e_fr_energy">   -383.13611241 </i>
    <i name="e_wo_entrp">   -383.14658796 </i>
    <i name="e_0_energy">   -383.13960426 </i>
   </energy>
  </scstep>
  <scstep>
   <time name="diag">    0.07    0.07</time>
   <time name="diis">    0.85    0.85</time>
   <time name="orth">    0.01    0.01</time>
   <time name="total">    1.00    1.03</time>
   <energy>
    <i name="e_fr_energy">   -372.72264069 </i>
    <i name="e_wo_entrp">   -372.73661029 </i>
    <i name="e_0_energy">   -372.72729722 </i>
   </energy>
  </scstep>
  <scstep>
   <time name="diag">    0.18    0.18</time>
   <time name="diis">    1.06    1.07</time>
   <time name="orth">    0.01    0.01</time>
   <time name="total">    1.32    1.36</time>
   <energy>
    <i name="e_fr_energy">   -374.35888983 </i>
    <i name="e_wo_entrp">   -374.36474627 </i>
    <i name="e_0_energy">   -374.36084198 </i>
   </energy>
  </scstep>
  <scstep>
   <time name="diag">    0.13    0.13</time>
   <time name="diis">    0.81    0.82</time>
   <time name="orth">    0.01    0.01</time>
   <time name="total">    1.02    1.07</time>
   <energy>
    <i name="e_fr_energy">   -368.50039378 </i>
    <i name="e_wo_entrp">   -368.50173550 </i>
    <i name="e_0_energy">   -368.50084102 </i>
   </energy>
  </scstep>
  <scstep>
   <time name="diag">    0.11    0.11</time>
   <time name="diis">    0.82    0.83</time>
   <time name="orth">    0.02    0.02</time>
   <time name="total">    1.09    1.13</time>
   <energy>
    <i name="e_fr_energy">   -368.17476043 </i>
    <i name="e_wo_entrp">   -368.17999753 </i>
    <i name="e_0_energy">   -368.17650613 </i>
   </energy>
  </scstep>
  <scstep>
   <time name="diag">    0.54    0.54</time>
   <time name="diis">    1.01    1.01</time>
   <time name="orth">    0.01    0.01</time>
   <time name="total">    1.72    1.76</time>
   <energy>
    <i name="e_fr_energy">   -368.14702257 </i>
    <i name="e_wo_entrp">   -368.15007228 </i>
    <i name="e_0_energy">   -368.14803914 </i>
   </energy>
  </scstep>
  <scstep>
   <time name="diag">    0.10    0.10</time>
   <time name="diis">    0.78    0.82</time>
   <time name="orth">    0.01    0.01</time>
   <time name="total">    0.95    1.17</time>
   <energy>
    <i name="e_fr_energy">   -368.11827098 </i>
    <i name="e_wo_entrp">   -368.12284111 </i>
    <i name="e_0_energy">   -368.11979435 </i>
   </energy>
  </scstep>
  <scstep>
   <time name="diag">    0.07    0.08</time>
   <time name="diis">    0.80    0.81</time>
   <time name="orth">    0.01    0.01</time>
   <time name="total">    0.95    1.01</time>
   <energy>
    <i name="e_fr_energy">   -368.10984109 </i>
    <i name="e_wo_entrp">   -368.11284126 </i>
    <i name="e_0_energy">   -368.11084115 </i>
   </energy>
  </scstep>
  <scstep>
   <time name="diag">    0.07    0.07</time>
   <time name="diis">    0.77    0.78</time>
   <time name="orth">    0.01    0.01</time>
   <time name="total">    0.92    0.96</time>
   <energy>
    <i name="e_fr_energy">   -368.10843851 </i>
    <i name="e_wo_entrp">   -368.11125330 </i>
    <i name="e_0_energy">   -368.10937678 </i>
   </energy>
  </scstep>
  <scstep>
   <time name="diag">    0.07    0.07</time>
   <time name="diis">    0.79    0.79</time>
   <time name="orth">    0.01    0.01</time>
   <time name="total">    0.94    0.98</time>
   <energy>
    <i name="e_fr_energy">   -368.10858130 </i>
    <i name="e_wo_entrp">   -368.11169271 </i>
    <i name="e_0_energy">   -368.10961844 </i>
   </energy>
  </scstep>
  <scstep>
   <time name="diag">    0.07    0.08</time>
   <time name="diis">    0.85    0.85</time>
   <time name="orth">    0.01    0.01</time>
   <time name="total">    1.03    1.09</time>
   <energy>
    <i name="e_fr_energy">   -368.10861492 </i>
    <i name="e_wo_entrp">   -368.11170059 </i>
    <i name="e_0_energy">   -368.10964347 </i>
   </energy>
  </scstep>
  <scstep>
   <time name="diag">    0.07    0.07</time>
   <time name="diis">    0.70    0.71</time>
   <time name="orth">    0.01    0.01</time>
   <time name="total">    0.87    0.91</time>
   <energy>
    <i name="e_fr_energy">   -368.10864787 </i>
    <i name="e_wo_entrp">   -368.11167089 </i>
    <i name="e_0_energy">   -368.10965554 </i>
   </energy>
  </scstep>
  <scstep>
   <time name="diag">    0.08    0.08</time>
   <time name="diis">    0.64    0.65</time>
   <time name="orth">    0.01    0.01</time>
   <time name="total">    0.80    0.83</time>
   <energy>
    <i name="e_fr_energy">   -368.10866255 </i>
    <i name="e_wo_entrp">   -368.11173333 </i>
    <i name="e_0_energy">   -368.10968614 </i>
   </energy>
  </scstep>
  <scstep>
   <time name="diag">    0.07    0.07</time>
   <time name="diis">    0.56    0.56</time>
   <time name="orth">    0.01    0.01</time>
   <time name="total">    0.71    0.77</time>
   <energy>
    <i name="e_fr_energy">   -368.10866994 </i>
    <i name="e_wo_entrp">   -368.11170745 </i>
    <i name="e_0_energy">   -368.10968244 </i>
   </energy>
  </scstep>
  <scstep>
   <time name="diag">    0.15    0.15</time>
   <time name="diis">    0.51    0.51</time>
   <time name="orth">    0.02    0.03</time>
   <time name="total">    0.78    0.84</time>
   <energy>
    <i name="e_fr_energy">   -368.10867470 </i>
    <i name="e_wo_entrp">   -368.11172092 </i>
    <i name="e_0_energy">   -368.10969011 </i>
   </energy>
  </scstep>
  <scstep>
   <time name="diag">    0.10    0.10</time>
   <time name="diis">    0.48    0.49</time>
   <time name="orth">    0.01    0.01</time>
   <time name="total">    0.64    0.69</time>
   <energy>
    <i name="alphaZ">   1474.97673701 </i>
    <i name="ewald"> -18141.89570156 </i>
    <i name="hartreedc">  -6063.80121822 </i>
    <i name="XCdc">   -477.90705699 </i>
    <i name="pawpsdc">  32803.35494872 </i>
    <i name="pawaedc"> -31087.11486212 </i>
    <i name="eentropy">      0.00305018 </i>
    <i name="bandstr">  -2285.70221141 </i>
    <i name="atom">  23409.97763913 </i>
    <i name="e_fr_energy">   -368.10867525 </i>
    <i name="e_wo_entrp">   -368.11172543 </i>
    <i name="e_0_energy">   -368.10969198 </i>
   </energy>
  </scstep>
  <structure>
   <crystal>
    <varray name="basis" >
     <v>       6.88771878       0.00552705      -0.00274856 </v>
     <v>       0.00853500      10.25740199       0.01001154 </v>
     <v>      -0.00381606       0.00966734      10.21703160 </v>
    </varray>
    <i name="volume">    721.83305067 </i>
    <varray name="rec_basis" >
     <v>       0.14518607      -0.00012086       0.00005434 </v>
     <v>      -0.00007827       0.09749073      -0.00009227 </v>
     <v>       0.00003913      -0.00009556       0.09787589 </v>
    </varray>
   </crystal>
   <varray name="positions" >
    <v>       0.25306300       0.16542700       0.50662300 </v>
    <v>       0.24682800       0.18251400       0.17565100 </v>
    <v>       0.01802400       0.32672400       0.33970000 </v>
    <v>       0.00838400       0.33840200       0.66591400 </v>
    <v>       0.23451900       0.48504800       0.83360000 </v>
    <v>       0.25451400       0.85600400       0.51832000 </v>
    <v>       0.48086700       0.32401400       0.33555400 </v>
    <v>       0.76587500       0.49350500       0.81621500 </v>
    <v>       0.74856900       0.84992600       0.51641100 </v>
    <v>       0.24450200       0.84511500       0.83448200 </v>
    <v>       0.23705300       0.81660000       0.14226700 </v>
    <v>       0.49166900       0.34208100       0.67166200 </v>
    <v>       0.25264700       0.16444000       0.82609400 </v>
    <v>       0.24657600       0.49935500       0.16580500 </v>
    <v>       0.01444300       0.67955800       0.34484400 </v>
    <v>       0.50596400       0.00317900       0.01142700 </v>
    <v>       0.74732000       0.16779900       0.50515700 </v>
    <v>       0.51208900       0.32666300       0.99703300 </v>
    <v>       0.74430400       0.48814400       0.49821200 </v>
    <v>       0.48957300       0.68506800       0.34124200 </v>
    <v>       0.48989800       0.66183100       0.66556300 </v>
    <v>       0.00392000       0.00107300       0.66689900 </v>
    <v>       0.25900400       0.48709600       0.49458200 </v>
    <v>       0.00317900       0.66471200       0.98933000 </v>
    <v>       0.75041800       0.18105700       0.19492100 </v>
    <v>       0.49820800       0.99934900       0.66801600 </v>
    <v>       0.74401900       0.16690700       0.81237000 </v>
    <v>       0.76365800       0.80991200       0.15653800 </v>
    <v>       0.98730600       0.00545900       0.00899400 </v>
    <v>       0.00358800       0.99646100       0.32886900 </v>
    <v>       0.98250000       0.32384900       0.99953100 </v>
    <v>       0.01398200       0.66410400       0.65839900 </v>
    <v>       0.49717300       0.99631900       0.32571300 </v>
    <v>       0.75199800       0.50511600       0.17454100 </v>
    <v>       0.49767900       0.66246900       0.98445800 </v>
    <v>       0.75667700       0.83472500       0.82505800 </v>
   </varray>
  </structure>
  <varray name="forces" >
   <v>       0.01862662       0.01405094       0.02903756 </v>
   <v>       0.00021094       0.00306756       0.09641636 </v>
   <v>      -0.01171435       0.00083844      -0.00285432 </v>
   <v>       0.00499004      -0.01861206      -0.00444969 </v>
   <v>       0.00165444       0.01252906       0.00712131 </v>
   <v>      -0.00093957       0.13637069      -0.02292854 </v>
   <v>       0.01386728      -0.00562674      -0.01001044 </v>
   <v>      -0.00503932       0.01222005       0.00567609 </v>
   <v>      -0.00288496      -0.03281415       0.00683484 </v>
   <v>       0.00393195      -0.01675175       0.01780778 </v>
   <v>      -0.00069074      -0.00293619      -0.00586692 </v>
   <v>      -0.01332780      -0.02033856      -0.00054677 </v>
   <v>      -0.00231646      -0.00132897      -0.10584944 </v>
   <v>       0.00236039       0.00816783      -0.01205780 </v>
   <v>      -0.00021934      -0.00610229       0.00529842 </v>
   <v>      -0.00913766       0.01149800      -0.00144850 </v>
   <v>      -0.00486001      -0.00234313       0.00285039 </v>
   <v>      -0.00633024      -0.00872762      -0.00366475 </v>
   <v>       0.00005036       0.03695849       0.00440888 </v>
   <v>       0.00154924      -0.00664387      -0.00070750 </v>
   <v>      -0.00617188      -0.00610696      -0.00781641 </v>
   <v>      -0.01374882      -0.00367758       0.00966766 </v>
   <v>      -0.00068870      -0.09508971       0.00927983 </v>
   <v>       0.01711049      -0.00217215       0.00100528 </v>
   <v>      -0.00153267      -0.00732814      -0.03912445 </v>
   <v>       0.02181161      -0.00010370       0.00535720 </v>
   <v>       0.00200900       0.00247718       0.04264411 </v>
   <v>      -0.00171412      -0.01436105      -0.01006550 </v>
   <v>       0.00846235       0.00702276      -0.00462228 </v>
   <v>      -0.02119084      -0.00409087      -0.00252206 </v>
   <v>      -0.00019285      -0.00307878       0.00057855 </v>
   <v>       0.00286763      -0.00312000      -0.00835836 </v>
   <v>       0.01959314       0.00069554      -0.00046714 </v>
   <v>       0.00123386      -0.00240547      -0.00212695 </v>
   <v>      -0.01499822       0.00927771       0.00896683 </v>
   <v>      -0.00263077       0.00858549      -0.00746327 </v>
  </varray>
  <varray name="stress" >
   <v>       0.41998468       0.05057519       0.06024745 </v>
   <v>       0.05057523      -0.30102129       0.17711618 </v>
   <v>       0.06024742       0.17711611       0.02510907 </v>
  </varray>
  <energy>
   <i name="e_fr_energy">   -368.10867525 </i>
   <i name="e_wo_entrp">   -368.10969198 </i>
   <i name="e_0_energy">      0.00305018 </i>
  </energy>
  <time name="totalsc">   22.83   24.63</time>
 </calculation>
 <calculation>
  <scstep>
   <time name="dav">    0.96    0.97</time>
   <time name="total">    1.04    1.20</time>
   <energy>
    <i name="alphaZ">   1474.93825631 </i>
    <i name="ewald"> -18141.37168676 </i>
    <i name="hartreedc">  -6064.08593573 </i>
    <i name="XCdc">   -477.91272933 </i>
    <i name="pawpsdc">  32803.43258863 </i>
    <i name="pawaedc"> -31087.19031822 </i>
    <i name="eentropy">      0.00295505 </i>
    <i name="bandstr">  -2285.90025662 </i>
    <i name="atom">  23409.97763913 </i>
    <i name="e_fr_energy">   -368.10948754 </i>
    <i name="e_wo_entrp">   -368.11244260 </i>
    <i name="e_0_energy">   -368.11047256 </i>
   </energy>
  </scstep>
  <scstep>
   <time name="diag">    0.08    0.08</time>
   <time name="diis">    0.70    0.70</time>
   <time name="orth">    0.01    0.01</time>
   <time name="total">    0.95    0.98</time>
   <energy>
    <i name="e_fr_energy">   -368.10958456 </i>
    <i name="e_wo_entrp">   -368.11257972 </i>
    <i name="e_0_energy">   -368.11058294 </i>
   </energy>
  </scstep>
  <scstep>
   <time name="diag">    0.07    0.07</time>
   <time name="diis">    0.64    0.64</time>
   <time name="orth">    0.01    0.01</time>
   <time name="total">    0.79    0.83</time>
   <energy>
    <i name="e_fr_energy">   -368.10957669 </i>
    <i name="e_wo_entrp">   -368.11256593 </i>
    <i name="e_0_energy">   -368.11057310 </i>
   </energy>
  </scstep>
  <scstep>
   <time name="diag">    0.12    0.12</time>
   <time name="diis">    0.44    0.44</time>
   <time name="orth">    0.01    0.01</time>
   <time name="total">    0.60    0.64</time>
   <energy>
    <i name="alphaZ">   1474.93825631 </i>
    <i name="ewald"> -18141.37168676 </i>
    <i name="hartreedc">  -6064.21283262 </i>
    <i name="XCdc">   -477.90818016 </i>
    <i name="pawpsdc">  32802.89924997 </i>
    <i name="pawaedc"> -31086.64923824 </i>
    <i name="eentropy">      0.00298650 </i>
    <i name="bandstr">  -2285.78576855 </i>
    <i name="atom">  23409.97763913 </i>
    <i name="e_fr_energy">   -368.10957443 </i>
    <i name="e_wo_entrp">   -368.11256093 </i>
    <i name="e_0_energy">   -368.11056993 </i>
   </energy>
  </scstep>
  <structure>
   <crystal>
    <varray name="basis" >
     <v>       6.88824274       0.00558975      -0.00267323 </v>
     <v>       0.00862972      10.25684314       0.01034073 </v>
     <v>      -0.00370477       0.00999454      10.21707833 </v>
    </varray>
    <i name="volume">    721.85188308 </i>
    <varray name="rec_basis" >
     <v>       0.14517503      -0.00012220       0.00005276 </v>
     <v>      -0.00007915       0.09749605      -0.00009540 </v>
     <v>       0.00003806      -0.00009871       0.09787545 </v>
    </varray>
   </crystal>
   <varray name="positions" >
    <v>       0.25310214       0.16544677       0.50666412 </v>
    <v>       0.24682851       0.18251820       0.17578757 </v>
    <v>       0.01799938       0.32672520       0.33969595 </v>
    <v>       0.00839451       0.33837574       0.66590773 </v>
    <v>       0.23452246       0.48506567       0.83361007 </v>
    <v>       0.25451177       0.85619645       0.51828733 </v>
    <v>       0.48089614       0.32400606       0.33553984 </v>
    <v>       0.76586439       0.49352224       0.81622302 </v>
    <v>       0.74856300       0.84987969       0.51642073 </v>
    <v>       0.24451031       0.84509134       0.83450725 </v>
    <v>       0.23705155       0.81659587       0.14225869 </v>
    <v>       0.49164103       0.34205232       0.67166125 </v>
    <v>       0.25264205       0.16443827       0.82594406 </v>
    <v>       0.24658094       0.49936654       0.16578791 </v>
    <v>       0.01444255       0.67954938       0.34485151 </v>
    <v>       0.50594478       0.00319524       0.01142493 </v>
    <v>       0.74730979       0.16779570       0.50516104 </v>
    <v>       0.51207571       0.32665070       0.99702782 </v>
    <v>       0.74430404       0.48819614       0.49821819 </v>
    <v>       0.48957627       0.68505862       0.34124101 </v>
    <v>       0.48988504       0.66182240       0.66555193 </v>
    <v>       0.00389112       0.00106781       0.66691269 </v>
    <v>       0.25900273       0.48696182       0.49459528 </v>
    <v>       0.00321496       0.66470891       0.98933144 </v>
    <v>       0.75041476       0.18104671       0.19486559 </v>
    <v>       0.49825384       0.99934882       0.66802360 </v>
    <v>       0.74402325       0.16691044       0.81243040 </v>
    <v>       0.76365442       0.80989175       0.15652376 </v>
    <v>       0.98732377       0.00546891       0.00898745 </v>
    <v>       0.00354348       0.99645526       0.32886542 </v>
    <v>       0.98249960       0.32384466       0.99953182 </v>
    <v>       0.01398802       0.66409961       0.65838717 </v>
    <v>       0.49721417       0.99631996       0.32571235 </v>
    <v>       0.75200060       0.50511261       0.17453799 </v>
    <v>       0.49764748       0.66248210       0.98447068 </v>
    <v>       0.75667145       0.83473713       0.82504741 </v>
   </varray>
  </structure>
  <varray name="forces" >
   <v>       0.01664781       0.01085715       0.02338689 </v>
   <v>      -0.00013197       0.00310660       0.08840138 </v>
   <v>      -0.01328640       0.00154000      -0.00105528 </v>
   <v>       0.00183468      -0.01513179      -0.00345776 </v>
   <v>       0.00044134       0.01145162       0.00704234 </v>
   <v>      -0.00071456       0.12332026      -0.02280549 </v>
   <v>       0.01593740      -0.00370581      -0.00757008 </v>
   <v>      -0.00444701       0.01023961       0.00459561 </v>
   <v>      -0.00210777      -0.03153989       0.00633451 </v>
   <v>       0.00289895      -0.01651457       0.01703122 </v>
   <v>      -0.00053715      -0.00299774      -0.00408863 </v>
   <v>      -0.00898413      -0.01714424      -0.00037055 </v>
   <v>      -0.00171732      -0.00181264      -0.09663256 </v>
   <v>       0.00175312       0.00722226      -0.01111041 </v>
   <v>       0.00184521      -0.00599067       0.00547460 </v>
   <v>      -0.00994930       0.00983847      -0.00212640 </v>
   <v>      -0.00448794      -0.00233777       0.00293184 </v>
   <v>      -0.00823920      -0.00812991      -0.00291671 </v>
   <v>       0.00015040       0.03424188       0.00459878 </v>
   <v>      -0.00075044      -0.00638827      -0.00026328 </v>
   <v>      -0.00797002      -0.00374093      -0.00857993 </v>
   <v>      -0.01435057      -0.00265758       0.01018818 </v>
   <v>      -0.00053235      -0.08575655       0.00733159 </v>
   <v>       0.01400834      -0.00236478       0.00020173 </v>
   <v>      -0.00083337      -0.00744541      -0.03569038 </v>
   <v>       0.02167834       0.00042493       0.00634636 </v>
   <v>       0.00201829       0.00151588       0.03840701 </v>
   <v>      -0.00177484      -0.01233194      -0.00943960 </v>
   <v>       0.00931527       0.00648811      -0.00479569 </v>
   <v>      -0.02045617      -0.00370117      -0.00291705 </v>
   <v>       0.00230053      -0.00331394       0.00103249 </v>
   <v>       0.00465163      -0.00114078      -0.00897168 </v>
   <v>       0.01966251       0.00064103      -0.00139635 </v>
   <v>       0.00145461      -0.00175864      -0.00215699 </v>
   <v>      -0.01290209       0.00881484       0.00815140 </v>
   <v>      -0.00242582       0.00620238      -0.00511110 </v>
  </varray>
  <varray name="stress" >
   <v>       0.44342674       0.04927537       0.05503522 </v>
   <v>       0.04927532      -0.29966301       0.20239055 </v>
   <v>       0.05503523       0.20239056       0.05243346 </v>
  </varray>
  <energy>
   <i name="e_fr_energy">   -368.10957443 </i>
   <i name="e_wo_entrp">   -368.11056993 </i>
   <i name="e_0_energy">      0.00298650 </i>
  </energy>
  <time name="totalsc">    5.06    5.45</time>
 </calculation>
 <calculation>
  <scstep>
   <time name="dav">    0.93    0.94</time>
   <time name="total">    1.02    1.16</time>
   <energy>
    <i name="alphaZ">   1474.82291972 </i>
    <i name="ewald"> -18139.79019594 </i>
    <i name="hartreedc">  -6065.09150296 </i>
    <i name="XCdc">   -477.92361264 </i>
    <i name="pawpsdc">  32802.77675950 </i>
    <i name="pawaedc"> -31086.52347478 </i>
    <i name="eentropy">      0.00270044 </i>
    <i name="bandstr">  -2286.36232947 </i>
    <i name="atom">  23409.97763913 </i>
    <i name="e_fr_energy">   -368.11109700 </i>
    <i name="e_wo_entrp">   -368.11379744 </i>
    <i name="e_0_energy">   -368.11199714 </i>
   </energy>
  </scstep>
  <scstep>
   <time name="diag">    0.07    0.08</time>
   <time name="diis">    0.71    0.72</time>
   <time name="orth">    0.01    0.01</time>
   <time name="total">    0.86    0.90</time>
   <energy>
    <i name="e_fr_energy">   -368.11191470 </i>
    <i name="e_wo_entrp">   -368.11471836 </i>
    <i name="e_0_energy">   -368.11284925 </i>
   </energy>
  </scstep>
  <scstep>
   <time name="diag">    0.07    0.07</time>
   <time name="diis">    0.73    0.73</time>
   <time name="orth">    0.01    0.01</time>
   <time name="total">    0.88    0.91</time>
   <energy>
    <i name="e_fr_energy">   -368.11186047 </i>
    <i name="e_wo_entrp">   -368.11466094 </i>
    <i name="e_0_energy">   -368.11279396 </i>
   </energy>
  </scstep>
  <scstep>
   <time name="diag">    0.07    0.07</time>
   <time name="diis">    0.75    0.76</time>
   <time name="orth">    0.01    0.01</time>
   <time name="total">    0.90    0.94</time>
   <energy>
    <i name="e_fr_energy">   -368.11183829 </i>
    <i name="e_wo_entrp">   -368.11462326 </i>
    <i name="e_0_energy">   -368.11276661 </i>
   </energy>
  </scstep>
  <scstep>
   <time name="diag">    0.11    0.11</time>
   <time name="diis">    0.66    0.68</time>
   <time name="orth">    0.01    0.01</time>
   <time name="total">    0.85    0.90</time>
   <energy>
    <i name="e_fr_energy">   -368.11183090 </i>
    <i name="e_wo_entrp">   -368.11465538 </i>
    <i name="e_0_energy">   -368.11277240 </i>
   </energy>
  </scstep>
  <scstep>
   <time name="diag">    0.08    0.08</time>
   <time name="diis">    0.48    0.48</time>
   <time name="orth">    0.01    0.01</time>
   <time name="total">    0.60    0.63</time>
   <energy>
    <i name="alphaZ">   1474.82291972 </i>
    <i name="ewald"> -18139.79019594 </i>
    <i name="hartreedc">  -6065.52014593 </i>
    <i name="XCdc">   -477.90750202 </i>
    <i name="pawpsdc">  32800.80360388 </i>
    <i name="pawaedc"> -31084.53577826 </i>
    <i name="eentropy">      0.00280006 </i>
    <i name="bandstr">  -2285.96516876 </i>
    <i name="atom">  23409.97763913 </i>
    <i name="e_fr_energy">   -368.11182812 </i>
    <i name="e_wo_entrp">   -368.11462819 </i>
    <i name="e_0_energy">   -368.11276148 </i>
   </energy>
  </scstep>
  <structure>
   <crystal>
    <varray name="basis" >
     <v>       6.88981463       0.00577787      -0.00244726 </v>
     <v>       0.00891388      10.25516657       0.01132832 </v>
     <v>      -0.00337090       0.01097615      10.21721854 </v>
    </varray>
    <i name="volume">    721.90833456 </i>
    <varray name="rec_basis" >
     <v>       0.14514191      -0.00012621       0.00004802 </v>
     <v>      -0.00008181       0.09751201      -0.00010478 </v>
     <v>       0.00003486      -0.00010815       0.09787412 </v>
    </varray>
   </crystal>
   <varray name="positions" >
    <v>       0.25321954       0.16550606       0.50678749 </v>
    <v>       0.24683005       0.18253078       0.17619729 </v>
    <v>       0.01792553       0.32672880       0.33968380 </v>
    <v>       0.00842606       0.33829695       0.66588890 </v>
    <v>       0.23453284       0.48511867       0.83364028 </v>
    <v>       0.25450507       0.85677382       0.51818931 </v>
    <v>       0.48098356       0.32398223       0.33549734 </v>
    <v>       0.76583258       0.49357396       0.81624708 </v>
    <v>       0.74854501       0.84974077       0.51644991 </v>
    <v>       0.24453522       0.84502034       0.83458300 </v>
    <v>       0.23704720       0.81658346       0.14223377 </v>
    <v>       0.49155713       0.34196627       0.67165899 </v>
    <v>       0.25262721       0.16443309       0.82549425 </v>
    <v>       0.24659574       0.49940116       0.16573664 </v>
    <v>       0.01444122       0.67952353       0.34487406 </v>
    <v>       0.50588712       0.00324395       0.01141871 </v>
    <v>       0.74727918       0.16778578       0.50517315 </v>
    <v>       0.51203585       0.32661379       0.99701227 </v>
    <v>       0.74430418       0.48835257       0.49823677 </v>
    <v>       0.48958607       0.68503050       0.34123803 </v>
    <v>       0.48984615       0.66179660       0.66551873 </v>
    <v>       0.00380450       0.00105225       0.66695377 </v>
    <v>       0.25899891       0.48655926       0.49463512 </v>
    <v>       0.00332282       0.66469966       0.98933575 </v>
    <v>       0.75040505       0.18101586       0.19469935 </v>
    <v>       0.49839133       0.99934829       0.66804640 </v>
    <v>       0.74403600       0.16692074       0.81261162 </v>
    <v>       0.76364366       0.80983101       0.15648105 </v>
    <v>       0.98737706       0.00549862       0.00896779 </v>
    <v>       0.00340992       0.99643802       0.32885469 </v>
    <v>       0.98249840       0.32383162       0.99953430 </v>
    <v>       0.01400610       0.66408642       0.65835166 </v>
    <v>       0.49733766       0.99632284       0.32571039 </v>
    <v>       0.75200838       0.50510243       0.17452896 </v>
    <v>       0.49755291       0.66252138       0.98450872 </v>
    <v>       0.75665481       0.83477351       0.82501566 </v>
   </varray>
  </structure>
  <varray name="forces" >
   <v>       0.01060707       0.00162086       0.00817196 </v>
   <v>      -0.00103187       0.00262345       0.06695241 </v>
   <v>      -0.01724864       0.00373000       0.00105715 </v>
   <v>      -0.00769141      -0.00453117       0.00023895 </v>
   <v>      -0.00335640       0.00709979       0.00731494 </v>
   <v>      -0.00009430       0.09015928      -0.02366730 </v>
   <v>       0.02065964       0.00213672      -0.00409351 </v>
   <v>      -0.00330086       0.00319769       0.00137793 </v>
   <v>      -0.00060546      -0.02699650       0.00605927 </v>
   <v>      -0.00054466      -0.01427107       0.01484179 </v>
   <v>      -0.00031755      -0.00065745       0.00194112 </v>
   <v>       0.00305375      -0.00708566       0.00093937 </v>
   <v>      -0.00018632      -0.00151348      -0.07018819 </v>
   <v>      -0.00004472       0.00230925      -0.00823871 </v>
   <v>       0.00945062      -0.00537032       0.00602795 </v>
   <v>      -0.01479108       0.00807530      -0.00358117 </v>
   <v>      -0.00297668      -0.00017255       0.00272213 </v>
   <v>      -0.01677528      -0.00750346      -0.00008065 </v>
   <v>       0.00063935       0.02710715       0.00647280 </v>
   <v>      -0.00952631      -0.00484698       0.00158295 </v>
   <v>      -0.01478949       0.00188077      -0.01097893 </v>
   <v>      -0.01805674      -0.00339829       0.01414964 </v>
   <v>      -0.00054319      -0.06697578       0.00419669 </v>
   <v>       0.00787999      -0.00141042      -0.00249122 </v>
   <v>       0.00069202      -0.00724904      -0.03030681 </v>
   <v>       0.02454651      -0.00101613       0.01114601 </v>
   <v>       0.00217488       0.00041518       0.03024247 </v>
   <v>      -0.00175866      -0.00994820      -0.00971409 </v>
   <v>       0.01461486       0.00569889      -0.00496814 </v>
   <v>      -0.01842960      -0.00243662      -0.00595467 </v>
   <v>       0.01252228      -0.00341592       0.00203751 </v>
   <v>       0.01293768       0.00353055      -0.01153275 </v>
   <v>       0.01907789       0.00023752      -0.00540249 </v>
   <v>       0.00203273      -0.00026814      -0.00264833 </v>
   <v>      -0.00699072       0.00847285       0.00584668 </v>
   <v>      -0.00182932       0.00077193       0.00052724 </v>
  </varray>
  <varray name="stress" >
   <v>       0.09373231      -0.02144034      -0.01682678 </v>
   <v>      -0.02144032      -0.18163829       0.08004363 </v>
   <v>      -0.01682683       0.08004364       0.05223667 </v>
  </varray>
  <energy>
   <i name="e_fr_energy">   -368.11182812 </i>
   <i name="e_wo_entrp">   -368.11276148 </i>
   <i name="e_0_energy">      0.00280006 </i>
  </energy>
  <time name="totalsc">    6.68    7.13</time>
 </calculation>
 <calculation>
  <scstep>
   <time name="dav">    1.09    1.10</time>
   <time name="total">    1.19    1.32</time>
   <energy>
    <i name="alphaZ">   1474.59272119 </i>
    <i name="ewald"> -18136.58478635 </i>
    <i name="hartreedc">  -6067.26427720 </i>
    <i name="XCdc">   -477.93968661 </i>
    <i name="pawpsdc">  32800.84523187 </i>
    <i name="pawaedc"> -31084.57850982 </i>
    <i name="eentropy">      0.00217597 </i>
    <i name="bandstr">  -2287.16198392 </i>
    <i name="atom">  23409.97763913 </i>
    <i name="e_fr_energy">   -368.11147573 </i>
    <i name="e_wo_entrp">   -368.11365170 </i>
    <i name="e_0_energy">   -368.11220106 </i>
   </energy>
  </scstep>
  <scstep>
   <time name="diag">    0.09    0.09</time>
   <time name="diis">    0.70    0.71</time>
   <time name="orth">    0.01    0.01</time>
   <time name="total">    0.86    0.89</time>
   <energy>
    <i name="e_fr_energy">   -368.11472539 </i>
    <i name="e_wo_entrp">   -368.11716365 </i>
    <i name="e_0_energy">   -368.11553814 </i>
   </energy>
  </scstep>
  <scstep>
   <time name="diag">    0.07    0.07</time>
   <time name="diis">    0.69    0.79</time>
   <time name="orth">    0.01    0.01</time>
   <time name="total">    0.84    0.97</time>
   <energy>
    <i name="e_fr_energy">   -368.11448090 </i>
    <i name="e_wo_entrp">   -368.11687008 </i>
    <i name="e_0_energy">   -368.11527730 </i>
   </energy>
  </scstep>
  <scstep>
   <time name="diag">    0.08    0.08</time>
   <time name="diis">    0.82    0.83</time>
   <time name="orth">    0.01    0.01</time>
   <time name="total">    0.98    1.04</time>
   <energy>
    <i name="e_fr_energy">   -368.11440831 </i>
    <i name="e_wo_entrp">   -368.11677740 </i>
    <i name="e_0_energy">   -368.11519801 </i>
   </energy>
  </scstep>
  <scstep>
   <time name="diag">    0.08    0.08</time>
   <time name="diis">    0.73    0.75</time>
   <time name="orth">    0.01    0.01</time>
   <time name="total">    0.89    0.96</time>
   <energy>
    <i name="e_fr_energy">   -368.11438056 </i>
    <i name="e_wo_entrp">   -368.11683061 </i>
    <i name="e_0_energy">   -368.11519724 </i>
   </energy>
  </scstep>
  <scstep>
   <time name="diag">    0.07    0.08</time>
   <time name="diis">    0.68    0.69</time>
   <time name="orth">    0.01    0.01</time>
   <time name="total">    0.86    0.94</time>
   <energy>
    <i name="e_fr_energy">   -368.11437048 </i>
    <i name="e_wo_entrp">   -368.11676937 </i>
    <i name="e_0_energy">   -368.11517011 </i>
   </energy>
  </scstep>
  <scstep>
   <time name="diag">    0.13    0.13</time>
   <time name="diis">    0.45    0.46</time>
   <time name="orth">    0.01    0.01</time>
   <time name="total">    0.63    0.67</time>
   <energy>
    <i name="alphaZ">   1474.59272119 </i>
    <i name="ewald"> -18136.58478635 </i>
    <i name="hartreedc">  -6068.10299794 </i>
    <i name="XCdc">   -477.90844309 </i>
    <i name="pawpsdc">  32797.34062091 </i>
    <i name="pawaedc"> -31081.06139106 </i>
    <i name="eentropy">      0.00241144 </i>
    <i name="bandstr">  -2286.37014415 </i>
    <i name="atom">  23409.97763913 </i>
    <i name="e_fr_energy">   -368.11436991 </i>
    <i name="e_wo_entrp">   -368.11678136 </i>
    <i name="e_0_energy">   -368.11517373 </i>
   </energy>
  </scstep>
  <structure>
   <crystal>
    <varray name="basis" >
     <v>       6.89295842       0.00615409      -0.00199530 </v>
     <v>       0.00948220      10.25181343       0.01330350 </v>
     <v>      -0.00270317       0.01293935      10.21749894 </v>
    </varray>
    <i name="volume">    722.02103160 </i>
    <varray name="rec_basis" >
     <v>       0.14507572      -0.00013423       0.00003855 </v>
     <v>      -0.00008712       0.09754396      -0.00012355 </v>
     <v>       0.00002844      -0.00012703       0.09787148 </v>
    </varray>
   </crystal>
   <varray name="positions" >
    <v>       0.25345427       0.16562464       0.50703421 </v>
    <v>       0.24683307       0.18255588       0.17701671 </v>
    <v>       0.01777787       0.32673601       0.33965949 </v>
    <v>       0.00848913       0.33813936       0.66585128 </v>
    <v>       0.23455358       0.48522468       0.83370069 </v>
    <v>       0.25449164       0.85792877       0.51799315 </v>
    <v>       0.48115836       0.32393458       0.33541236 </v>
    <v>       0.76576895       0.49367742       0.81629519 </v>
    <v>       0.74850903       0.84946287       0.51650830 </v>
    <v>       0.24458503       0.84487830       0.83473452 </v>
    <v>       0.23703850       0.81655866       0.14218393 </v>
    <v>       0.49138937       0.34179415       0.67165449 </v>
    <v>       0.25259759       0.16442282       0.82459463 </v>
    <v>       0.24662535       0.49947041       0.16563409 </v>
    <v>       0.01443854       0.67947181       0.34491914 </v>
    <v>       0.50577182       0.00334138       0.01140626 </v>
    <v>       0.74721796       0.16776595       0.50519739 </v>
    <v>       0.51195614       0.32653997       0.99698119 </v>
    <v>       0.74430442       0.48866548       0.49827390 </v>
    <v>       0.48960566       0.68497424       0.34123209 </v>
    <v>       0.48976839       0.66174501       0.66545234 </v>
    <v>       0.00363130       0.00102112       0.66703593 </v>
    <v>       0.25899131       0.48575399       0.49471488 </v>
    <v>       0.00353851       0.66468113       0.98934436 </v>
    <v>       0.75038565       0.18095418       0.19436690 </v>
    <v>       0.49866626       0.99934720       0.66809200 </v>
    <v>       0.74406147       0.16694131       0.81297404 </v>
    <v>       0.76362218       0.80970951       0.15639563 </v>
    <v>       0.98748362       0.00555807       0.00892846 </v>
    <v>       0.00314287       0.99640355       0.32883322 </v>
    <v>       0.98249601       0.32380555       0.99953924 </v>
    <v>       0.01404224       0.66406006       0.65828066 </v>
    <v>       0.49758460       0.99632859       0.32570648 </v>
    <v>       0.75202395       0.50508207       0.17451091 </v>
    <v>       0.49736381       0.66259997       0.98458480 </v>
    <v>       0.75662152       0.83484630       0.82495214 </v>
   </varray>
  </structure>
  <varray name="forces" >
   <v>      -0.00084751      -0.01617781      -0.02294019 </v>
   <v>      -0.00201062       0.00071929       0.02381686 </v>
   <v>      -0.02596726       0.00782554       0.00742330 </v>
   <v>      -0.02770069       0.01619785       0.00720581 </v>
   <v>      -0.01051138      -0.00080417       0.00556326 </v>
   <v>       0.00109272       0.02183092      -0.02477707 </v>
   <v>       0.03145004       0.01356812       0.00483421 </v>
   <v>      -0.00105934      -0.01043588      -0.00575205 </v>
   <v>       0.00282887      -0.01943690       0.00435512 </v>
   <v>      -0.00755092      -0.01197870       0.00920504 </v>
   <v>      -0.00064708       0.00239544       0.01356577 </v>
   <v>       0.02838100       0.01200562       0.00261542 </v>
   <v>       0.00318155      -0.00163724      -0.01814622 </v>
   <v>      -0.00369444      -0.00716455      -0.00255047 </v>
   <v>       0.02323858      -0.00483917       0.00964795 </v>
   <v>      -0.02313612       0.00504526      -0.00743017 </v>
   <v>      -0.00075217       0.00307753       0.00261447 </v>
   <v>      -0.03144216      -0.00635036       0.00458960 </v>
   <v>       0.00121167       0.01269191       0.01124033 </v>
   <v>      -0.02557028      -0.00219287       0.00771994 </v>
   <v>      -0.02705649       0.01337730      -0.01606519 </v>
   <v>      -0.02643563      -0.00350461       0.02038525 </v>
   <v>      -0.00066051      -0.01840343      -0.00359975 </v>
   <v>      -0.00743862      -0.00011506      -0.00795966 </v>
   <v>       0.00317491      -0.00610748      -0.01563381 </v>
   <v>       0.03003857      -0.00321317       0.01977929 </v>
   <v>       0.00194565      -0.00351680       0.01032517 </v>
   <v>      -0.00024920      -0.00470362      -0.00969012 </v>
   <v>       0.02363147       0.00281461      -0.00655510 </v>
   <v>      -0.01584818       0.00058298      -0.00949612 </v>
   <v>       0.03240449      -0.00283444       0.00412314 </v>
   <v>       0.02813078       0.01347327      -0.01603675 </v>
   <v>       0.01956072      -0.00031176      -0.01109637 </v>
   <v>       0.00346379       0.00244285      -0.00368255 </v>
   <v>       0.00538468       0.00687757       0.00024237 </v>
   <v>      -0.00054089      -0.01119804       0.01215929 </v>
  </varray>
  <varray name="stress" >
   <v>      -0.36019594      -0.12201990      -0.12922944 </v>
   <v>      -0.12201989       0.02726331      -0.07308054 </v>
   <v>      -0.12922948      -0.07308053       0.10316670 </v>
  </varray>
  <energy>
   <i name="e_fr_energy">   -368.11436991 </i>
   <i name="e_wo_entrp">   -368.11517373 </i>
   <i name="e_0_energy">      0.00241144 </i>
  </energy>
  <time name="totalsc">    7.78    8.61</time>
 </calculation>
 <calculation>
  <scstep>
   <time name="dav">    0.93    0.94</time>
   <time name="total">    1.02    1.18</time>
   <energy>
    <i name="alphaZ">   1474.50216050 </i>
    <i name="ewald"> -18135.30577634 </i>
    <i name="hartreedc">  -6068.79153191 </i>
    <i name="XCdc">   -477.92138442 </i>
    <i name="pawpsdc">  32797.40374165 </i>
    <i name="pawaedc"> -31081.12836320 </i>
    <i name="eentropy">      0.00215953 </i>
    <i name="bandstr">  -2286.85280731 </i>
    <i name="atom">  23409.97763913 </i>
    <i name="e_fr_energy">   -368.11416237 </i>
    <i name="e_wo_entrp">   -368.11632189 </i>
    <i name="e_0_energy">   -368.11488221 </i>
   </energy>
  </scstep>
  <scstep>
   <time name="diag">    0.07    0.07</time>
   <time name="diis">    0.71    0.72</time>
   <time name="orth">    0.01    0.01</time>
   <time name="total">    0.86    0.90</time>
   <energy>
    <i name="e_fr_energy">   -368.11468583 </i>
    <i name="e_wo_entrp">   -368.11693967 </i>
    <i name="e_0_energy">   -368.11543711 </i>
   </energy>
  </scstep>
  <scstep>
   <time name="diag">    0.08    0.08</time>
   <time name="diis">    0.79    0.79</time>
   <time name="orth">    0.01    0.01</time>
   <time name="total">    0.94    0.99</time>
   <energy>
    <i name="e_fr_energy">   -368.11465582 </i>
    <i name="e_wo_entrp">   -368.11689780 </i>
    <i name="e_0_energy">   -368.11540315 </i>
   </energy>
  </scstep>
  <scstep>
   <time name="diag">    0.08    0.08</time>
   <time name="diis">    0.62    0.67</time>
   <time name="orth">    0.01    0.01</time>
   <time name="total">    0.78    0.86</time>
   <energy>
    <i name="e_fr_energy">   -368.11464802 </i>
    <i name="e_wo_entrp">   -368.11687838 </i>
    <i name="e_0_energy">   -368.11539147 </i>
   </energy>
  </scstep>
  <scstep>
   <time name="diag">    0.08    0.08</time>
   <time name="diis">    0.56    0.57</time>
   <time name="orth">    0.01    0.01</time>
   <time name="total">    0.68    0.72</time>
   <energy>
    <i name="alphaZ">   1474.50216050 </i>
    <i name="ewald"> -18135.30577634 </i>
    <i name="hartreedc">  -6069.12560148 </i>
    <i name="XCdc">   -477.90923685 </i>
    <i name="pawpsdc">  32796.10174651 </i>
    <i name="pawaedc"> -31079.82975632 </i>
    <i name="eentropy">      0.00226460 </i>
    <i name="bandstr">  -2286.52808350 </i>
    <i name="atom">  23409.97763913 </i>
    <i name="e_fr_energy">   -368.11464376 </i>
    <i name="e_wo_entrp">   -368.11690836 </i>
    <i name="e_0_energy">   -368.11539863 </i>
   </energy>
  </scstep>
  <structure>
   <crystal>
    <varray name="basis" >
     <v>       6.89419757       0.00630239      -0.00181716 </v>
     <v>       0.00970621      10.25049176       0.01408203 </v>
     <v>      -0.00243997       0.01371316      10.21760946 </v>
    </varray>
    <i name="volume">    722.06537655 </i>
    <varray name="rec_basis" >
     <v>       0.14504965      -0.00013740       0.00003482 </v>
     <v>      -0.00008922       0.09755656      -0.00013095 </v>
     <v>       0.00002592      -0.00013448       0.09787044 </v>
    </varray>
   </crystal>
   <varray name="positions" >
    <v>       0.25354673       0.16567138       0.50713144 </v>
    <v>       0.24683424       0.18256571       0.17733968 </v>
    <v>       0.01771969       0.32673886       0.33964992 </v>
    <v>       0.00851399       0.33807722       0.66583646 </v>
    <v>       0.23456175       0.48526648       0.83372450 </v>
    <v>       0.25448632       0.85838417       0.51791575 </v>
    <v>       0.48122723       0.32391580       0.33537886 </v>
    <v>       0.76574388       0.49371821       0.81631415 </v>
    <v>       0.74849487       0.84935329       0.51653133 </v>
    <v>       0.24460466       0.84482228       0.83479425 </v>
    <v>       0.23703508       0.81654888       0.14216429 </v>
    <v>       0.49132328       0.34172629       0.67165274 </v>
    <v>       0.25258596       0.16441883       0.82424005 </v>
    <v>       0.24663702       0.49949772       0.16559366 </v>
    <v>       0.01443749       0.67945142       0.34493692 </v>
    <v>       0.50572639       0.00337981       0.01140135 </v>
    <v>       0.74719384       0.16775813       0.50520694 </v>
    <v>       0.51192475       0.32651086       0.99696894 </v>
    <v>       0.74430451       0.48878886       0.49828850 </v>
    <v>       0.48961338       0.68495205       0.34122975 </v>
    <v>       0.48973776       0.66172467       0.66542617 </v>
    <v>       0.00356306       0.00100884       0.66706832 </v>
    <v>       0.25898834       0.48543648       0.49474638 </v>
    <v>       0.00362348       0.66467383       0.98934776 </v>
    <v>       0.75037802       0.18092988       0.19423586 </v>
    <v>       0.49877458       0.99934677       0.66810997 </v>
    <v>       0.74407149       0.16694940       0.81311688 </v>
    <v>       0.76361372       0.80966161       0.15636197 </v>
    <v>       0.98752560       0.00558151       0.00891296 </v>
    <v>       0.00303767       0.99638997       0.32882477 </v>
    <v>       0.98249507       0.32379527       0.99954119 </v>
    <v>       0.01405648       0.66404967       0.65825268 </v>
    <v>       0.49768189       0.99633086       0.32570493 </v>
    <v>       0.75203008       0.50507405       0.17450380 </v>
    <v>       0.49728931       0.66263095       0.98461478 </v>
    <v>       0.75660841       0.83487500       0.82492710 </v>
   </varray>
  </structure>
  <varray name="forces" >
   <v>      -0.00498233      -0.02231425      -0.03519508 </v>
   <v>      -0.00248419      -0.00126723       0.00691050 </v>
   <v>      -0.02821934       0.00935579       0.00858667 </v>
   <v>      -0.03489870       0.02446336       0.01065373 </v>
   <v>      -0.01351784      -0.00418400       0.00544897 </v>
   <v>       0.00146428      -0.00384086      -0.02627768 </v>
   <v>       0.03469799       0.01777942       0.00672225 </v>
   <v>       0.00006637      -0.01623234      -0.00813183 </v>
   <v>       0.00415534      -0.01702829       0.00359476 </v>
   <v>      -0.01029963      -0.01087258       0.00792160 </v>
   <v>      -0.00019533       0.00459225       0.01892737 </v>
   <v>       0.03770518       0.01973170       0.00425316 </v>
   <v>       0.00438300      -0.00134553       0.00327867 </v>
   <v>      -0.00491300      -0.01112390      -0.00033144 </v>
   <v>       0.02903510      -0.00404028       0.01012947 </v>
   <v>      -0.02721132       0.00454052      -0.00812707 </v>
   <v>       0.00024646       0.00441643       0.00240735 </v>
   <v>      -0.03818685      -0.00647237       0.00697606 </v>
   <v>       0.00163579       0.00782579       0.01302476 </v>
   <v>      -0.03200410      -0.00075105       0.00902741 </v>
   <v>      -0.03248607       0.01747403      -0.01768922 </v>
   <v>      -0.03010650      -0.00327800       0.02263362 </v>
   <v>      -0.00079658      -0.00442829      -0.00562403 </v>
   <v>      -0.01318843       0.00006740      -0.01087552 </v>
   <v>       0.00438186      -0.00635001      -0.01202380 </v>
   <v>       0.03235522      -0.00403338       0.02302354 </v>
   <v>       0.00234387      -0.00422387       0.00434672 </v>
   <v>       0.00018761      -0.00170388      -0.00790104 </v>
   <v>       0.02720973       0.00299347      -0.00704488 </v>
   <v>      -0.01515455       0.00201851      -0.01125378 </v>
   <v>       0.04012297      -0.00334093       0.00458924 </v>
   <v>       0.03413003       0.01732152      -0.01771895 </v>
   <v>       0.02038637       0.00005644      -0.01368699 </v>
   <v>       0.00399665       0.00427639      -0.00400522 </v>
   <v>       0.00978923       0.00573452      -0.00216150 </v>
   <v>       0.00035173      -0.01581648       0.01559218 </v>
  </varray>
  <varray name="stress" >
   <v>      -0.45705054      -0.14869603      -0.16242881 </v>
   <v>      -0.14869603       0.02102494      -0.08685662 </v>
   <v>      -0.16242880      -0.08685658       0.11195681 </v>
  </varray>
  <energy>
   <i name="e_fr_energy">   -368.11464376 </i>
   <i name="e_wo_entrp">   -368.11539863 </i>
   <i name="e_0_energy">      0.00226460 </i>
  </energy>
  <time name="totalsc">    5.81    6.30</time>
 </calculation>
 <calculation>
  <scstep>
   <time name="dav">    0.90    0.91</time>
   <time name="total">    1.00    1.16</time>
   <energy>
    <i name="alphaZ">   1474.73281338 </i>
    <i name="ewald"> -18135.36940794 </i>
    <i name="hartreedc">  -6070.32778316 </i>
    <i name="XCdc">   -477.86816082 </i>
    <i name="pawpsdc">  32796.01620679 </i>
    <i name="pawaedc"> -31079.74535791 </i>
    <i name="eentropy">      0.00196624 </i>
    <i name="bandstr">  -2285.53314245 </i>
    <i name="atom">  23409.97763913 </i>
    <i name="e_fr_energy">   -368.11522674 </i>
    <i name="e_wo_entrp">   -368.11719298 </i>
    <i name="e_0_energy">   -368.11588216 </i>
   </energy>
  </scstep>
  <scstep>
   <time name="diag">    0.13    0.13</time>
   <time name="diis">    0.67    0.73</time>
   <time name="orth">    0.02    0.02</time>
   <time name="total">    0.90    0.99</time>
   <energy>
    <i name="e_fr_energy">   -368.11592828 </i>
    <i name="e_wo_entrp">   -368.11787286 </i>
    <i name="e_0_energy">   -368.11657647 </i>
   </energy>
  </scstep>
  <scstep>
   <time name="diag">    0.07    0.08</time>
   <time name="diis">    0.75    0.75</time>
   <time name="orth">    0.01    0.01</time>
   <time name="total">    0.90    0.96</time>
   <energy>
    <i name="e_fr_energy">   -368.11588440 </i>
    <i name="e_wo_entrp">   -368.11782000 </i>
    <i name="e_0_energy">   -368.11652960 </i>
   </energy>
  </scstep>
  <scstep>
   <time name="diag">    0.07    0.07</time>
   <time name="diis">    0.71    0.71</time>
   <time name="orth">    0.01    0.01</time>
   <time name="total">    0.85    0.89</time>
   <energy>
    <i name="e_fr_energy">   -368.11587083 </i>
    <i name="e_wo_entrp">   -368.11777277 </i>
    <i name="e_0_energy">   -368.11650481 </i>
   </energy>
  </scstep>
  <scstep>
   <time name="diag">    0.07    0.07</time>
   <time name="diis">    0.63    0.63</time>
   <time name="orth">    0.01    0.01</time>
   <time name="total">    0.75    0.78</time>
   <energy>
    <i name="alphaZ">   1474.73281338 </i>
    <i name="ewald"> -18135.36940794 </i>
    <i name="hartreedc">  -6069.72028127 </i>
    <i name="XCdc">   -477.89324744 </i>
    <i name="pawpsdc">  32802.71870979 </i>
    <i name="pawaedc"> -31086.47266471 </i>
    <i name="eentropy">      0.00191602 </i>
    <i name="bandstr">  -2286.09134330 </i>
    <i name="atom">  23409.97763913 </i>
    <i name="e_fr_energy">   -368.11586633 </i>
    <i name="e_wo_entrp">   -368.11778236 </i>
    <i name="e_0_energy">   -368.11650501 </i>
   </energy>
  </scstep>
  <structure>
   <crystal>
    <varray name="basis" >
     <v>       6.89304797       0.00578071      -0.00237822 </v>
     <v>       0.00892837      10.24985219       0.01400531 </v>
     <v>      -0.00327185       0.01363578      10.21835165 </v>
    </varray>
    <i name="volume">    721.95244324 </i>
    <varray name="rec_basis" >
     <v>       0.14507383      -0.00012643       0.00004662 </v>
     <v>      -0.00008186       0.09756263      -0.00013022 </v>
     <v>       0.00003388      -0.00013375       0.09786333 </v>
    </varray>
   </crystal>
   <varray name="positions" >
    <v>       0.25356620       0.16559560       0.50702479 </v>
    <v>       0.24681785       0.18256551       0.17755903 </v>
    <v>       0.01749202       0.32678381       0.33968408 </v>
    <v>       0.00828848       0.33815431       0.66587706 </v>
    <v>       0.23447364       0.48527141       0.83376357 </v>
    <v>       0.25449327       0.85863072       0.51774904 </v>
    <v>       0.48150546       0.32398688       0.33539053 </v>
    <v>       0.76572989       0.49366691       0.81628754 </v>
    <v>       0.74851532       0.84921101       0.51656148 </v>
    <v>       0.24454535       0.84473954       0.83486568 </v>
    <v>       0.23703175       0.81656432       0.14224062 </v>
    <v>       0.49154391       0.34177793       0.67167136 </v>
    <v>       0.25260935       0.16441028       0.82404963 </v>
    <v>       0.24661010       0.49946219       0.16556875 </v>
    <v>       0.01463642       0.67942073       0.34499425 </v>
    <v>       0.50551304       0.00342324       0.01136076 </v>
    <v>       0.74718153       0.16777399       0.50522361 </v>
    <v>       0.51164422       0.32646419       0.99699418 </v>
    <v>       0.74431577       0.48889649       0.49835731 </v>
    <v>       0.48939798       0.68493579       0.34127021 </v>
    <v>       0.48949665       0.66179387       0.66532884 </v>
    <v>       0.00331669       0.00098656       0.66719202 </v>
    <v>       0.25898117       0.48523189       0.49473861 </v>
    <v>       0.00358212       0.66467002       0.98929929 </v>
    <v>       0.75040373       0.18088650       0.19410418 </v>
    <v>       0.49905976       0.99932760       0.66822719 </v>
    <v>       0.74409344       0.16693452       0.81321990 </v>
    <v>       0.76361010       0.80962600       0.15630583 </v>
    <v>       0.98773687       0.00560887       0.00887132 </v>
    <v>       0.00287250       0.99639155       0.32876767 </v>
    <v>       0.98277023       0.32377367       0.99956367 </v>
    <v>       0.01429910       0.66412366       0.65815424 </v>
    <v>       0.49787835       0.99633243       0.32564060 </v>
    <v>       0.75206107       0.50508916       0.17448108 </v>
    <v>       0.49731332       0.66267539       0.98462212 </v>
    <v>       0.75660335       0.83481846       0.82498496 </v>
   </varray>
  </structure>
  <varray name="forces" >
   <v>      -0.00485211      -0.01586427      -0.02765524 </v>
   <v>       0.00016271       0.00480442       0.00733895 </v>
   <v>      -0.02347969       0.00583383       0.00524153 </v>
   <v>      -0.02547108       0.01287337       0.00693560 </v>
   <v>      -0.00862742      -0.00304447       0.00041648 </v>
   <v>       0.00203730       0.00286257      -0.01801091 </v>
   <v>       0.02701753       0.01289176       0.00431991 </v>
   <v>      -0.00261901      -0.00586201      -0.00564109 </v>
   <v>       0.00399786      -0.01360257       0.00204313 </v>
   <v>      -0.00950736      -0.00525084       0.00378922 </v>
   <v>      -0.00126928       0.00265613       0.01543165 </v>
   <v>       0.02880713       0.01271033       0.00354431 </v>
   <v>       0.00296326       0.00123962      -0.00123066 </v>
   <v>      -0.00358097      -0.01047747       0.00228963 </v>
   <v>       0.02237688      -0.00483409       0.00624949 </v>
   <v>      -0.01986241       0.00165718      -0.00704762 </v>
   <v>       0.00146890       0.00340525       0.00424767 </v>
   <v>      -0.02848188      -0.00459328       0.00772268 </v>
   <v>       0.00120976       0.01253088       0.01275598 </v>
   <v>      -0.02475814      -0.00355489       0.00798427 </v>
   <v>      -0.02579792       0.01313557      -0.01337728 </v>
   <v>      -0.02147665      -0.00794454       0.01723772 </v>
   <v>      -0.00055615       0.00427439      -0.00659669 </v>
   <v>      -0.01660519      -0.00181853      -0.00432799 </v>
   <v>       0.00390707      -0.00244223      -0.01112983 </v>
   <v>       0.02292940      -0.00782679       0.01844652 </v>
   <v>       0.00048797      -0.00124306       0.00141096 </v>
   <v>      -0.00046822      -0.00116249      -0.00675482 </v>
   <v>       0.02245796       0.00168807      -0.00532835 </v>
   <v>      -0.01500447       0.00188930      -0.00913217 </v>
   <v>       0.03248153      -0.00553132       0.00428895 </v>
   <v>       0.02804799       0.01069048      -0.01179676 </v>
   <v>       0.01770041      -0.00031625      -0.01204590 </v>
   <v>       0.00274751       0.00503040      -0.00491636 </v>
   <v>       0.01044287       0.00083393      -0.00098129 </v>
   <v>       0.00117390      -0.01563839       0.01427831 </v>
  </varray>
  <varray name="stress" >
   <v>      -0.25196390      -0.10650779      -0.09920843 </v>
   <v>      -0.10650776       0.19419071      -0.13537478 </v>
   <v>      -0.09920847      -0.13537475       0.32115421 </v>
  </varray>
  <energy>
   <i name="e_fr_energy">   -368.11586633 </i>
   <i name="e_wo_entrp">   -368.11650501 </i>
   <i name="e_0_energy">      0.00191602 </i>
  </energy>
  <time name="totalsc">    5.99    6.51</time>
 </calculation>
 <calculation>
  <scstep>
   <time name="dav">    0.94    0.95</time>
   <time name="total">    1.02    1.18</time>
   <energy>
    <i name="alphaZ">   1475.42553533 </i>
    <i name="ewald"> -18135.50713088 </i>
    <i name="hartreedc">  -6073.38514180 </i>
    <i name="XCdc">   -477.76992081 </i>
    <i name="pawpsdc">  32803.19769859 </i>
    <i name="pawaedc"> -31086.95497877 </i>
    <i name="eentropy">      0.00107806 </i>
    <i name="bandstr">  -2283.09665164 </i>
    <i name="atom">  23409.97763913 </i>
    <i name="e_fr_energy">   -368.11187278 </i>
    <i name="e_wo_entrp">   -368.11295084 </i>
    <i name="e_0_energy">   -368.11223213 </i>
   </energy>
  </scstep>
  <scstep>
   <time name="diag">    0.07    0.07</time>
   <time name="diis">    0.73    0.73</time>
   <time name="orth">    0.01    0.01</time>
   <time name="total">    0.88    0.91</time>
   <energy>
    <i name="e_fr_energy">   -368.11822190 </i>
    <i name="e_wo_entrp">   -368.11916977 </i>
    <i name="e_0_energy">   -368.11853786 </i>
   </energy>
  </scstep>
  <scstep>
   <time name="diag">    0.07    0.07</time>
   <time name="diis">    0.76    0.76</time>
   <time name="orth">    0.01    0.01</time>
   <time name="total">    0.90    0.95</time>
   <energy>
    <i name="e_fr_energy">   -368.11778352 </i>
    <i name="e_wo_entrp">   -368.11875495 </i>
    <i name="e_0_energy">   -368.11810733 </i>
   </energy>
  </scstep>
  <scstep>
   <time name="diag">    0.07    0.07</time>
   <time name="diis">    0.85    0.85</time>
   <time name="orth">    0.01    0.01</time>
   <time name="total">    1.00    1.03</time>
   <energy>
    <i name="e_fr_energy">   -368.11764127 </i>
    <i name="e_wo_entrp">   -368.11849945 </i>
    <i name="e_0_energy">   -368.11792733 </i>
   </energy>
  </scstep>
  <scstep>
   <time name="diag">    0.07    0.07</time>
   <time name="diis">    0.85    0.85</time>
   <time name="orth">    0.01    0.01</time>
   <time name="total">    0.99    1.03</time>
   <energy>
    <i name="e_fr_energy">   -368.11760050 </i>
    <i name="e_wo_entrp">   -368.11849140 </i>
    <i name="e_0_energy">   -368.11789747 </i>
   </energy>
  </scstep>
  <scstep>
   <time name="diag">    0.07    0.07</time>
   <time name="diis">    0.69    0.82</time>
   <time name="orth">    0.01    0.01</time>
   <time name="total">    0.83    1.01</time>
   <energy>
    <i name="e_fr_energy">   -368.11758858 </i>
    <i name="e_wo_entrp">   -368.11842168 </i>
    <i name="e_0_energy">   -368.11786628 </i>
   </energy>
  </scstep>
  <scstep>
   <time name="diag">    0.07    0.07</time>
   <time name="diis">    0.55    0.55</time>
   <time name="orth">    0.01    0.01</time>
   <time name="total">    0.70    0.74</time>
   <energy>
    <i name="e_fr_energy">   -368.11759210 </i>
    <i name="e_wo_entrp">   -368.11844267 </i>
    <i name="e_0_energy">   -368.11787563 </i>
   </energy>
  </scstep>
  <scstep>
   <time name="diag">    0.11    0.11</time>
   <time name="diis">    0.43    0.44</time>
   <time name="orth">    0.01    0.01</time>
   <time name="total">    0.60    0.63</time>
   <energy>
    <i name="alphaZ">   1475.42553533 </i>
    <i name="ewald"> -18135.50713088 </i>
    <i name="hartreedc">  -6071.69190073 </i>
[...]
       <r>    6.6675    1.0000 </r>
       <r>    6.6927    1.0000 </r>
       <r>    6.7593    1.0000 </r>
       <r>    6.7718    1.0000 </r>
       <r>    6.8061    1.0000 </r>
       <r>    6.8162    1.0000 </r>
       <r>    6.8781    1.0001 </r>
       <r>    6.9025    1.0001 </r>
       <r>    6.9096    1.0002 </r>
       <r>    6.9830    1.0018 </r>
       <r>    7.0078    1.0035 </r>
       <r>    7.0621    1.0117 </r>
       <r>    7.0984    1.0216 </r>
       <r>    7.1366    1.0326 </r>
       <r>    7.1849    1.0300 </r>
       <r>    7.2142    1.0038 </r>
       <r>    7.2288    0.9798 </r>
       <r>    7.2628    0.8895 </r>
       <r>    7.2850    0.8025 </r>
       <r>    7.3532    0.4436 </r>
       <r>    7.3801    0.2988 </r>
       <r>    7.4053    0.1809 </r>
       <r>    7.4702   -0.0011 </r>
       <r>    7.5027   -0.0305 </r>
       <r>    7.5298   -0.0354 </r>
       <r>    7.5630   -0.0292 </r>
       <r>    7.5874   -0.0218 </r>
       <r>    7.6050   -0.0166 </r>
       <r>    7.6702   -0.0043 </r>
       <r>    7.7322   -0.0008 </r>
       <r>    7.7486   -0.0004 </r>
       <r>    7.7895   -0.0001 </r>
       <r>    7.8134   -0.0000 </r>
       <r>    7.8625   -0.0000 </r>
       <r>    7.9059   -0.0000 </r>
       <r>    7.9606   -0.0000 </r>
       <r>    8.0321   -0.0000 </r>
       <r>    8.0712   -0.0000 </r>
       <r>    8.1277   -0.0000 </r>
       <r>    8.1815   -0.0000 </r>
       <r>    8.2434   -0.0000 </r>
       <r>    8.4224   -0.0000 </r>
       <r>    8.6928   -0.0000 </r>
       <r>    8.7153   -0.0000 </r>
       <r>    9.1594   -0.0000 </r>
       <r>    9.2688   -0.0000 </r>
       <r>    9.3694   -0.0000 </r>
       <r>    9.3878   -0.0000 </r>
       <r>    9.4518   -0.0000 </r>
      </set>
     </set>
    </set>
   </array>
  </eigenvalues>
  <separator name="orbital magnetization" >
   <v name="MAGDIPOLOUT">      0.00000000      0.00000000      0.00000000</v>
  </separator>
  <dos>
   <i name="efermi">      7.34322197 </i>
   <total>
    <array>
     <dimension dim="1">gridpoints</dimension>
     <dimension dim="2">spin</dimension>
     <field>energy</field>
     <field>total</field>
     <field>integrated</field>
     <set>
      <set comment="spin 1">
       <r>   -49.7399     0.0000     0.0000 </r>
       <r>   -49.5331     0.0000     0.0000 </r>
       <r>   -49.3263     0.0000     0.0000 </r>
       <r>   -49.1195     0.0000     0.0000 </r>
       <r>   -48.9127     0.0000     0.0000 </r>
       <r>   -48.7059     0.0000     0.0000 </r>
       <r>   -48.4991     0.0000     0.0000 </r>
       <r>   -48.2923    -0.0000    -0.0000 </r>
       <r>   -48.0855    -0.0000    -0.0000 </r>
       <r>   -47.8787    -0.0000    -0.0000 </r>
       <r>   -47.6718    -0.0000    -0.0000 </r>
       <r>   -47.4650    -0.0000    -0.0000 </r>
       <r>   -47.2582    -0.0478    -0.0099 </r>
       <r>   -47.0514    -0.5867    -0.1312 </r>
       <r>   -46.8446    18.8902     3.7754 </r>
       <r>   -46.6378    36.8474    11.3956 </r>
       <r>   -46.4310    13.4825    14.1838 </r>
       <r>   -46.2242    -0.8782    14.0022 </r>
       <r>   -46.0174    -0.0106    14.0000 </r>
       <r>   -45.8106    -0.0000    14.0000 </r>
       <r>   -45.6038    -0.0000    14.0000 </r>
       <r>   -45.3970     0.0000    14.0000 </r>
       <r>   -45.1902     0.0000    14.0000 </r>
       <r>   -44.9834     0.0000    14.0000 </r>
       <r>   -44.7766     0.0000    14.0000 </r>
       <r>   -44.5698     0.0000    14.0000 </r>
       <r>   -44.3630     0.0000    14.0000 </r>
       <r>   -44.1562     0.0000    14.0000 </r>
       <r>   -43.9494     0.0000    14.0000 </r>
       <r>   -43.7426     0.0000    14.0000 </r>
       <r>   -43.5358     0.0000    14.0000 </r>
       <r>   -43.3290     0.0000    14.0000 </r>
       <r>   -43.1222     0.0000    14.0000 </r>
       <r>   -42.9153     0.0000    14.0000 </r>
       <r>   -42.7085     0.0000    14.0000 </r>
       <r>   -42.5017     0.0000    14.0000 </r>
       <r>   -42.2949    -0.0000    14.0000 </r>
       <r>   -42.0881    -0.0000    14.0000 </r>
       <r>   -41.8813    -0.0000    14.0000 </r>
       <r>   -41.6745    -0.0000    14.0000 </r>
       <r>   -41.4677    -0.0000    14.0000 </r>
       <r>   -41.2609    -0.0162    13.9966 </r>
       <r>   -41.0541    -1.0637    13.7767 </r>
       <r>   -40.8473    17.0207    17.2966 </r>
       <r>   -40.6405    53.4033    28.3406 </r>
       <r>   -40.4337     8.7557    30.1514 </r>
       <r>   -40.2269    -0.7286    30.0007 </r>
       <r>   -40.0201    -0.0033    30.0000 </r>
       <r>   -39.8133    -0.0000    30.0000 </r>
       <r>   -39.6065    -0.0000    30.0000 </r>
       <r>   -39.3997     0.0000    30.0000 </r>
       <r>   -39.1929     0.0000    30.0000 </r>
       <r>   -38.9861     0.0000    30.0000 </r>
       <r>   -38.7793     0.0000    30.0000 </r>
       <r>   -38.5725     0.0000    30.0000 </r>
       <r>   -38.3656     0.0000    30.0000 </r>
       <r>   -38.1588     0.0000    30.0000 </r>
       <r>   -37.9520     0.0000    30.0000 </r>
       <r>   -37.7452     0.0000    30.0000 </r>
       <r>   -37.5384     0.0000    30.0000 </r>
       <r>   -37.3316     0.0000    30.0000 </r>
       <r>   -37.1248     0.0000    30.0000 </r>
       <r>   -36.9180     0.0000    30.0000 </r>
       <r>   -36.7112     0.0000    30.0000 </r>
       <r>   -36.5044     0.0000    30.0000 </r>
       <r>   -36.2976     0.0000    30.0000 </r>
       <r>   -36.0908     0.0000    30.0000 </r>
       <r>   -35.8840     0.0000    30.0000 </r>
       <r>   -35.6772     0.0000    30.0000 </r>
       <r>   -35.4704     0.0000    30.0000 </r>
       <r>   -35.2636     0.0000    30.0000 </r>
       <r>   -35.0568     0.0000    30.0000 </r>
       <r>   -34.8500     0.0000    30.0000 </r>
       <r>   -34.6432     0.0000    30.0000 </r>
       <r>   -34.4364     0.0000    30.0000 </r>
       <r>   -34.2296     0.0000    30.0000 </r>
       <r>   -34.0228     0.0000    30.0000 </r>
       <r>   -33.8160     0.0000    30.0000 </r>
       <r>   -33.6091     0.0000    30.0000 </r>
       <r>   -33.4023     0.0000    30.0000 </r>
       <r>   -33.1955     0.0000    30.0000 </r>
       <r>   -32.9887     0.0000    30.0000 </r>
       <r>   -32.7819     0.0000    30.0000 </r>
       <r>   -32.5751     0.0000    30.0000 </r>
       <r>   -32.3683     0.0000    30.0000 </r>
       <r>   -32.1615     0.0000    30.0000 </r>
       <r>   -31.9547     0.0000    30.0000 </r>
       <r>   -31.7479     0.0000    30.0000 </r>
       <r>   -31.5411     0.0000    30.0000 </r>
       <r>   -31.3343     0.0000    30.0000 </r>
       <r>   -31.1275     0.0000    30.0000 </r>
       <r>   -30.9207     0.0000    30.0000 </r>
       <r>   -30.7139     0.0000    30.0000 </r>
       <r>   -30.5071     0.0000    30.0000 </r>
       <r>   -30.3003     0.0000    30.0000 </r>
       <r>   -30.0935     0.0000    30.0000 </r>
       <r>   -29.8867     0.0000    30.0000 </r>
       <r>   -29.6799     0.0000    30.0000 </r>
       <r>   -29.4731     0.0000    30.0000 </r>
       <r>   -29.2663     0.0000    30.0000 </r>
       <r>   -29.0595     0.0000    30.0000 </r>
       <r>   -28.8526     0.0000    30.0000 </r>
       <r>   -28.6458     0.0000    30.0000 </r>
       <r>   -28.4390     0.0000    30.0000 </r>
       <r>   -28.2322     0.0000    30.0000 </r>
       <r>   -28.0254     0.0000    30.0000 </r>
       <r>   -27.8186     0.0000    30.0000 </r>
       <r>   -27.6118     0.0000    30.0000 </r>
       <r>   -27.4050     0.0000    30.0000 </r>
       <r>   -27.1982     0.0000    30.0000 </r>
       <r>   -26.9914     0.0000    30.0000 </r>
       <r>   -26.7846     0.0000    30.0000 </r>
       <r>   -26.5778     0.0000    30.0000 </r>
       <r>   -26.3710     0.0000    30.0000 </r>
       <r>   -26.1642     0.0000    30.0000 </r>
       <r>   -25.9574     0.0000    30.0000 </r>
       <r>   -25.7506     0.0000    30.0000 </r>
       <r>   -25.5438     0.0000    30.0000 </r>
       <r>   -25.3370     0.0000    30.0000 </r>
       <r>   -25.1302     0.0000    30.0000 </r>
       <r>   -24.9234     0.0000    30.0000 </r>
       <r>   -24.7166     0.0000    30.0000 </r>
       <r>   -24.5098    -0.0000    30.0000 </r>
       <r>   -24.3030    -0.0000    30.0000 </r>
       <r>   -24.0961    -0.0000    30.0000 </r>
       <r>   -23.8893    -0.0000    30.0000 </r>
       <r>   -23.6825    -0.0010    29.9998 </r>
       <r>   -23.4757    -0.3500    29.9274 </r>
       <r>   -23.2689     3.3957    30.6297 </r>
       <r>   -23.0621    33.1685    37.4891 </r>
       <r>   -22.8553    83.6948    54.7975 </r>
       <r>   -22.6485    68.3774    68.9383 </r>
       <r>   -22.4417    15.9127    72.2291 </r>
       <r>   -22.2349    -1.0908    72.0035 </r>
       <r>   -22.0281    -0.0168    72.0000 </r>
       <r>   -21.8213    -0.0000    72.0000 </r>
       <r>   -21.6145    -0.0000    72.0000 </r>
       <r>   -21.4077     0.0000    72.0000 </r>
       <r>   -21.2009     0.0000    72.0000 </r>
       <r>   -20.9941     0.0000    72.0000 </r>
       <r>   -20.7873     0.0000    72.0000 </r>
       <r>   -20.5805    -0.0000    72.0000 </r>
       <r>   -20.3737    -0.0000    72.0000 </r>
       <r>   -20.1669    -0.0000    72.0000 </r>
       <r>   -19.9601    -0.0000    72.0000 </r>
       <r>   -19.7533    -0.0000    72.0000 </r>
       <r>   -19.5464    -0.0191    71.9961 </r>
       <r>   -19.3396    -1.1885    71.7503 </r>
       <r>   -19.1328    17.6059    75.3912 </r>
       <r>   -18.9260    73.4937    90.5901 </r>
       <r>   -18.7192    98.1105   110.8798 </r>
       <r>   -18.5124    43.9313   119.9649 </r>
       <r>   -18.3056     0.3851   120.0446 </r>
       <r>   -18.0988    -0.2152   120.0001 </r>
       <r>   -17.8920    -0.0003   120.0000 </r>
       <r>   -17.6852    -0.0000   120.0000 </r>
       <r>   -17.4784    -0.0000   120.0000 </r>
       <r>   -17.2716     0.0000   120.0000 </r>
       <r>   -17.0648     0.0000   120.0000 </r>
       <r>   -16.8580     0.0000   120.0000 </r>
       <r>   -16.6512     0.0000   120.0000 </r>
       <r>   -16.4444     0.0000   120.0000 </r>
       <r>   -16.2376     0.0000   120.0000 </r>
       <r>   -16.0308     0.0000   120.0000 </r>
       <r>   -15.8240     0.0000   120.0000 </r>
       <r>   -15.6172     0.0000   120.0000 </r>
       <r>   -15.4104     0.0000   120.0000 </r>
       <r>   -15.2036     0.0000   120.0000 </r>
       <r>   -14.9968     0.0000   120.0000 </r>
       <r>   -14.7899     0.0000   120.0000 </r>
       <r>   -14.5831     0.0000   120.0000 </r>
       <r>   -14.3763     0.0000   120.0000 </r>
       <r>   -14.1695     0.0000   120.0000 </r>
       <r>   -13.9627     0.0000   120.0000 </r>
       <r>   -13.7559     0.0000   120.0000 </r>
       <r>   -13.5491     0.0000   120.0000 </r>
       <r>   -13.3423     0.0000   120.0000 </r>
       <r>   -13.1355     0.0000   120.0000 </r>
       <r>   -12.9287     0.0000   120.0000 </r>
       <r>   -12.7219     0.0000   120.0000 </r>
       <r>   -12.5151     0.0000   120.0000 </r>
       <r>   -12.3083     0.0000   120.0000 </r>
       <r>   -12.1015     0.0000   120.0000 </r>
       <r>   -11.8947     0.0000   120.0000 </r>
       <r>   -11.6879     0.0000   120.0000 </r>
       <r>   -11.4811     0.0000   120.0000 </r>
       <r>   -11.2743     0.0000   120.0000 </r>
       <r>   -11.0675     0.0000   120.0000 </r>
       <r>   -10.8607     0.0000   120.0000 </r>
       <r>   -10.6539     0.0000   120.0000 </r>
       <r>   -10.4471     0.0000   120.0000 </r>
       <r>   -10.2403     0.0000   120.0000 </r>
       <r>   -10.0334     0.0000   120.0000 </r>
       <r>    -9.8266     0.0000   120.0000 </r>
       <r>    -9.6198     0.0000   120.0000 </r>
       <r>    -9.4130     0.0000   120.0000 </r>
       <r>    -9.2062     0.0000   120.0000 </r>
       <r>    -8.9994     0.0000   120.0000 </r>
       <r>    -8.7926     0.0000   120.0000 </r>
       <r>    -8.5858     0.0000   120.0000 </r>
       <r>    -8.3790     0.0000   120.0000 </r>
       <r>    -8.1722     0.0000   120.0000 </r>
       <r>    -7.9654     0.0000   120.0000 </r>
       <r>    -7.7586     0.0000   120.0000 </r>
       <r>    -7.5518     0.0000   120.0000 </r>
       <r>    -7.3450     0.0000   120.0000 </r>
       <r>    -7.1382     0.0000   120.0000 </r>
       <r>    -6.9314     0.0000   120.0000 </r>
       <r>    -6.7246     0.0000   120.0000 </r>
       <r>    -6.5178     0.0000   120.0000 </r>
       <r>    -6.3110     0.0000   120.0000 </r>
       <r>    -6.1042     0.0000   120.0000 </r>
       <r>    -5.8974     0.0000   120.0000 </r>
       <r>    -5.6906     0.0000   120.0000 </r>
       <r>    -5.4838     0.0000   120.0000 </r>
       <r>    -5.2769     0.0000   120.0000 </r>
       <r>    -5.0701     0.0000   120.0000 </r>
       <r>    -4.8633     0.0000   120.0000 </r>
       <r>    -4.6565     0.0000   120.0000 </r>
       <r>    -4.4497     0.0000   120.0000 </r>
       <r>    -4.2429     0.0000   120.0000 </r>
       <r>    -4.0361     0.0000   120.0000 </r>
       <r>    -3.8293     0.0000   120.0000 </r>
       <r>    -3.6225     0.0000   120.0000 </r>
       <r>    -3.4157     0.0000   120.0000 </r>
       <r>    -3.2089     0.0000   120.0000 </r>
       <r>    -3.0021     0.0000   120.0000 </r>
       <r>    -2.7953     0.0000   120.0000 </r>
       <r>    -2.5885     0.0000   120.0000 </r>
       <r>    -2.3817     0.0000   120.0000 </r>
       <r>    -2.1749     0.0000   120.0000 </r>
       <r>    -1.9681     0.0000   120.0000 </r>
       <r>    -1.7613     0.0000   120.0000 </r>
       <r>    -1.5545     0.0000   120.0000 </r>
       <r>    -1.3477     0.0000   120.0000 </r>
       <r>    -1.1409     0.0000   120.0000 </r>
       <r>    -0.9341     0.0000   120.0000 </r>
       <r>    -0.7272    -0.0000   120.0000 </r>
       <r>    -0.5204    -0.0000   120.0000 </r>
       <r>    -0.3136    -0.0000   120.0000 </r>
       <r>    -0.1068    -0.0000   120.0000 </r>
       <r>     0.1000    -0.0004   119.9999 </r>
       <r>     0.3068    -0.0129   119.9973 </r>
       <r>     0.5136     0.2123   120.0412 </r>
       <r>     0.7204     1.0145   120.2510 </r>
       <r>     0.9272     1.6052   120.5829 </r>
       <r>     1.1340     1.7570   120.9463 </r>
       <r>     1.3408     3.1589   121.5996 </r>
       <r>     1.5476     3.6261   122.3495 </r>
       <r>     1.7544     2.5139   122.8693 </r>
       <r>     1.9612     3.4746   123.5879 </r>
       <r>     2.1680     5.1071   124.6441 </r>
       <r>     2.3748     3.0665   125.2782 </r>
       <r>     2.5816     6.3273   126.5868 </r>
       <r>     2.7884     9.1852   128.4863 </r>
       <r>     2.9952     5.5995   129.6443 </r>
       <r>     3.2020     8.1151   131.3225 </r>
       <r>     3.4088     9.1662   133.2181 </r>
       <r>     3.6156    14.7891   136.2766 </r>
       <r>     3.8224    20.1500   140.4437 </r>
       <r>     4.0293    22.1675   145.0280 </r>
       <r>     4.2361    26.0668   150.4188 </r>
       <r>     4.4429    30.2098   156.6663 </r>
       <r>     4.6497    33.8194   163.6603 </r>
       <r>     4.8565    40.1067   171.9545 </r>
       <r>     5.0633    36.7261   179.5496 </r>
       <r>     5.2701    36.2902   187.0546 </r>
       <r>     5.4769    33.6799   194.0198 </r>
       <r>     5.6837    27.2400   199.6531 </r>
       <r>     5.8905    13.6632   202.4787 </r>
       <r>     6.0973    49.2348   212.6607 </r>
       <r>     6.3041    66.9660   226.5096 </r>
       <r>     6.5109    56.2426   238.1408 </r>
       <r>     6.7177    54.0956   249.3280 </r>
       <r>     6.9245    57.0228   261.1206 </r>
       <r>     7.1313    55.0539   272.5060 </r>
       <r>     7.3381    49.5606   282.7553 </r>
       <r>     7.5449    46.4696   292.3654 </r>
       <r>     7.7517    47.0318   302.0918 </r>
       <r>     7.9585    42.0014   310.7779 </r>
       <r>     8.1653    32.4756   317.4940 </r>
       <r>     8.3721    26.0231   322.8757 </r>
       <r>     8.5789    23.7285   327.7829 </r>
       <r>     8.7858    16.6297   331.2220 </r>
       <r>     8.9926    13.4853   334.0108 </r>
       <r>     9.1994    22.6479   338.6945 </r>
       <r>     9.4062    19.5292   342.7332 </r>
       <r>     9.6130     6.5092   344.0793 </r>
       <r>     9.8198    -0.3749   344.0018 </r>
       <r>    10.0266    -0.0087   344.0000 </r>
       <r>    10.2334    -0.0000   344.0000 </r>
       <r>    10.4402    -0.0000   344.0000 </r>
       <r>    10.6470     0.0000   344.0000 </r>
       <r>    10.8538     0.0000   344.0000 </r>
       <r>    11.0606     0.0000   344.0000 </r>
       <r>    11.2674     0.0000   344.0000 </r>
       <r>    11.4742     0.0000   344.0000 </r>
       <r>    11.6810     0.0000   344.0000 </r>
       <r>    11.8878     0.0000   344.0000 </r>
       <r>    12.0946     0.0000   344.0000 </r>
       <r>    12.3014     0.0000   344.0000 </r>
      </set>
     </set>
    </array>
   </total>
  </dos>
 </calculation>
 <structure name="finalpos" >
  <crystal>
   <varray name="basis" >
    <v>       6.88902190       0.00497040      -0.00342411 </v>
    <v>       0.00772027      10.24435102       0.01196678 </v>
    <v>      -0.00481747       0.01159124      10.22414855 </v>
   </varray>
   <i name="volume">    721.55302915 </i>
   <varray name="rec_basis" >
    <v>       0.14515860      -0.00010947       0.00006852 </v>
    <v>      -0.00007048       0.09761496      -0.00011070 </v>
    <v>       0.00004870      -0.00011429       0.09780781 </v>
   </varray>
  </crystal>
  <varray name="positions" >
   <v>       0.25351023       0.16529722       0.50641519 </v>
   <v>       0.24702022       0.18293485       0.17867515 </v>
   <v>       0.01629909       0.32696333       0.33975064 </v>
   <v>       0.00732139       0.33823190       0.66600855 </v>
   <v>       0.23424352       0.48513255       0.83363643 </v>
   <v>       0.25457564       0.86004656       0.51698224 </v>
   <v>       0.48294937       0.32438778       0.33541613 </v>
   <v>       0.76535009       0.49384841       0.81621720 </v>
   <v>       0.74867871       0.84843889       0.51662608 </v>
   <v>       0.24416415       0.84460766       0.83513451 </v>
   <v>       0.23694502       0.81658197       0.14266752 </v>
   <v>       0.49256989       0.34199517       0.67177997 </v>
   <v>       0.25284354       0.16450900       0.82290882 </v>
   <v>       0.24647274       0.49911502       0.16576686 </v>
   <v>       0.01567660       0.67925701       0.34514570 </v>
   <v>       0.50441542       0.00343469       0.01103526 </v>
   <v>       0.74724989       0.16777078       0.50556187 </v>
   <v>       0.51041439       0.32624015       0.99722506 </v>
   <v>       0.74445746       0.48993379       0.49898150 </v>
   <v>       0.48829247       0.68468896       0.34154223 </v>
   <v>       0.48821614       0.66221693       0.66496586 </v>
   <v>       0.00248933       0.00053405       0.66765264 </v>
   <v>       0.25908554       0.48463834       0.49450566 </v>
   <v>       0.00295904       0.66456725       0.98944566 </v>
   <v>       0.75057299       0.18091118       0.19338591 </v>
   <v>       0.50005087       0.99889558       0.66871457 </v>
   <v>       0.74406210       0.16699685       0.81355528 </v>
   <v>       0.76344588       0.80942784       0.15602757 </v>
   <v>       0.98900286       0.00567829       0.00862977 </v>
   <v>       0.00185365       0.99649559       0.32841622 </v>
   <v>       0.98406179       0.32348819       0.99967548 </v>
   <v>       0.01552418       0.66439356       0.65787344 </v>
   <v>       0.49905916       0.99636680       0.32521318 </v>
   <v>       0.75219387       0.50524840       0.17428398 </v>
   <v>       0.49732305       0.66263049       0.98469325 </v>
   <v>       0.75663973       0.83409996       0.82547960 </v>
  </varray>
 </structure>
</modeling>
