       N       E                     dE             d eps       ncg     rms          rms(c)
DAV:   1     0.162496756681E+04    0.16250E+04   -0.10138E+05  5080   0.103E+03
DAV:   2    -0.971613830102E+02   -0.17221E+04   -0.16534E+04  5136   0.354E+02
DAV:   3    -0.339477475395E+03   -0.24232E+03   -0.22928E+03  8016   0.103E+02
DAV:   4    -0.369942804636E+03   -0.30465E+02   -0.29024E+02  8008   0.305E+01
DAV:   5    -0.373078295150E+03   -0.31355E+01   -0.30557E+01  7496   0.994E+00    0.668E+01
RMM:   6    -0.363082330951E+03    0.99960E+01   -0.23940E+01  6705   0.921E+00    0.320E+01
RMM:   7    -0.364668571059E+03   -0.15862E+01   -0.28688E+01  7193   0.897E+00    0.115E+01
RMM:   8    -0.358761412727E+03    0.59072E+01   -0.70715E+00  7087   0.387E+00    0.410E+00
RMM:   9    -0.358445739925E+03    0.31567E+00   -0.26766E+00  7231   0.210E+00    0.256E+00
RMM:  10    -0.358436597891E+03    0.91420E-02   -0.48839E-01  7340   0.104E+00    0.154E+00
RMM:  11    -0.358410424250E+03    0.26174E-01   -0.15097E-01  7177   0.556E-01    0.857E-01
RMM:  12    -0.358405473659E+03    0.49506E-02   -0.62428E-02  7298   0.407E-01    0.419E-01
RMM:  13    -0.358403929943E+03    0.15437E-02   -0.19448E-02  7264   0.190E-01    0.235E-01
RMM:  14    -0.358404057997E+03   -0.12805E-03   -0.88828E-03  7459   0.111E-01    0.125E-01
RMM:  15    -0.358404324995E+03   -0.26700E-03   -0.41301E-03  7393   0.640E-02    0.655E-02
RMM:  16    -0.358404400205E+03   -0.75210E-04   -0.15829E-03  6481   0.396E-02    0.384E-02
RMM:  17    -0.358404416654E+03   -0.16449E-04   -0.69299E-04  5906   0.272E-02    0.151E-02
RMM:  18    -0.358404437847E+03   -0.21193E-04   -0.32129E-04  5412   0.192E-02    0.865E-03
RMM:  19    -0.358404444975E+03   -0.71279E-05   -0.12526E-04  4216   0.134E-02    0.411E-03
RMM:  20    -0.358404448810E+03   -0.38347E-05   -0.70057E-05  4116   0.114E-02
   1 F= -.35840445E+03 E0= -.35840779E+03  d E =-.358404E+03
       N       E                     dE             d eps       ncg     rms          rms(c)
DAV:   1    -0.358474775569E+03   -0.70331E-01   -0.27632E+00  5424   0.532E+00    0.197E+00
RMM:   2    -0.358457905675E+03    0.16870E-01   -0.25246E-01  6622   0.133E+00    0.619E-01
RMM:   3    -0.358453448601E+03    0.44571E-02   -0.52330E-02  7230   0.449E-01    0.476E-01
RMM:   4    -0.358446026082E+03    0.74225E-02   -0.14063E-02  7354   0.235E-01    0.243E-01
RMM:   5    -0.358445528273E+03    0.49781E-03   -0.44299E-03  7339   0.126E-01    0.190E-01
RMM:   6    -0.358445539909E+03   -0.11636E-04   -0.16274E-03  7582   0.713E-02    0.994E-02
RMM:   7    -0.358445580411E+03   -0.40501E-04   -0.73119E-04  7168   0.495E-02    0.499E-02
RMM:   8    -0.358445607987E+03   -0.27577E-04   -0.35081E-04  6434   0.287E-02    0.405E-02
RMM:   9    -0.358445623323E+03   -0.15336E-04   -0.12436E-04  5173   0.223E-02    0.318E-02
RMM:  10    -0.358445633597E+03   -0.10274E-04   -0.76835E-05  4766   0.160E-02    0.136E-02
RMM:  11    -0.358445629157E+03    0.44406E-05   -0.44398E-05  4214   0.145E-02
   2 F= -.35844563E+03 E0= -.35844922E+03  d E =-.411803E-01
       N       E                     dE             d eps       ncg     rms          rms(c)
DAV:   1    -0.358601119465E+03   -0.15549E+00   -0.11811E+01  5104   0.110E+01    0.398E+00
RMM:   2    -0.358528704576E+03    0.72415E-01   -0.10540E+00  6587   0.274E+00    0.127E+00
RMM:   3    -0.358509199567E+03    0.19505E-01   -0.22017E-01  7235   0.916E-01    0.979E-01
RMM:   4    -0.358477821436E+03    0.31378E-01   -0.58881E-02  7364   0.483E-01    0.502E-01
RMM:   5    -0.358475581829E+03    0.22396E-02   -0.19175E-02  7372   0.259E-01    0.389E-01
RMM:   6    -0.358475720025E+03   -0.13820E-03   -0.66550E-03  7701   0.144E-01    0.205E-01
RMM:   7    -0.358475984516E+03   -0.26449E-03   -0.32974E-03  7947   0.102E-01    0.102E-01
RMM:   8    -0.358476140148E+03   -0.15563E-03   -0.15495E-03  7803   0.558E-02    0.844E-02
RMM:   9    -0.358476215780E+03   -0.75632E-04   -0.46751E-04  6579   0.383E-02    0.697E-02
RMM:  10    -0.358476300346E+03   -0.84566E-04   -0.25912E-04  6291   0.266E-02    0.329E-02
RMM:  11    -0.358476308138E+03   -0.77916E-05   -0.18515E-04  5886   0.230E-02    0.976E-03
RMM:  12    -0.358476312769E+03   -0.46307E-05   -0.10115E-04  5223   0.178E-02    0.947E-03
RMM:  13    -0.358476312556E+03    0.21251E-06   -0.20500E-05  3654   0.128E-02
   3 F= -.35847631E+03 E0= -.35848043E+03  d E =-.718637E-01
       N       E                     dE             d eps       ncg     rms          rms(c)
DAV:   1    -0.358507729488E+03   -0.31417E-01   -0.31990E+00  4832   0.500E+00    0.834E-01
RMM:   2    -0.358516980735E+03   -0.92512E-02   -0.15739E-01  7032   0.101E+00    0.419E-01
RMM:   3    -0.358510053273E+03    0.69275E-02   -0.21004E-02  7103   0.272E-01    0.284E-01
RMM:   4    -0.358508988599E+03    0.10647E-02   -0.46529E-03  7352   0.124E-01    0.169E-01
RMM:   5    -0.358508793079E+03    0.19552E-03   -0.17749E-03  7332   0.767E-02    0.107E-01
RMM:   6    -0.358508799874E+03   -0.67948E-05   -0.72209E-04  7418   0.457E-02    0.654E-02
RMM:   7    -0.358508820894E+03   -0.21020E-04   -0.30044E-04  6362   0.258E-02    0.418E-02
RMM:   8    -0.358508833005E+03   -0.12111E-04   -0.13486E-04  5660   0.187E-02    0.201E-02
RMM:   9    -0.358508842532E+03   -0.95268E-05   -0.58011E-05  4512   0.140E-02
   4 F= -.35850884E+03 E0= -.35851295E+03  d E =-.325300E-01
       N       E                     dE             d eps       ncg     rms          rms(c)
DAV:   1    -0.358546347554E+03   -0.37515E-01   -0.28779E+01  4704   0.150E+01    0.254E+00
RMM:   2    -0.358636512230E+03   -0.90165E-01   -0.14561E+00  7067   0.307E+00    0.128E+00
RMM:   3    -0.358564268152E+03    0.72244E-01   -0.18507E-01  7124   0.804E-01    0.814E-01
RMM:   4    -0.358555950409E+03    0.83177E-02   -0.44980E-02  7376   0.373E-01    0.483E-01
RMM:   5    -0.358554127379E+03    0.18230E-02   -0.15242E-02  7328   0.223E-01    0.314E-01
RMM:   6    -0.358554286124E+03   -0.15875E-03   -0.63164E-03  7496   0.133E-01    0.190E-01
RMM:   7    -0.358554466071E+03   -0.17995E-03   -0.27516E-03  7986   0.778E-02    0.120E-01
RMM:   8    -0.358554537513E+03   -0.71442E-04   -0.12013E-03  7532   0.477E-02    0.623E-02
RMM:   9    -0.358554587325E+03   -0.49812E-04   -0.47506E-04  6711   0.339E-02    0.363E-02
RMM:  10    -0.358554615388E+03   -0.28063E-04   -0.19927E-04  5829   0.221E-02    0.215E-02
RMM:  11    -0.358554627363E+03   -0.11975E-04   -0.95568E-05  5123   0.164E-02    0.108E-02
RMM:  12    -0.358554630703E+03   -0.33398E-05   -0.29437E-05  3958   0.124E-02
   5 F= -.35855463E+03 E0= -.35855870E+03  d E =-.783181E-01
       N       E                     dE             d eps       ncg     rms          rms(c)
DAV:   1    -0.358554778800E+03   -0.15144E-03   -0.16008E-01  5008   0.112E+00    0.188E-01
RMM:   2    -0.358555257669E+03   -0.47887E-03   -0.79340E-03  7025   0.227E-01    0.945E-02
RMM:   3    -0.358554915057E+03    0.34261E-03   -0.11016E-03  7059   0.614E-02    0.624E-02
RMM:   4    -0.358554866804E+03    0.48254E-04   -0.24668E-04  6712   0.284E-02    0.368E-02
RMM:   5    -0.358554861539E+03    0.52648E-05   -0.97188E-05  6138   0.177E-02
   6 F= -.35855486E+03 E0= -.35855893E+03  d E =-.785490E-01
       N       E                     dE             d eps       ncg     rms          rms(c)
DAV:   1    -0.358561134677E+03   -0.62679E-02   -0.48644E-01  4912   0.207E+00    0.378E-01
RMM:   2    -0.358562116869E+03   -0.98219E-03   -0.23809E-02  7144   0.405E-01    0.182E-01
RMM:   3    -0.358561034117E+03    0.10828E-02   -0.35394E-03  7169   0.111E-01    0.115E-01
RMM:   4    -0.358560787230E+03    0.24689E-03   -0.90891E-04  7161   0.575E-02    0.628E-02
RMM:   5    -0.358560764301E+03    0.22929E-04   -0.36113E-04  7437   0.348E-02    0.440E-02
RMM:   6    -0.358560771987E+03   -0.76862E-05   -0.12606E-04  5687   0.193E-02    0.279E-02
RMM:   7    -0.358560783397E+03   -0.11409E-04   -0.64513E-05  4352   0.146E-02    0.152E-02
RMM:   8    -0.358560790074E+03   -0.66773E-05   -0.37454E-05  4111   0.137E-02
   7 F= -.35856079E+03 E0= -.35856488E+03  d E =-.592854E-02
       N       E                     dE             d eps       ncg     rms          rms(c)
DAV:   1    -0.358573536786E+03   -0.12753E-01   -0.43829E+00  4704   0.622E+00    0.116E+00
RMM:   2    -0.358582282181E+03   -0.87454E-02   -0.21705E-01  7151   0.122E+00    0.550E-01
RMM:   3    -0.358572703236E+03    0.95789E-02   -0.32687E-02  7175   0.331E-01    0.347E-01
RMM:   4    -0.358570344485E+03    0.23588E-02   -0.84706E-03  7198   0.175E-01    0.185E-01
RMM:   5    -0.358570095762E+03    0.24872E-03   -0.32708E-03  7457   0.105E-01    0.128E-01
RMM:   6    -0.358570124431E+03   -0.28669E-04   -0.12358E-03  7873   0.570E-02    0.797E-02
RMM:   7    -0.358570182783E+03   -0.58352E-04   -0.55991E-04  6826   0.357E-02    0.437E-02
RMM:   8    -0.358570216482E+03   -0.33699E-04   -0.26776E-04  6063   0.275E-02    0.271E-02
RMM:   9    -0.358570238762E+03   -0.22280E-04   -0.13554E-04  5568   0.200E-02    0.188E-02
RMM:  10    -0.358570253631E+03   -0.14869E-04   -0.48326E-05  4681   0.143E-02    0.885E-03
RMM:  11    -0.358570260566E+03   -0.69345E-05   -0.19781E-05  3620   0.122E-02
   8 F= -.35857026E+03 E0= -.35857441E+03  d E =-.153990E-01
       N       E                     dE             d eps       ncg     rms          rms(c)
DAV:   1    -0.358577715869E+03   -0.74622E-02   -0.50449E-01  5056   0.219E+00    0.607E-01
RMM:   2    -0.358576138844E+03    0.15770E-02   -0.30099E-02  6838   0.463E-01    0.203E-01
RMM:   3    -0.358575655579E+03    0.48326E-03   -0.57876E-03  7219   0.152E-01    0.146E-01
RMM:   4    -0.358575076156E+03    0.57942E-03   -0.16599E-03  7363   0.769E-02    0.832E-02
RMM:   5    -0.358575018360E+03    0.57796E-04   -0.58748E-04  7365   0.417E-02    0.644E-02
RMM:   6    -0.358575004012E+03    0.14348E-04   -0.19753E-04  6630   0.257E-02    0.336E-02
RMM:   7    -0.358574997859E+03    0.61534E-05   -0.93861E-05  5280   0.182E-02
   9 F= -.35857500E+03 E0= -.35857926E+03  d E =-.473729E-02
       N       E                     dE             d eps       ncg     rms          rms(c)
DAV:   1    -0.358595024415E+03   -0.20020E-01   -0.30541E+00  4928   0.538E+00    0.147E+00
RMM:   2    -0.358585355359E+03    0.96691E-02   -0.17888E-01  6767   0.113E+00    0.489E-01
RMM:   3    -0.358582401400E+03    0.29540E-02   -0.33728E-02  7219   0.373E-01    0.352E-01
RMM:   4    -0.358579016738E+03    0.33847E-02   -0.95923E-03  7375   0.186E-01    0.200E-01
RMM:   5    -0.358578727803E+03    0.28893E-03   -0.33902E-03  7438   0.982E-02    0.157E-01
RMM:   6    -0.358578726630E+03    0.11727E-05   -0.11357E-03  7715   0.614E-02    0.836E-02
RMM:   7    -0.358578756098E+03   -0.29467E-04   -0.64396E-04  6923   0.418E-02    0.400E-02
RMM:   8    -0.358578771654E+03   -0.15557E-04   -0.28762E-04  6043   0.277E-02    0.316E-02
RMM:   9    -0.358578780514E+03   -0.88600E-05   -0.11105E-04  5250   0.191E-02    0.264E-02
RMM:  10    -0.358578785183E+03   -0.46684E-05   -0.56141E-05  4686   0.147E-02
  10 F= -.35857879E+03 E0= -.35858333E+03  d E =-.852462E-02
       N       E                     dE             d eps       ncg     rms          rms(c)
DAV:   1    -0.358580247381E+03   -0.14669E-02   -0.82250E-01  4736   0.259E+00    0.178E-01
RMM:   2    -0.358582340187E+03   -0.20928E-02   -0.24384E-02  7025   0.440E-01    0.119E-01
RMM:   3    -0.358581861160E+03    0.47903E-03   -0.28469E-03  7109   0.122E-01    0.752E-02
RMM:   4    -0.358581830640E+03    0.30519E-04   -0.76028E-04  8105   0.410E-02    0.465E-02
RMM:   5    -0.358581820860E+03    0.97798E-05   -0.29486E-04  6804   0.276E-02    0.236E-02
RMM:   6    -0.358581820537E+03    0.32379E-06   -0.10645E-04  5018   0.173E-02    0.104E-02
RMM:   7    -0.358581821472E+03   -0.93545E-06   -0.43757E-05  3835   0.129E-02
  11 F= -.35858182E+03 E0= -.35858640E+03  d E =-.303629E-02
       N       E                     dE             d eps       ncg     rms          rms(c)
DAV:   1    -0.358580537172E+03    0.12834E-02   -0.26770E+00  4704   0.467E+00    0.321E-01
RMM:   2    -0.358587341266E+03   -0.68041E-02   -0.79497E-02  7020   0.796E-01    0.213E-01
RMM:   3    -0.358585839960E+03    0.15013E-02   -0.92309E-03  7118   0.219E-01    0.136E-01
RMM:   4    -0.358585740070E+03    0.99890E-04   -0.24236E-03  8141   0.734E-02    0.854E-02
RMM:   5    -0.358585711815E+03    0.28255E-04   -0.95751E-04  7673   0.496E-02    0.433E-02
RMM:   6    -0.358585712221E+03   -0.40522E-06   -0.35312E-04  6974   0.292E-02    0.185E-02
RMM:   7    -0.358585715210E+03   -0.29899E-05   -0.11528E-04  5092   0.167E-02    0.120E-02
RMM:   8    -0.358585719991E+03   -0.47809E-05   -0.70322E-05  4415   0.141E-02
  12 F= -.35858572E+03 E0= -.35859039E+03  d E =-.693481E-02
       N       E                     dE             d eps       ncg     rms          rms(c)
DAV:   1    -0.358566333775E+03    0.19381E-01   -0.10706E+01  4704   0.934E+00    0.650E-01
RMM:   2    -0.358593650217E+03   -0.27316E-01   -0.31912E-01  7004   0.160E+00    0.428E-01
RMM:   3    -0.358587679701E+03    0.59705E-02   -0.36799E-02  7165   0.439E-01    0.275E-01
RMM:   4    -0.358587260054E+03    0.41965E-03   -0.95118E-03  8186   0.145E-01    0.175E-01
RMM:   5    -0.358587138433E+03    0.12162E-03   -0.36753E-03  7969   0.992E-02    0.896E-02
RMM:   6    -0.358587126589E+03    0.11845E-04   -0.13899E-03  8062   0.592E-02    0.361E-02
RMM:   7    -0.358587152962E+03   -0.26373E-04   -0.54797E-04  7154   0.309E-02    0.237E-02
RMM:   8    -0.358587172598E+03   -0.19636E-04   -0.26793E-04  6214   0.221E-02    0.158E-02
RMM:   9    -0.358587175080E+03   -0.24825E-05   -0.80140E-05  5031   0.159E-02
  13 F= -.35858718E+03 E0= -.35859201E+03  d E =-.838990E-02
       N       E                     dE             d eps       ncg     rms          rms(c)
DAV:   1    -0.358612066209E+03   -0.24894E-01   -0.19985E+00  4992   0.443E+00    0.143E+00
RMM:   2    -0.358603174824E+03    0.88914E-02   -0.15251E-01  7025   0.101E+00    0.500E-01
RMM:   3    -0.358597610348E+03    0.55645E-02   -0.33409E-02  7267   0.329E-01    0.381E-01
RMM:   4    -0.358593548383E+03    0.40620E-02   -0.91471E-03  7340   0.194E-01    0.199E-01
RMM:   5    -0.358593274406E+03    0.27398E-03   -0.27110E-03  7290   0.105E-01    0.152E-01
RMM:   6    -0.358593377321E+03   -0.10292E-03   -0.11235E-03  7570   0.556E-02    0.837E-02
RMM:   7    -0.358593455341E+03   -0.78020E-04   -0.48270E-04  6551   0.400E-02    0.399E-02
RMM:   8    -0.358593503492E+03   -0.48151E-04   -0.25295E-04  5766   0.255E-02    0.298E-02
RMM:   9    -0.358593524797E+03   -0.21305E-04   -0.86266E-05  4864   0.185E-02    0.230E-02
RMM:  10    -0.358593549355E+03   -0.24559E-04   -0.41445E-05  4279   0.137E-02    0.847E-03
RMM:  11    -0.358593558599E+03   -0.92437E-05   -0.24623E-05  3809   0.122E-02
  14 F= -.35859356E+03 E0= -.35859824E+03  d E =-.638352E-02
       N       E                     dE             d eps       ncg     rms          rms(c)
DAV:   1    -0.358594158396E+03   -0.60904E-03   -0.52389E-02  5200   0.717E-01    0.230E-01
RMM:   2    -0.358593915271E+03    0.24312E-03   -0.38836E-03  6955   0.163E-01    0.793E-02
RMM:   3    -0.358593775971E+03    0.13930E-03   -0.84794E-04  7156   0.535E-02    0.593E-02
RMM:   4    -0.358593677782E+03    0.98189E-04   -0.23921E-04  6964   0.310E-02    0.304E-02
RMM:   5    -0.358593675113E+03    0.26691E-05   -0.65068E-05  4993   0.185E-02
  15 F= -.35859368E+03 E0= -.35859833E+03  d E =-.650003E-02
       N       E                     dE             d eps       ncg     rms          rms(c)
DAV:   1    -0.358599925935E+03   -0.62482E-02   -0.17391E+00  4816   0.378E+00    0.616E-01
RMM:   2    -0.358602510972E+03   -0.25850E-02   -0.65074E-02  7133   0.707E-01    0.274E-01
RMM:   3    -0.358601524544E+03    0.98643E-03   -0.10014E-02  7194   0.193E-01    0.194E-01
RMM:   4    -0.358600776441E+03    0.74810E-03   -0.26142E-03  7361   0.963E-02    0.101E-01
RMM:   5    -0.358600709620E+03    0.66821E-04   -0.10559E-03  7441   0.571E-02    0.631E-02
RMM:   6    -0.358600684914E+03    0.24706E-04   -0.35724E-04  7248   0.308E-02    0.394E-02
RMM:   7    -0.358600683172E+03    0.17414E-05   -0.11900E-04  5292   0.185E-02    0.217E-02
RMM:   8    -0.358600682984E+03    0.18840E-06   -0.80759E-05  4707   0.167E-02
  16 F= -.35860068E+03 E0= -.35860539E+03  d E =-.700787E-02
       N       E                     dE             d eps       ncg     rms          rms(c)
DAV:   1    -0.358602314086E+03   -0.16309E-02   -0.13500E+00  4816   0.333E+00    0.531E-01
RMM:   2    -0.358604336550E+03   -0.20225E-02   -0.50078E-02  7129   0.621E-01    0.235E-01
RMM:   3    -0.358603565662E+03    0.77089E-03   -0.75734E-03  7186   0.168E-01    0.165E-01
RMM:   4    -0.358603027356E+03    0.53831E-03   -0.20212E-03  7374   0.836E-02    0.869E-02
RMM:   5    -0.358602988598E+03    0.38758E-04   -0.82970E-04  7526   0.501E-02    0.561E-02
RMM:   6    -0.358602974464E+03    0.14134E-04   -0.29613E-04  6881   0.275E-02    0.362E-02
RMM:   7    -0.358602974009E+03    0.45505E-06   -0.10356E-04  5135   0.179E-02    0.196E-02
RMM:   8    -0.358602973846E+03    0.16223E-06   -0.70548E-05  4639   0.160E-02
  17 F= -.35860297E+03 E0= -.35860770E+03  d E =-.929873E-02
       N       E                     dE             d eps       ncg     rms          rms(c)
DAV:   1    -0.358602983642E+03   -0.96338E-05   -0.32092E-02  4960   0.513E-01    0.808E-02
RMM:   2    -0.358603040975E+03   -0.57333E-04   -0.12229E-03  7062   0.959E-02    0.354E-02
RMM:   3    -0.358603024434E+03    0.16542E-04   -0.20230E-04  6483   0.264E-02    0.246E-02
RMM:   4    -0.358603013143E+03    0.11291E-04   -0.58198E-05  4724   0.145E-02    0.133E-02
RMM:   5    -0.358603011250E+03    0.18933E-05   -0.19954E-05  2963   0.100E-02
  18 F= -.35860301E+03 E0= -.35860774E+03  d E =-.933614E-02
       N       E                     dE             d eps       ncg     rms          rms(c)
DAV:   1    -0.358605132229E+03   -0.21191E-02   -0.58830E-01  4832   0.218E+00    0.360E-01
RMM:   2    -0.358605571464E+03   -0.43924E-03   -0.21550E-02  7066   0.402E-01    0.139E-01
RMM:   3    -0.358605299602E+03    0.27186E-03   -0.25919E-03  7168   0.105E-01    0.827E-02
RMM:   4    -0.358605230627E+03    0.68975E-04   -0.89287E-04  7483   0.486E-02    0.541E-02
RMM:   5    -0.358605210324E+03    0.20303E-04   -0.27791E-04  7084   0.278E-02    0.383E-02
RMM:   6    -0.358605214789E+03   -0.44652E-05   -0.11261E-04  6468   0.173E-02    0.226E-02
RMM:   7    -0.358605223336E+03   -0.85463E-05   -0.37869E-05  3734   0.131E-02
  19 F= -.35860522E+03 E0= -.35861000E+03  d E =-.221209E-02
       N       E                     dE             d eps       ncg     rms          rms(c)
DAV:   1    -0.358606444941E+03   -0.12302E-02   -0.29121E+00  4816   0.484E+00    0.796E-01
RMM:   2    -0.358608660647E+03   -0.22157E-02   -0.10642E-01  7034   0.892E-01    0.301E-01
RMM:   3    -0.358607282803E+03    0.13778E-02   -0.12563E-02  7146   0.234E-01    0.180E-01
RMM:   4    -0.358606974033E+03    0.30877E-03   -0.43651E-03  7493   0.108E-01    0.119E-01
RMM:   5    -0.358606883519E+03    0.90514E-04   -0.13538E-03  7795   0.615E-02    0.854E-02
RMM:   6    -0.358606897896E+03   -0.14377E-04   -0.56509E-04  7506   0.379E-02    0.513E-02
RMM:   7    -0.358606933012E+03   -0.35116E-04   -0.23009E-04  6428   0.264E-02    0.238E-02
RMM:   8    -0.358606951060E+03   -0.18048E-04   -0.10515E-04  5203   0.182E-02    0.151E-02
RMM:   9    -0.358606962152E+03   -0.11092E-04   -0.55030E-05  4478   0.145E-02    0.107E-02
RMM:  10    -0.358606967941E+03   -0.57885E-05   -0.18987E-05  3384   0.116E-02
  20 F= -.35860697E+03 E0= -.35861185E+03  d E =-.395669E-02
       N       E                     dE             d eps       ncg     rms          rms(c)
DAV:   1    -0.358607884112E+03   -0.92196E-03   -0.16564E-01  4960   0.116E+00    0.163E-01
RMM:   2    -0.358608238148E+03   -0.35404E-03   -0.60466E-03  7109   0.212E-01    0.803E-02
RMM:   3    -0.358608084712E+03    0.15344E-03   -0.92684E-04  7135   0.560E-02    0.569E-02
RMM:   4    -0.358608034778E+03    0.49934E-04   -0.21653E-04  7071   0.279E-02    0.326E-02
RMM:   5    -0.358608027322E+03    0.74566E-05   -0.90422E-05  6243   0.175E-02
  21 F= -.35860803E+03 E0= -.35861298E+03  d E =-.105938E-02
       N       E                     dE             d eps       ncg     rms          rms(c)
DAV:   1    -0.358608623369E+03   -0.58859E-03   -0.14878E+00  4816   0.346E+00    0.478E-01
RMM:   2    -0.358611739492E+03   -0.31161E-02   -0.52834E-02  7071   0.632E-01    0.237E-01
RMM:   3    -0.358610325459E+03    0.14140E-02   -0.76395E-03  7155   0.166E-01    0.166E-01
RMM:   4    -0.358609913969E+03    0.41149E-03   -0.17340E-03  7359   0.800E-02    0.952E-02
RMM:   5    -0.358609872543E+03    0.41426E-04   -0.76872E-04  7406   0.496E-02    0.588E-02
RMM:   6    -0.358609846599E+03    0.25944E-04   -0.29135E-04  6937   0.277E-02    0.369E-02
RMM:   7    -0.358609845449E+03    0.11502E-05   -0.96755E-05  5156   0.166E-02
  22 F= -.35860985E+03 E0= -.35861499E+03  d E =-.287751E-02
       N       E                     dE             d eps       ncg     rms          rms(c)
DAV:   1    -0.358609721519E+03    0.12508E-03   -0.36465E-01  4848   0.171E+00    0.236E-01
RMM:   2    -0.358610491246E+03   -0.76973E-03   -0.13003E-02  7067   0.312E-01    0.117E-01
RMM:   3    -0.358610143226E+03    0.34802E-03   -0.19197E-03  7135   0.824E-02    0.807E-02
RMM:   4    -0.358610049893E+03    0.93333E-04   -0.45870E-04  7299   0.400E-02    0.464E-02
RMM:   5    -0.358610041362E+03    0.85308E-05   -0.20015E-04  6873   0.250E-02    0.292E-02
RMM:   6    -0.358610034341E+03    0.70211E-05   -0.77081E-05  4958   0.142E-02
  23 F= -.35861003E+03 E0= -.35861528E+03  d E =-.306640E-02
       N       E                     dE             d eps       ncg     rms          rms(c)
DAV:   1    -0.358610691036E+03   -0.64967E-03   -0.61632E-02  4944   0.705E-01    0.694E-02
RMM:   2    -0.358610800812E+03   -0.10978E-03   -0.19418E-03  7124   0.126E-01    0.366E-02
RMM:   3    -0.358610782692E+03    0.18120E-04   -0.26034E-04  6354   0.344E-02    0.256E-02
RMM:   4    -0.358610779238E+03    0.34541E-05   -0.10374E-04  5237   0.166E-02    0.151E-02
RMM:   5    -0.358610776680E+03    0.25576E-05   -0.33744E-05  3497   0.104E-02
  24 F= -.35861078E+03 E0= -.35861604E+03  d E =-.742339E-03
       N       E                     dE             d eps       ncg     rms          rms(c)
DAV:   1    -0.358611631448E+03   -0.85221E-03   -0.55363E-01  4736   0.211E+00    0.195E-01
RMM:   2    -0.358612646594E+03   -0.10151E-02   -0.17054E-02  7121   0.372E-01    0.104E-01
RMM:   3    -0.358612484908E+03    0.16169E-03   -0.22644E-03  7063   0.973E-02    0.727E-02
RMM:   4    -0.358612439663E+03    0.45245E-04   -0.68357E-04  7924   0.417E-02    0.428E-02
RMM:   5    -0.358612425773E+03    0.13890E-04   -0.25547E-04  6211   0.251E-02    0.214E-02
RMM:   6    -0.358612428911E+03   -0.31379E-05   -0.10632E-04  5032   0.170E-02    0.108E-02
RMM:   7    -0.358612431228E+03   -0.23176E-05   -0.32774E-05  3844   0.124E-02
  25 F= -.35861243E+03 E0= -.35861776E+03  d E =-.239689E-02
       N       E                     dE             d eps       ncg     rms          rms(c)
DAV:   1    -0.358609955549E+03    0.24734E-02   -0.22154E+00  4704   0.423E+00    0.391E-01
RMM:   2    -0.358613956823E+03   -0.40013E-02   -0.67917E-02  7117   0.742E-01    0.206E-01
RMM:   3    -0.358613280558E+03    0.67627E-03   -0.88766E-03  7093   0.194E-01    0.144E-01
RMM:   4    -0.358613087769E+03    0.19279E-03   -0.26197E-03  8013   0.825E-02    0.842E-02
RMM:   5    -0.358613038149E+03    0.49620E-04   -0.10822E-03  7454   0.494E-02    0.422E-02
RMM:   6    -0.358613042375E+03   -0.42263E-05   -0.37435E-04  6751   0.304E-02    0.221E-02
RMM:   7    -0.358613054938E+03   -0.12562E-04   -0.15731E-04  5724   0.179E-02    0.132E-02
RMM:   8    -0.358613058641E+03   -0.37036E-05   -0.42956E-05  4272   0.137E-02
  26 F= -.35861306E+03 E0= -.35861852E+03  d E =-.302430E-02
       N       E                     dE             d eps       ncg     rms          rms(c)
DAV:   1    -0.358612918464E+03    0.13647E-03   -0.27348E-01  4736   0.149E+00    0.138E-01
RMM:   2    -0.358613393654E+03   -0.47519E-03   -0.81561E-03  7050   0.260E-01    0.727E-02
RMM:   3    -0.358613297859E+03    0.95795E-04   -0.95708E-04  7065   0.667E-02    0.509E-02
RMM:   4    -0.358613267849E+03    0.30010E-04   -0.26815E-04  6984   0.275E-02    0.298E-02
RMM:   5    -0.358613257008E+03    0.10842E-04   -0.10089E-04  5674   0.162E-02    0.146E-02
RMM:   6    -0.358613254759E+03    0.22490E-05   -0.32371E-05  3816   0.106E-02
  27 F= -.35861325E+03 E0= -.35861867E+03  d E =-.322042E-02
       N       E                     dE             d eps       ncg     rms          rms(c)
DAV:   1    -0.358613766841E+03   -0.50983E-03   -0.11519E-01  4816   0.983E-01    0.152E-01
RMM:   2    -0.358613899688E+03   -0.13285E-03   -0.44347E-03  7136   0.186E-01    0.629E-02
RMM:   3    -0.358613854970E+03    0.44718E-04   -0.53521E-04  7080   0.483E-02    0.411E-02
RMM:   4    -0.358613818175E+03    0.36795E-04   -0.14088E-04  6425   0.200E-02    0.262E-02
RMM:   5    -0.358613810978E+03    0.71974E-05   -0.55493E-05  4967   0.137E-02
  28 F= -.35861381E+03 E0= -.35861925E+03  d E =-.556219E-03
       N       E                     dE             d eps       ncg     rms          rms(c)
DAV:   1    -0.358614070402E+03   -0.25223E-03   -0.63555E-01  4704   0.231E+00    0.357E-01
RMM:   2    -0.358614786965E+03   -0.71656E-03   -0.24745E-02  7148   0.438E-01    0.150E-01
RMM:   3    -0.358614558006E+03    0.22896E-03   -0.31225E-03  7125   0.115E-01    0.979E-02
RMM:   4    -0.358614374868E+03    0.18314E-03   -0.87285E-04  7310   0.477E-02    0.640E-02
RMM:   5    -0.358614346493E+03    0.28374E-04   -0.37408E-04  7388   0.344E-02    0.418E-02
RMM:   6    -0.358614334626E+03    0.11867E-04   -0.13653E-04  6042   0.191E-02    0.260E-02
RMM:   7    -0.358614331712E+03    0.29135E-05   -0.58059E-05  4556   0.139E-02
  29 F= -.35861433E+03 E0= -.35861982E+03  d E =-.107695E-02
       N       E                     dE             d eps       ncg     rms          rms(c)
DAV:   1    -0.358614758690E+03   -0.42406E-03   -0.58905E-02  5024   0.719E-01    0.150E-01
RMM:   2    -0.358614872996E+03   -0.11431E-03   -0.32656E-03  7148   0.149E-01    0.704E-02
RMM:   3    -0.358614717361E+03    0.15564E-03   -0.57561E-04  7152   0.432E-02    0.469E-02
RMM:   4    -0.358614677804E+03    0.39557E-04   -0.14415E-04  6765   0.230E-02    0.249E-02
RMM:   5    -0.358614673488E+03    0.43165E-05   -0.46401E-05  4210   0.141E-02
  30 F= -.35861467E+03 E0= -.35862015E+03  d E =-.341775E-03
       N       E                     dE             d eps       ncg     rms          rms(c)
DAV:   1    -0.358615721073E+03   -0.10433E-02   -0.52769E-01  4704   0.215E+00    0.431E-01
RMM:   2    -0.358616801942E+03   -0.10809E-02   -0.28008E-02  7112   0.436E-01    0.202E-01
RMM:   3    -0.358615308272E+03    0.14937E-02   -0.43531E-03  7151   0.121E-01    0.128E-01
RMM:   4    -0.358615002850E+03    0.30542E-03   -0.10287E-03  7260   0.621E-02    0.710E-02
RMM:   5    -0.358614967543E+03    0.35306E-04   -0.37440E-04  7383   0.376E-02    0.494E-02
RMM:   6    -0.358614978189E+03   -0.10646E-04   -0.14083E-04  6047   0.202E-02    0.298E-02
RMM:   7    -0.358614990873E+03   -0.12684E-04   -0.66892E-05  4427   0.151E-02    0.150E-02
RMM:   8    -0.358614999360E+03   -0.84874E-05   -0.39679E-05  4030   0.136E-02
  31 F= -.35861500E+03 E0= -.35862046E+03  d E =-.667648E-03
       N       E                     dE             d eps       ncg     rms          rms(c)
DAV:   1    -0.358615067129E+03   -0.76256E-04   -0.17839E-02  5040   0.396E-01    0.825E-02
RMM:   2    -0.358615107187E+03   -0.40058E-04   -0.97560E-04  7068   0.831E-02    0.391E-02
RMM:   3    -0.358615055316E+03    0.51871E-04   -0.15565E-04  6061   0.245E-02    0.264E-02
RMM:   4    -0.358615040890E+03    0.14425E-04   -0.33878E-05  3270   0.145E-02    0.151E-02
RMM:   5    -0.358615037521E+03    0.33697E-05   -0.91439E-06  2613   0.105E-02
  32 F= -.35861504E+03 E0= -.35862051E+03  d E =-.705808E-03
       N       E                     dE             d eps       ncg     rms          rms(c)
DAV:   1    -0.358615131591E+03   -0.90701E-04   -0.30401E-02  4864   0.501E-01    0.404E-02
RMM:   2    -0.358615205718E+03   -0.74127E-04   -0.93749E-04  6544   0.885E-02    0.221E-02
RMM:   3    -0.358615190534E+03    0.15183E-04   -0.98867E-05  5462   0.257E-02    0.160E-02
RMM:   4    -0.358615186780E+03    0.37542E-05   -0.20701E-05  3031   0.962E-03
  33 F= -.35861519E+03 E0= -.35862066E+03  d E =-.149260E-03
       N       E                     dE             d eps       ncg     rms          rms(c)
DAV:   1    -0.358614936060E+03    0.25447E-03   -0.27314E-01  4704   0.150E+00    0.126E-01
RMM:   2    -0.358615611238E+03   -0.67518E-03   -0.85672E-03  6971   0.265E-01    0.724E-02
RMM:   3    -0.358615510150E+03    0.10109E-03   -0.10566E-03  7120   0.718E-02    0.511E-02
RMM:   4    -0.358615483991E+03    0.26159E-04   -0.24827E-04  7195   0.242E-02    0.324E-02
RMM:   5    -0.358615480724E+03    0.32668E-05   -0.10420E-04  6170   0.165E-02    0.168E-02
RMM:   6    -0.358615476388E+03    0.43355E-05   -0.33501E-05  3449   0.114E-02
  34 F= -.35861548E+03 E0= -.35862099E+03  d E =-.438867E-03
       N       E                     dE             d eps       ncg     rms          rms(c)
DAV:   1    -0.358613203258E+03    0.22775E-02   -0.10933E+00  4704   0.300E+00    0.253E-01
RMM:   2    -0.358615907851E+03   -0.27046E-02   -0.34251E-02  6946   0.531E-01    0.143E-01
RMM:   3    -0.358615503220E+03    0.40463E-03   -0.41024E-03  7162   0.142E-01    0.999E-02
RMM:   4    -0.358615404997E+03    0.98223E-04   -0.95008E-04  8211   0.467E-02    0.647E-02
RMM:   5    -0.358615394920E+03    0.10077E-04   -0.40858E-04  7382   0.329E-02    0.341E-02
RMM:   6    -0.358615382933E+03    0.11987E-04   -0.15002E-04  6276   0.207E-02    0.156E-02
RMM:   7    -0.358615383162E+03   -0.22895E-06   -0.37746E-05  3720   0.130E-02
  35 F= -.35861538E+03 E0= -.35862095E+03  d E =-.345641E-03
       N       E                     dE             d eps       ncg     rms          rms(c)
DAV:   1    -0.358614718366E+03    0.66457E-03   -0.45095E-01  4704   0.193E+00    0.161E-01
RMM:   2    -0.358615788663E+03   -0.10703E-02   -0.13798E-02  6794   0.339E-01    0.882E-02
RMM:   3    -0.358615598314E+03    0.19035E-03   -0.14958E-03  7094   0.914E-02    0.629E-02
RMM:   4    -0.358615550267E+03    0.48047E-04   -0.32789E-04  7578   0.289E-02    0.394E-02
RMM:   5    -0.358615543879E+03    0.63886E-05   -0.13405E-04  6454   0.201E-02    0.209E-02
RMM:   6    -0.358615540947E+03    0.29315E-05   -0.41610E-05  3813   0.134E-02
  36 F= -.35861554E+03 E0= -.35862107E+03  d E =-.503426E-03
       N       E                     dE             d eps       ncg     rms          rms(c)
DAV:   1    -0.358615675556E+03   -0.13168E-03   -0.35916E-02  4848   0.535E-01    0.570E-02
RMM:   2    -0.358615739414E+03   -0.63859E-04   -0.11247E-03  6846   0.950E-02    0.251E-02
RMM:   3    -0.358615728468E+03    0.10946E-04   -0.11124E-04  6074   0.248E-02    0.171E-02
RMM:   4    -0.358615726530E+03    0.19377E-05   -0.23715E-05  3103   0.107E-02
  37 F= -.35861573E+03 E0= -.35862127E+03  d E =-.185583E-03
       N       E                     dE             d eps       ncg     rms          rms(c)
DAV:   1    -0.358615519242E+03    0.20923E-03   -0.32294E-01  4704   0.160E+00    0.178E-01
RMM:   2    -0.358616110939E+03   -0.59170E-03   -0.10446E-02  7128   0.286E-01    0.846E-02
RMM:   3    -0.358616044646E+03    0.66293E-04   -0.12618E-03  7102   0.704E-02    0.545E-02
RMM:   4    -0.358616031450E+03    0.13197E-04   -0.36068E-04  7132   0.295E-02    0.390E-02
RMM:   5    -0.358616025291E+03    0.61588E-05   -0.12799E-04  6268   0.185E-02    0.228E-02
RMM:   6    -0.358616025699E+03   -0.40782E-06   -0.52302E-05  4272   0.122E-02
  38 F= -.35861603E+03 E0= -.35862161E+03  d E =-.484752E-03
       N       E                     dE             d eps       ncg     rms          rms(c)
DAV:   1    -0.358616563191E+03   -0.53790E-03   -0.62272E-02  5040   0.759E-01    0.224E-01
RMM:   2    -0.358616468043E+03    0.95148E-04   -0.42614E-03  7046   0.169E-01    0.851E-02
RMM:   3    -0.358616305218E+03    0.16282E-03   -0.98143E-04  7233   0.537E-02    0.629E-02
RMM:   4    -0.358616197163E+03    0.10806E-03   -0.25262E-04  7141   0.317E-02    0.310E-02
RMM:   5    -0.358616185243E+03    0.11920E-04   -0.72963E-05  5839   0.184E-02    0.231E-02
RMM:   6    -0.358616179287E+03    0.59562E-05   -0.24837E-05  3102   0.105E-02
  39 F= -.35861618E+03 E0= -.35862180E+03  d E =-.153588E-03
       N       E                     dE             d eps       ncg     rms          rms(c)
DAV:   1    -0.358616196068E+03   -0.10825E-04   -0.31636E-03  5072   0.172E-01    0.469E-02
RMM:   2    -0.358616193481E+03    0.25869E-05   -0.21555E-04  6657   0.380E-02    0.176E-02
RMM:   3    -0.358616181457E+03    0.12024E-04   -0.36315E-05  3804   0.128E-02    0.126E-02
RMM:   4    -0.358616176365E+03    0.50916E-05   -0.10002E-05  2665   0.102E-02
  40 F= -.35861618E+03 E0= -.35862180E+03  d E =-.150666E-03
       N       E                     dE             d eps       ncg     rms          rms(c)
DAV:   1    -0.358616213329E+03   -0.31873E-04   -0.42844E-02  4784   0.578E-01    0.524E-02
RMM:   2    -0.358616300463E+03   -0.87134E-04   -0.12238E-03  6906   0.996E-02    0.277E-02
RMM:   3    -0.358616288732E+03    0.11731E-04   -0.18067E-04  6175   0.283E-02    0.205E-02
RMM:   4    -0.358616284893E+03    0.38395E-05   -0.39119E-05  3818   0.114E-02
  41 F= -.35861628E+03 E0= -.35862192E+03  d E =-.108528E-03
       N       E                     dE             d eps       ncg     rms          rms(c)
DAV:   1    -0.358616041833E+03    0.24690E-03   -0.19000E-01  4704   0.122E+00    0.106E-01
RMM:   2    -0.358616426452E+03   -0.38462E-03   -0.53398E-03  7036   0.207E-01    0.578E-02
RMM:   3    -0.358616382858E+03    0.43594E-04   -0.78705E-04  6986   0.573E-02    0.419E-02
RMM:   4    -0.358616371374E+03    0.11484E-04   -0.19385E-04  6622   0.207E-02    0.288E-02
RMM:   5    -0.358616368768E+03    0.26062E-05   -0.74883E-05  5071   0.130E-02
  42 F= -.35861637E+03 E0= -.35862202E+03  d E =-.192403E-03
       N       E                     dE             d eps       ncg     rms          rms(c)
DAV:   1    -0.358616726977E+03   -0.35560E-03   -0.39604E-02  5088   0.623E-01    0.195E-01
RMM:   2    -0.358616562355E+03    0.16462E-03   -0.29781E-03  7084   0.143E-01    0.686E-02
RMM:   3    -0.358616477558E+03    0.84797E-04   -0.64013E-04  7235   0.454E-02    0.523E-02
RMM:   4    -0.358616401557E+03    0.76001E-04   -0.18058E-04  6944   0.269E-02    0.272E-02
RMM:   5    -0.358616398672E+03    0.28850E-05   -0.50187E-05  4271   0.158E-02
  43 F= -.35861640E+03 E0= -.35862204E+03  d E =-.299037E-04
