       N       E                     dE             d eps       ncg     rms          rms(c)
DAV:   1     0.132230576289E+04    0.13223E+04   -0.90093E+04  4696   0.992E+02
DAV:   2    -0.146260375565E+03   -0.14686E+04   -0.14090E+04  4868   0.331E+02
DAV:   3    -0.353447225632E+03   -0.20719E+03   -0.19541E+03  7576   0.969E+01
DAV:   4    -0.378018186991E+03   -0.24571E+02   -0.23302E+02  7320   0.278E+01
DAV:   5    -0.380516991788E+03   -0.24988E+01   -0.24333E+01  7144   0.946E+00    0.653E+01
RMM:   6    -0.370493246675E+03    0.10024E+02   -0.28123E+01  6538   0.946E+00    0.318E+01
RMM:   7    -0.373452542876E+03   -0.29593E+01   -0.32149E+01  6808   0.851E+00    0.142E+01
RMM:   8    -0.365500933993E+03    0.79516E+01   -0.98596E+00  6617   0.476E+00    0.432E+00
RMM:   9    -0.364993041998E+03    0.50789E+00   -0.31994E+00  6895   0.245E+00    0.249E+00
RMM:  10    -0.364983728713E+03    0.93133E-02   -0.67446E-01  6950   0.112E+00    0.169E+00
RMM:  11    -0.364950364140E+03    0.33365E-01   -0.15856E-01  6809   0.603E-01    0.895E-01
RMM:  12    -0.364947160485E+03    0.32037E-02   -0.72360E-02  6955   0.428E-01    0.466E-01
RMM:  13    -0.364945118278E+03    0.20422E-02   -0.23318E-02  6927   0.232E-01    0.251E-01
RMM:  14    -0.364945271987E+03   -0.15371E-03   -0.10796E-02  7022   0.123E-01    0.175E-01
RMM:  15    -0.364945370948E+03   -0.98961E-04   -0.54932E-03  6917   0.880E-02    0.812E-02
RMM:  16    -0.364945475617E+03   -0.10467E-03   -0.22089E-03  6658   0.499E-02    0.406E-02
RMM:  17    -0.364945499191E+03   -0.23574E-04   -0.88963E-04  6027   0.311E-02    0.193E-02
RMM:  18    -0.364945524120E+03   -0.24929E-04   -0.39410E-04  5151   0.205E-02    0.108E-02
RMM:  19    -0.364945535298E+03   -0.11178E-04   -0.16637E-04  4462   0.153E-02    0.693E-03
RMM:  20    -0.364945539504E+03   -0.42059E-05   -0.82807E-05  3693   0.120E-02
   1 F= -.36494554E+03 E0= -.36495058E+03  d E =-.364946E+03
       N       E                     dE             d eps       ncg     rms          rms(c)
DAV:   1    -0.365012216822E+03   -0.66682E-01   -0.22350E+00  5120   0.487E+00    0.173E+00
RMM:   2    -0.365001264818E+03    0.10952E-01   -0.22291E-01  6841   0.121E+00    0.642E-01
RMM:   3    -0.364988484315E+03    0.12781E-01   -0.50390E-02  6938   0.405E-01    0.457E-01
RMM:   4    -0.364983243149E+03    0.52412E-02   -0.13226E-02  6965   0.252E-01    0.233E-01
RMM:   5    -0.364982558830E+03    0.68432E-03   -0.37156E-03  6888   0.125E-01    0.171E-01
RMM:   6    -0.364982724319E+03   -0.16549E-03   -0.15824E-03  7078   0.662E-02    0.105E-01
RMM:   7    -0.364982801058E+03   -0.76738E-04   -0.62053E-04  6552   0.449E-02    0.549E-02
RMM:   8    -0.364982864619E+03   -0.63561E-04   -0.33709E-04  6145   0.285E-02    0.382E-02
RMM:   9    -0.364982908041E+03   -0.43422E-04   -0.13281E-04  4896   0.217E-02    0.260E-02
RMM:  10    -0.364982941892E+03   -0.33851E-04   -0.75693E-05  4405   0.165E-02    0.110E-02
RMM:  11    -0.364982951210E+03   -0.93179E-05   -0.28204E-05  3566   0.138E-02
   2 F= -.36498295E+03 E0= -.36498809E+03  d E =-.374117E-01
       N       E                     dE             d eps       ncg     rms          rms(c)
DAV:   1    -0.365128671363E+03   -0.14573E+00   -0.88428E+00  4680   0.970E+00    0.350E+00
RMM:   2    -0.365084058968E+03    0.44612E-01   -0.88234E-01  6821   0.241E+00    0.127E+00
RMM:   3    -0.365033771148E+03    0.50288E-01   -0.19859E-01  6963   0.803E-01    0.909E-01
RMM:   4    -0.365012965094E+03    0.20806E-01   -0.51802E-02  6967   0.500E-01    0.465E-01
RMM:   5    -0.365010314477E+03    0.26506E-02   -0.14678E-02  6897   0.247E-01    0.343E-01
RMM:   6    -0.365010904208E+03   -0.58973E-03   -0.60419E-03  7170   0.131E-01    0.210E-01
RMM:   7    -0.365011163066E+03   -0.25886E-03   -0.25457E-03  7435   0.885E-02    0.110E-01
RMM:   8    -0.365011392753E+03   -0.22969E-03   -0.13740E-03  7114   0.541E-02    0.775E-02
RMM:   9    -0.365011533637E+03   -0.14088E-03   -0.49657E-04  6485   0.373E-02    0.535E-02
RMM:  10    -0.365011646630E+03   -0.11299E-03   -0.28780E-04  6108   0.281E-02    0.215E-02
RMM:  11    -0.365011672696E+03   -0.26065E-04   -0.12366E-04  5141   0.193E-02    0.968E-03
RMM:  12    -0.365011675058E+03   -0.23617E-05   -0.31767E-05  3766   0.143E-02
   3 F= -.36501168E+03 E0= -.36501698E+03  d E =-.661356E-01
       N       E                     dE             d eps       ncg     rms          rms(c)
DAV:   1    -0.365038653875E+03   -0.26981E-01   -0.22349E+00  4472   0.403E+00    0.538E-01
RMM:   2    -0.365044946832E+03   -0.62930E-02   -0.85008E-02  6641   0.774E-01    0.308E-01
RMM:   3    -0.365041565828E+03    0.33810E-02   -0.11453E-02  6813   0.207E-01    0.204E-01
RMM:   4    -0.365041147763E+03    0.41806E-03   -0.25494E-03  6885   0.836E-02    0.133E-01
RMM:   5    -0.365041043287E+03    0.10448E-03   -0.98356E-04  6888   0.542E-02    0.722E-02
RMM:   6    -0.365041030375E+03    0.12912E-04   -0.42401E-04  6961   0.345E-02    0.400E-02
RMM:   7    -0.365041019259E+03    0.11116E-04   -0.15871E-04  5640   0.182E-02    0.265E-02
RMM:   8    -0.365041016963E+03    0.22954E-05   -0.55815E-05  4117   0.137E-02
   4 F= -.36504102E+03 E0= -.36504651E+03  d E =-.293419E-01
       N       E                     dE             d eps       ncg     rms          rms(c)
DAV:   1    -0.365072544643E+03   -0.31525E-01   -0.20125E+01  4480   0.121E+01    0.161E+00
RMM:   2    -0.365126366343E+03   -0.53822E-01   -0.75138E-01  6585   0.228E+00    0.898E-01
RMM:   3    -0.365099678524E+03    0.26688E-01   -0.10366E-01  6832   0.597E-01    0.626E-01
RMM:   4    -0.365095490276E+03    0.41882E-02   -0.22572E-02  6869   0.250E-01    0.404E-01
RMM:   5    -0.365094673448E+03    0.81683E-03   -0.91447E-03  6860   0.169E-01    0.220E-01
RMM:   6    -0.365094538824E+03    0.13462E-03   -0.38029E-03  7022   0.105E-01    0.123E-01
RMM:   7    -0.365094499871E+03    0.38953E-04   -0.14846E-03  7240   0.531E-02    0.845E-02
RMM:   8    -0.365094511071E+03   -0.11201E-04   -0.56803E-04  6213   0.326E-02    0.438E-02
RMM:   9    -0.365094514063E+03   -0.29916E-05   -0.26630E-04  5989   0.248E-02    0.201E-02
RMM:  10    -0.365094514390E+03   -0.32677E-06   -0.93096E-05  5000   0.160E-02
   5 F= -.36509451E+03 E0= -.36510051E+03  d E =-.828393E-01
       N       E                     dE             d eps       ncg     rms          rms(c)
DAV:   1    -0.364940400309E+03    0.15411E+00   -0.80531E+01  4480   0.243E+01    0.321E+00
RMM:   2    -0.365145299256E+03   -0.20490E+00   -0.30699E+00  6514   0.464E+00    0.167E+00
RMM:   3    -0.365073426702E+03    0.71873E-01   -0.43165E-01  6880   0.123E+00    0.129E+00
RMM:   4    -0.365053456517E+03    0.19970E-01   -0.86486E-02  6938   0.487E-01    0.825E-01
RMM:   5    -0.365050253951E+03    0.32026E-02   -0.38117E-02  6855   0.348E-01    0.437E-01
RMM:   6    -0.365049458645E+03    0.79531E-03   -0.15151E-02  7031   0.211E-01    0.245E-01
RMM:   7    -0.365049607116E+03   -0.14847E-03   -0.59541E-03  7633   0.108E-01    0.168E-01
RMM:   8    -0.365049636903E+03   -0.29787E-04   -0.23442E-03  7368   0.623E-02    0.906E-02
RMM:   9    -0.365049667017E+03   -0.30114E-04   -0.10603E-03  6940   0.474E-02    0.467E-02
RMM:  10    -0.365049665266E+03    0.17514E-05   -0.38687E-04  5975   0.276E-02    0.258E-02
RMM:  11    -0.365049672852E+03   -0.75864E-05   -0.18266E-04  5536   0.209E-02    0.177E-02
RMM:  12    -0.365049672735E+03    0.11664E-06   -0.66933E-05  4251   0.145E-02
   6 F= -.36504967E+03 E0= -.36505655E+03  d E =-.379977E-01
       N       E                     dE             d eps       ncg     rms          rms(c)
DAV:   1    -0.365064317783E+03   -0.14645E-01   -0.42178E+01  4440   0.173E+01    0.238E+00
RMM:   2    -0.365182178515E+03   -0.11786E+00   -0.16346E+00  6649   0.329E+00    0.130E+00
RMM:   3    -0.365110065685E+03    0.72113E-01   -0.20148E-01  6766   0.857E-01    0.839E-01
RMM:   4    -0.365103518743E+03    0.65469E-02   -0.50461E-02  7042   0.375E-01    0.545E-01
RMM:   5    -0.365101858429E+03    0.16603E-02   -0.17741E-02  7103   0.230E-01    0.306E-01
RMM:   6    -0.365102079387E+03   -0.22096E-03   -0.72618E-03  7323   0.141E-01    0.176E-01
RMM:   7    -0.365102079867E+03   -0.48024E-06   -0.28827E-03  7545   0.790E-02    0.109E-01
RMM:   8    -0.365102175345E+03   -0.95478E-04   -0.12113E-03  7051   0.476E-02    0.590E-02
RMM:   9    -0.365102187432E+03   -0.12087E-04   -0.46499E-04  6613   0.337E-02    0.280E-02
RMM:  10    -0.365102202255E+03   -0.14823E-04   -0.17067E-04  5533   0.195E-02    0.184E-02
RMM:  11    -0.365102209617E+03   -0.73617E-05   -0.79257E-05  4612   0.154E-02
   7 F= -.36510221E+03 E0= -.36510846E+03  d E =-.905346E-01
       N       E                     dE             d eps       ncg     rms          rms(c)
DAV:   1    -0.365113726502E+03   -0.11524E-01   -0.64547E-01  4584   0.238E+00    0.522E-01
RMM:   2    -0.365113978329E+03   -0.25183E-03   -0.34928E-02  6777   0.499E-01    0.231E-01
RMM:   3    -0.365112541288E+03    0.14370E-02   -0.63496E-03  6860   0.142E-01    0.162E-01
RMM:   4    -0.365112005538E+03    0.53575E-03   -0.17957E-03  6901   0.826E-02    0.846E-02
RMM:   5    -0.365111902941E+03    0.10260E-03   -0.62862E-04  6948   0.478E-02    0.577E-02
RMM:   6    -0.365111896650E+03    0.62913E-05   -0.22715E-04  5972   0.249E-02    0.356E-02
RMM:   7    -0.365111889802E+03    0.68478E-05   -0.10228E-04  4989   0.178E-02    0.186E-02
RMM:   8    -0.365111887901E+03    0.19015E-05   -0.49583E-05  4025   0.146E-02
   8 F= -.36511189E+03 E0= -.36511821E+03  d E =-.967828E-02
       N       E                     dE             d eps       ncg     rms          rms(c)
DAV:   1    -0.365140413775E+03   -0.28524E-01   -0.57911E+00  4368   0.713E+00    0.153E+00
RMM:   2    -0.365143902613E+03   -0.34888E-02   -0.30819E-01  6776   0.148E+00    0.684E-01
RMM:   3    -0.365131483025E+03    0.12420E-01   -0.55298E-02  6915   0.415E-01    0.483E-01
RMM:   4    -0.365126754184E+03    0.47288E-02   -0.14719E-02  6787   0.237E-01    0.258E-01
RMM:   5    -0.365125830498E+03    0.92369E-03   -0.54784E-03  6989   0.139E-01    0.175E-01
RMM:   6    -0.365125826150E+03    0.43478E-05   -0.20518E-03  7170   0.734E-02    0.108E-01
RMM:   7    -0.365125821728E+03    0.44219E-05   -0.99846E-04  7108   0.476E-02    0.571E-02
RMM:   8    -0.365125837343E+03   -0.15615E-04   -0.40937E-04  5961   0.324E-02    0.353E-02
RMM:   9    -0.365125845956E+03   -0.86133E-05   -0.19495E-04  5441   0.238E-02    0.250E-02
RMM:  10    -0.365125851514E+03   -0.55576E-05   -0.93839E-05  5015   0.177E-02
   9 F= -.36512585E+03 E0= -.36513232E+03  d E =-.236419E-01
       N       E                     dE             d eps       ncg     rms          rms(c)
DAV:   1    -0.365133509405E+03   -0.76634E-02   -0.34980E-01  4584   0.173E+00    0.405E-01
RMM:   2    -0.365133553250E+03   -0.43846E-04   -0.19830E-02  6799   0.369E-01    0.174E-01
RMM:   3    -0.365132782023E+03    0.77123E-03   -0.34621E-03  6882   0.104E-01    0.120E-01
RMM:   4    -0.365132491100E+03    0.29092E-03   -0.10444E-03  6944   0.624E-02    0.625E-02
RMM:   5    -0.365132457783E+03    0.33318E-04   -0.35471E-04  6929   0.365E-02    0.427E-02
RMM:   6    -0.365132469086E+03   -0.11304E-04   -0.14026E-04  6063   0.191E-02    0.275E-02
RMM:   7    -0.365132474909E+03   -0.58226E-05   -0.48061E-05  3756   0.135E-02
  10 F= -.36513247E+03 E0= -.36513896E+03  d E =-.662339E-02
       N       E                     dE             d eps       ncg     rms          rms(c)
DAV:   1    -0.365153904364E+03   -0.21435E-01   -0.31430E+00  4480   0.520E+00    0.122E+00
RMM:   2    -0.365153722791E+03    0.18157E-03   -0.17201E-01  6779   0.110E+00    0.505E-01
RMM:   3    -0.365147293981E+03    0.64288E-02   -0.29079E-02  6869   0.306E-01    0.348E-01
RMM:   4    -0.365144709131E+03    0.25849E-02   -0.87933E-03  6939   0.184E-01    0.181E-01
RMM:   5    -0.365144430051E+03    0.27908E-03   -0.29451E-03  6946   0.105E-01    0.126E-01
RMM:   6    -0.365144508973E+03   -0.78922E-04   -0.11661E-03  7194   0.549E-02    0.819E-02
RMM:   7    -0.365144547974E+03   -0.39002E-04   -0.46668E-04  6295   0.364E-02    0.453E-02
RMM:   8    -0.365144591301E+03   -0.43326E-04   -0.26470E-04  5643   0.261E-02    0.274E-02
RMM:   9    -0.365144615148E+03   -0.23848E-04   -0.11867E-04  5056   0.208E-02    0.194E-02
RMM:  10    -0.365144631009E+03   -0.15861E-04   -0.44988E-05  4231   0.144E-02    0.901E-03
RMM:  11    -0.365144637533E+03   -0.65236E-05   -0.22058E-05  3541   0.127E-02
  11 F= -.36514464E+03 E0= -.36515117E+03  d E =-.187860E-01
       N       E                     dE             d eps       ncg     rms          rms(c)
DAV:   1    -0.365170059517E+03   -0.25429E-01   -0.12588E+01  4480   0.104E+01    0.248E+00
RMM:   2    -0.365168032573E+03    0.20269E-02   -0.68980E-01  6787   0.220E+00    0.100E+00
RMM:   3    -0.365143907936E+03    0.24125E-01   -0.11698E-01  6870   0.613E-01    0.697E-01
RMM:   4    -0.365133322545E+03    0.10585E-01   -0.35149E-02  6943   0.367E-01    0.359E-01
RMM:   5    -0.365132211664E+03    0.11109E-02   -0.11570E-02  6949   0.209E-01    0.253E-01
RMM:   6    -0.365132459728E+03   -0.24806E-03   -0.45448E-03  7352   0.108E-01    0.161E-01
RMM:   7    -0.365132582156E+03   -0.12243E-03   -0.18930E-03  7385   0.717E-02    0.896E-02
RMM:   8    -0.365132718794E+03   -0.13664E-03   -0.10320E-03  6874   0.453E-02    0.554E-02
RMM:   9    -0.365132787050E+03   -0.68256E-04   -0.37492E-04  6035   0.326E-02    0.400E-02
RMM:  10    -0.365132841483E+03   -0.54433E-04   -0.19542E-04  5707   0.231E-02    0.210E-02
RMM:  11    -0.365132859302E+03   -0.17820E-04   -0.85759E-05  4837   0.177E-02    0.814E-03
RMM:  12    -0.365132862233E+03   -0.29300E-05   -0.29938E-05  3758   0.140E-02
  12 F= -.36513286E+03 E0= -.36513942E+03  d E =-.701072E-02
       N       E                     dE             d eps       ncg     rms          rms(c)
DAV:   1    -0.365167609100E+03   -0.34750E-01   -0.70634E+00  4592   0.780E+00    0.182E+00
RMM:   2    -0.365167128999E+03    0.48010E-03   -0.38114E-01  6786   0.162E+00    0.768E-01
RMM:   3    -0.365153020240E+03    0.14109E-01   -0.67165E-02  6929   0.460E-01    0.533E-01
RMM:   4    -0.365146950294E+03    0.60699E-02   -0.20136E-02  6913   0.282E-01    0.272E-01
RMM:   5    -0.365146186123E+03    0.76417E-03   -0.66971E-03  6935   0.160E-01    0.189E-01
RMM:   6    -0.365146240317E+03   -0.54194E-04   -0.25360E-03  7231   0.833E-02    0.122E-01
RMM:   7    -0.365146234500E+03    0.58173E-05   -0.10510E-03  7092   0.515E-02    0.673E-02
RMM:   8    -0.365146259992E+03   -0.25493E-04   -0.51020E-04  6258   0.355E-02    0.392E-02
RMM:   9    -0.365146277224E+03   -0.17232E-04   -0.22562E-04  5509   0.257E-02    0.292E-02
RMM:  10    -0.365146284511E+03   -0.72874E-05   -0.10464E-04  5034   0.189E-02    0.157E-02
RMM:  11    -0.365146281469E+03    0.30424E-05   -0.38525E-05  4022   0.143E-02
  13 F= -.36514628E+03 E0= -.36515283E+03  d E =-.204300E-01
       N       E                     dE             d eps       ncg     rms          rms(c)
DAV:   1    -0.365150419631E+03   -0.41351E-02   -0.40794E-01  4408   0.163E+00    0.168E-01
RMM:   2    -0.365151169163E+03   -0.74953E-03   -0.98696E-03  6609   0.265E-01    0.105E-01
RMM:   3    -0.365150790347E+03    0.37882E-03   -0.15112E-03  6603   0.697E-02    0.650E-02
RMM:   4    -0.365150757386E+03    0.32961E-04   -0.37451E-04  6329   0.285E-02    0.451E-02
RMM:   5    -0.365150743506E+03    0.13880E-04   -0.12896E-04  5933   0.173E-02    0.235E-02
RMM:   6    -0.365150738070E+03    0.54356E-05   -0.56578E-05  4420   0.124E-02
  14 F= -.36515074E+03 E0= -.36515731E+03  d E =-.445660E-02
       N       E                     dE             d eps       ncg     rms          rms(c)
DAV:   1    -0.365158363826E+03   -0.76203E-02   -0.36730E+00  4368   0.489E+00    0.505E-01
RMM:   2    -0.365165114515E+03   -0.67507E-02   -0.89319E-02  6657   0.803E-01    0.319E-01
RMM:   3    -0.365162055521E+03    0.30590E-02   -0.14680E-02  6729   0.209E-01    0.201E-01
RMM:   4    -0.365161776680E+03    0.27884E-03   -0.36812E-03  7198   0.878E-02    0.142E-01
RMM:   5    -0.365161664183E+03    0.11250E-03   -0.12856E-03  6883   0.552E-02    0.734E-02
RMM:   6    -0.365161627811E+03    0.36372E-04   -0.57776E-04  6936   0.392E-02    0.342E-02
RMM:   7    -0.365161626967E+03    0.84473E-06   -0.22728E-04  5956   0.201E-02    0.221E-02
RMM:   8    -0.365161625792E+03    0.11742E-05   -0.55799E-05  3951   0.139E-02
  15 F= -.36516163E+03 E0= -.36516827E+03  d E =-.153443E-01
       N       E                     dE             d eps       ncg     rms          rms(c)
DAV:   1    -0.365157360278E+03    0.42667E-02   -0.14684E+01  4368   0.977E+00    0.101E+00
RMM:   2    -0.365183598889E+03   -0.26239E-01   -0.35382E-01  6634   0.162E+00    0.623E-01
RMM:   3    -0.365173169213E+03    0.10430E-01   -0.59532E-02  6801   0.422E-01    0.411E-01
RMM:   4    -0.365171913621E+03    0.12556E-02   -0.14233E-02  7311   0.176E-01    0.288E-01
RMM:   5    -0.365171469495E+03    0.44413E-03   -0.50839E-03  6911   0.111E-01    0.147E-01
RMM:   6    -0.365171312022E+03    0.15747E-03   -0.23026E-03  7017   0.787E-02    0.697E-02
RMM:   7    -0.365171319941E+03   -0.79190E-05   -0.93183E-04  6913   0.398E-02    0.455E-02
RMM:   8    -0.365171325151E+03   -0.52102E-05   -0.29781E-04  5474   0.218E-02    0.280E-02
RMM:   9    -0.365171329145E+03   -0.39939E-05   -0.15169E-04  5405   0.190E-02    0.119E-02
RMM:  10    -0.365171330045E+03   -0.90020E-06   -0.51939E-05  3736   0.124E-02
  16 F= -.36517133E+03 E0= -.36517802E+03  d E =-.250486E-01
       N       E                     dE             d eps       ncg     rms          rms(c)
DAV:   1    -0.365178061795E+03   -0.67326E-02   -0.17553E+00  4376   0.361E+00    0.373E-01
RMM:   2    -0.365180560552E+03   -0.24988E-02   -0.49379E-02  6745   0.642E-01    0.184E-01
RMM:   3    -0.365180187643E+03    0.37291E-03   -0.69686E-03  6701   0.161E-01    0.122E-01
RMM:   4    -0.365180124779E+03    0.62864E-04   -0.19882E-03  7347   0.663E-02    0.839E-02
RMM:   5    -0.365180080161E+03    0.44618E-04   -0.78123E-04  6989   0.446E-02    0.420E-02
RMM:   6    -0.365180086802E+03   -0.66410E-05   -0.29047E-04  6132   0.260E-02    0.246E-02
RMM:   7    -0.365180091386E+03   -0.45835E-05   -0.11304E-04  4702   0.177E-02    0.144E-02
RMM:   8    -0.365180096021E+03   -0.46354E-05   -0.53087E-05  4070   0.140E-02
  17 F= -.36518010E+03 E0= -.36518689E+03  d E =-.876598E-02
       N       E                     dE             d eps       ncg     rms          rms(c)
DAV:   1    -0.365182475083E+03   -0.23837E-02   -0.36804E+00  4368   0.522E+00    0.541E-01
RMM:   2    -0.365187716831E+03   -0.52417E-02   -0.10339E-01  6733   0.928E-01    0.266E-01
RMM:   3    -0.365186964862E+03    0.75197E-03   -0.14716E-02  6708   0.234E-01    0.178E-01
RMM:   4    -0.365186806245E+03    0.15862E-03   -0.41804E-03  7423   0.958E-02    0.121E-01
RMM:   5    -0.365186718325E+03    0.87919E-04   -0.16431E-03  7122   0.651E-02    0.602E-02
RMM:   6    -0.365186736293E+03   -0.17967E-04   -0.64061E-04  7087   0.379E-02    0.364E-02
RMM:   7    -0.365186744150E+03   -0.78571E-05   -0.24182E-04  5585   0.230E-02    0.216E-02
RMM:   8    -0.365186752675E+03   -0.85251E-05   -0.99767E-05  4820   0.174E-02
  18 F= -.36518675E+03 E0= -.36519368E+03  d E =-.154226E-01
       N       E                     dE             d eps       ncg     rms          rms(c)
DAV:   1    -0.365186659828E+03    0.84322E-04   -0.59438E-01  4472   0.210E+00    0.219E-01
RMM:   2    -0.365187541969E+03   -0.88214E-03   -0.16938E-02  6736   0.374E-01    0.109E-01
RMM:   3    -0.365187439876E+03    0.10209E-03   -0.25478E-03  6702   0.952E-02    0.725E-02
RMM:   4    -0.365187421274E+03    0.18602E-04   -0.73890E-04  7194   0.393E-02    0.499E-02
RMM:   5    -0.365187411240E+03    0.10033E-04   -0.29127E-04  6373   0.275E-02    0.246E-02
RMM:   6    -0.365187415576E+03   -0.43358E-05   -0.10766E-04  4765   0.166E-02    0.146E-02
RMM:   7    -0.365187417832E+03   -0.22562E-05   -0.47549E-05  3670   0.138E-02
  19 F= -.36518742E+03 E0= -.36519439E+03  d E =-.160878E-01
       N       E                     dE             d eps       ncg     rms          rms(c)
DAV:   1    -0.365205955441E+03   -0.18540E-01   -0.20974E+00  4592   0.452E+00    0.135E+00
RMM:   2    -0.365201686133E+03    0.42693E-02   -0.15850E-01  6780   0.104E+00    0.529E-01
RMM:   3    -0.365193406804E+03    0.82793E-02   -0.34335E-02  6933   0.333E-01    0.382E-01
RMM:   4    -0.365189995275E+03    0.34115E-02   -0.95223E-03  6951   0.201E-01    0.190E-01
RMM:   5    -0.365189468551E+03    0.52672E-03   -0.27151E-03  6901   0.111E-01    0.136E-01
RMM:   6    -0.365189515769E+03   -0.47219E-04   -0.12158E-03  7108   0.553E-02    0.837E-02
RMM:   7    -0.365189507512E+03    0.82573E-05   -0.42190E-04  6299   0.384E-02    0.430E-02
RMM:   8    -0.365189521587E+03   -0.14074E-04   -0.24769E-04  5563   0.249E-02    0.294E-02
RMM:   9    -0.365189528486E+03   -0.68994E-05   -0.99053E-05  4956   0.196E-02
  20 F= -.36518953E+03 E0= -.36519652E+03  d E =-.211065E-02
       N       E                     dE             d eps       ncg     rms          rms(c)
DAV:   1    -0.365191421160E+03   -0.18996E-02   -0.18181E-01  4688   0.133E+00    0.403E-01
RMM:   2    -0.365191029741E+03    0.39142E-03   -0.14113E-02  6799   0.307E-01    0.159E-01
RMM:   3    -0.365190300277E+03    0.72946E-03   -0.30572E-03  6910   0.993E-02    0.115E-01
RMM:   4    -0.365189996907E+03    0.30337E-03   -0.83052E-04  6887   0.595E-02    0.576E-02
RMM:   5    -0.365189952394E+03    0.44514E-04   -0.23168E-04  6697   0.336E-02    0.402E-02
RMM:   6    -0.365189963074E+03   -0.10680E-04   -0.95658E-05  5171   0.169E-02    0.240E-02
RMM:   7    -0.365189968591E+03   -0.55169E-05   -0.24538E-05  2878   0.131E-02
  21 F= -.36518997E+03 E0= -.36519695E+03  d E =-.255076E-02
       N       E                     dE             d eps       ncg     rms          rms(c)
DAV:   1    -0.365191591127E+03   -0.16281E-02   -0.10649E+00  4368   0.294E+00    0.282E-01
RMM:   2    -0.365193821796E+03   -0.22307E-02   -0.32759E-02  6649   0.543E-01    0.148E-01
RMM:   3    -0.365193552159E+03    0.26964E-03   -0.43207E-03  6766   0.133E-01    0.108E-01
RMM:   4    -0.365193407560E+03    0.14460E-03   -0.93297E-04  7276   0.523E-02    0.687E-02
RMM:   5    -0.365193399333E+03    0.82263E-05   -0.40970E-04  6976   0.356E-02    0.363E-02
RMM:   6    -0.365193395589E+03    0.37448E-05   -0.16489E-04  6078   0.210E-02    0.217E-02
RMM:   7    -0.365193398914E+03   -0.33253E-05   -0.42497E-05  3701   0.134E-02
  22 F= -.36519340E+03 E0= -.36520039E+03  d E =-.343032E-02
       N       E                     dE             d eps       ncg     rms          rms(c)
DAV:   1    -0.365190819920E+03    0.25757E-02   -0.28096E+00  4368   0.478E+00    0.463E-01
RMM:   2    -0.365196781994E+03   -0.59621E-02   -0.87579E-02  6708   0.884E-01    0.245E-01
RMM:   3    -0.365196096883E+03    0.68511E-03   -0.12071E-02  6773   0.218E-01    0.178E-01
RMM:   4    -0.365195714983E+03    0.38190E-03   -0.26717E-03  7303   0.876E-02    0.113E-01
RMM:   5    -0.365195689654E+03    0.25329E-04   -0.11637E-03  7085   0.588E-02    0.590E-02
RMM:   6    -0.365195676258E+03    0.13396E-04   -0.47629E-04  7138   0.345E-02    0.352E-02
RMM:   7    -0.365195683890E+03   -0.76326E-05   -0.13419E-04  5071   0.189E-02    0.223E-02
RMM:   8    -0.365195693794E+03   -0.99036E-05   -0.94530E-05  4515   0.170E-02
  23 F= -.36519569E+03 E0= -.36520269E+03  d E =-.572520E-02
       N       E                     dE             d eps       ncg     rms          rms(c)
DAV:   1    -0.365197295345E+03   -0.16115E-02   -0.28538E-01  4392   0.145E+00    0.192E-01
RMM:   2    -0.365197692265E+03   -0.39692E-03   -0.90550E-03  6758   0.270E-01    0.966E-02
RMM:   3    -0.365197564042E+03    0.12822E-03   -0.14970E-03  6765   0.663E-02    0.713E-02
RMM:   4    -0.365197509214E+03    0.54828E-04   -0.38902E-04  6584   0.334E-02    0.438E-02
RMM:   5    -0.365197501664E+03    0.75499E-05   -0.15374E-04  6412   0.219E-02    0.228E-02
RMM:   6    -0.365197503355E+03   -0.16905E-05   -0.55957E-05  3973   0.127E-02
  24 F= -.36519750E+03 E0= -.36520456E+03  d E =-.180956E-02
       N       E                     dE             d eps       ncg     rms          rms(c)
DAV:   1    -0.365198293643E+03   -0.79198E-03   -0.14442E+00  4368   0.327E+00    0.434E-01
RMM:   2    -0.365200258314E+03   -0.19647E-02   -0.45953E-02  6771   0.608E-01    0.218E-01
RMM:   3    -0.365199591644E+03    0.66667E-03   -0.75970E-03  6824   0.148E-01    0.163E-01
RMM:   4    -0.365199293713E+03    0.29793E-03   -0.19582E-03  6967   0.749E-02    0.101E-01
RMM:   5    -0.365199239763E+03    0.53950E-04   -0.79575E-04  6915   0.506E-02    0.522E-02
RMM:   6    -0.365199242393E+03   -0.26304E-05   -0.32303E-04  6569   0.279E-02    0.327E-02
RMM:   7    -0.365199251634E+03   -0.92410E-05   -0.93144E-05  4491   0.161E-02
  25 F= -.36519925E+03 E0= -.36520643E+03  d E =-.355784E-02
       N       E                     dE             d eps       ncg     rms          rms(c)
DAV:   1    -0.365200939288E+03   -0.16969E-02   -0.13422E-01  4680   0.107E+00    0.296E-01
RMM:   2    -0.365200819036E+03    0.12025E-03   -0.80466E-03  6791   0.228E-01    0.121E-01
RMM:   3    -0.365200478417E+03    0.34062E-03   -0.18029E-03  6932   0.710E-02    0.855E-02
RMM:   4    -0.365200312904E+03    0.16551E-03   -0.54214E-04  6888   0.464E-02    0.420E-02
RMM:   5    -0.365200286167E+03    0.26737E-04   -0.17676E-04  6532   0.253E-02    0.302E-02
RMM:   6    -0.365200281199E+03    0.49679E-05   -0.55673E-05  3848   0.129E-02
  26 F= -.36520028E+03 E0= -.36520750E+03  d E =-.102956E-02
       N       E                     dE             d eps       ncg     rms          rms(c)
DAV:   1    -0.365203467299E+03   -0.31811E-02   -0.53669E-01  4592   0.214E+00    0.578E-01
RMM:   2    -0.365202811557E+03    0.65574E-03   -0.30540E-02  6763   0.451E-01    0.231E-01
RMM:   3    -0.365201525495E+03    0.12861E-02   -0.64214E-03  6943   0.137E-01    0.163E-01
RMM:   4    -0.365200910444E+03    0.61505E-03   -0.19506E-03  6905   0.897E-02    0.807E-02
RMM:   5    -0.365200825345E+03    0.85099E-04   -0.62618E-04  6932   0.482E-02    0.597E-02
RMM:   6    -0.365200827541E+03   -0.21953E-05   -0.23237E-04  6112   0.238E-02    0.366E-02
RMM:   7    -0.365200823655E+03    0.38856E-05   -0.95816E-05  4888   0.187E-02
  27 F= -.36520082E+03 E0= -.36520812E+03  d E =-.157202E-02
       N       E                     dE             d eps       ncg     rms          rms(c)
DAV:   1    -0.365201591201E+03   -0.76366E-03   -0.18286E-01  4392   0.110E+00    0.932E-02
RMM:   2    -0.365201849120E+03   -0.25792E-03   -0.40038E-03  6679   0.180E-01    0.527E-02
RMM:   3    -0.365201825343E+03    0.23777E-04   -0.78064E-04  6397   0.478E-02    0.408E-02
RMM:   4    -0.365201810035E+03    0.15307E-04   -0.22263E-04  6077   0.232E-02    0.237E-02
RMM:   5    -0.365201805354E+03    0.46812E-05   -0.77544E-05  4479   0.135E-02
  28 F= -.36520181E+03 E0= -.36520915E+03  d E =-.981699E-03
       N       E                     dE             d eps       ncg     rms          rms(c)
DAV:   1    -0.365201999184E+03   -0.18915E-03   -0.16445E+00  4368   0.329E+00    0.274E-01
RMM:   2    -0.365204301983E+03   -0.23028E-02   -0.35442E-02  6655   0.535E-01    0.153E-01
RMM:   3    -0.365204135572E+03    0.16641E-03   -0.68038E-03  6694   0.139E-01    0.117E-01
RMM:   4    -0.365203991731E+03    0.14384E-03   -0.16277E-03  7116   0.625E-02    0.685E-02
RMM:   5    -0.365203962613E+03    0.29118E-04   -0.65365E-04  6666   0.374E-02    0.317E-02
RMM:   6    -0.365203966122E+03   -0.35088E-05   -0.23595E-04  5849   0.224E-02    0.160E-02
RMM:   7    -0.365203967405E+03   -0.12838E-05   -0.61290E-05  4258   0.135E-02
  29 F= -.36520397E+03 E0= -.36521144E+03  d E =-.314375E-02
       N       E                     dE             d eps       ncg     rms          rms(c)
DAV:   1    -0.365197055604E+03    0.69105E-02   -0.65773E+00  4368   0.658E+00    0.548E-01
RMM:   2    -0.365206265288E+03   -0.92097E-02   -0.14205E-01  6656   0.107E+00    0.308E-01
RMM:   3    -0.365205434878E+03    0.83041E-03   -0.26603E-02  6721   0.278E-01    0.234E-01
RMM:   4    -0.365204847032E+03    0.58785E-03   -0.63083E-03  7083   0.124E-01    0.138E-01
RMM:   5    -0.365204722806E+03    0.12423E-03   -0.25537E-03  6951   0.745E-02    0.628E-02
RMM:   6    -0.365204737235E+03   -0.14429E-04   -0.92110E-04  6797   0.442E-02    0.316E-02
RMM:   7    -0.365204751894E+03   -0.14659E-04   -0.32451E-04  5445   0.216E-02    0.196E-02
RMM:   8    -0.365204761359E+03   -0.94648E-05   -0.14334E-04  4776   0.174E-02    0.104E-02
RMM:   9    -0.365204762460E+03   -0.11009E-05   -0.48530E-05  4064   0.133E-02
  30 F= -.36520476E+03 E0= -.36521246E+03  d E =-.393881E-02
       N       E                     dE             d eps       ncg     rms          rms(c)
DAV:   1    -0.365209488207E+03   -0.47268E-02   -0.10190E+00  4480   0.285E+00    0.678E-01
RMM:   2    -0.365208840963E+03    0.64724E-03   -0.52184E-02  6774   0.606E-01    0.280E-01
RMM:   3    -0.365207197684E+03    0.16433E-02   -0.94062E-03  6897   0.162E-01    0.200E-01
RMM:   4    -0.365206361482E+03    0.83620E-03   -0.29810E-03  6927   0.105E-01    0.106E-01
RMM:   5    -0.365206261195E+03    0.10029E-03   -0.94664E-04  6945   0.601E-02    0.745E-02
RMM:   6    -0.365206291771E+03   -0.30576E-04   -0.37858E-04  6472   0.304E-02    0.468E-02
RMM:   7    -0.365206311963E+03   -0.20193E-04   -0.15776E-04  5694   0.225E-02    0.225E-02
RMM:   8    -0.365206329063E+03   -0.17099E-04   -0.81649E-05  4479   0.161E-02    0.137E-02
RMM:   9    -0.365206336281E+03   -0.72180E-05   -0.34289E-05  3855   0.129E-02
  31 F= -.36520634E+03 E0= -.36521414E+03  d E =-.157382E-02
       N       E                     dE             d eps       ncg     rms          rms(c)
DAV:   1    -0.365206353815E+03   -0.24753E-04   -0.42184E-03  4992   0.184E-01    0.412E-02
RMM:   2    -0.365206355172E+03   -0.13561E-05   -0.21575E-04  6286   0.386E-02    0.155E-02
RMM:   3    -0.365206350676E+03    0.44951E-05   -0.34752E-05  3433   0.128E-02
  32 F= -.36520635E+03 E0= -.36521416E+03  d E =-.158822E-02
       N       E                     dE             d eps       ncg     rms          rms(c)
DAV:   1    -0.365208326514E+03   -0.19713E-02   -0.64931E-01  4376   0.220E+00    0.337E-01
RMM:   2    -0.365209407624E+03   -0.10811E-02   -0.21325E-02  6765   0.414E-01    0.161E-01
RMM:   3    -0.365209087800E+03    0.31982E-03   -0.38887E-03  6860   0.105E-01    0.122E-01
RMM:   4    -0.365208859938E+03    0.22786E-03   -0.90902E-04  6773   0.589E-02    0.632E-02
RMM:   5    -0.365208830494E+03    0.29444E-04   -0.39061E-04  6873   0.355E-02    0.351E-02
RMM:   6    -0.365208818692E+03    0.11802E-04   -0.13497E-04  6122   0.184E-02    0.222E-02
RMM:   7    -0.365208815550E+03    0.31421E-05   -0.41552E-05  3449   0.113E-02
  33 F= -.36520882E+03 E0= -.36521673E+03  d E =-.246487E-02
       N       E                     dE             d eps       ncg     rms          rms(c)
DAV:   1    -0.365209455443E+03   -0.63675E-03   -0.44168E-01  4376   0.182E+00    0.275E-01
RMM:   2    -0.365210167203E+03   -0.71176E-03   -0.14443E-02  6756   0.340E-01    0.131E-01
RMM:   3    -0.365209941104E+03    0.22610E-03   -0.26134E-03  6819   0.865E-02    0.982E-02
RMM:   4    -0.365209796641E+03    0.14446E-03   -0.63381E-04  6730   0.484E-02    0.511E-02
RMM:   5    -0.365209779459E+03    0.17182E-04   -0.27574E-04  6821   0.294E-02    0.292E-02
RMM:   6    -0.365209772762E+03    0.66975E-05   -0.10085E-04  5207   0.154E-02    0.194E-02
RMM:   7    -0.365209769961E+03    0.28002E-05   -0.33956E-05  3184   0.108E-02
  34 F= -.36520977E+03 E0= -.36521775E+03  d E =-.341928E-02
       N       E                     dE             d eps       ncg     rms          rms(c)
DAV:   1    -0.365209802597E+03   -0.29835E-04   -0.10832E-01  4400   0.899E-01    0.136E-01
RMM:   2    -0.365209980293E+03   -0.17770E-03   -0.35711E-03  6727   0.169E-01    0.650E-02
RMM:   3    -0.365209924252E+03    0.56040E-04   -0.66628E-04  6688   0.436E-02    0.483E-02
RMM:   4    -0.365209889748E+03    0.34504E-04   -0.16655E-04  6169   0.243E-02    0.251E-02
RMM:   5    -0.365209884703E+03    0.50451E-05   -0.67176E-05  4628   0.146E-02
  35 F= -.36520988E+03 E0= -.36521790E+03  d E =-.353403E-02
       N       E                     dE             d eps       ncg     rms          rms(c)
DAV:   1    -0.365211741909E+03   -0.18522E-02   -0.79462E-01  4480   0.248E+00    0.452E-01
RMM:   2    -0.365212123542E+03   -0.38163E-03   -0.31301E-02  6764   0.483E-01    0.199E-01
RMM:   3    -0.365211458628E+03    0.66491E-03   -0.50117E-03  6869   0.124E-01    0.140E-01
RMM:   4    -0.365211121595E+03    0.33703E-03   -0.15704E-03  6941   0.713E-02    0.792E-02
RMM:   5    -0.365211072793E+03    0.48802E-04   -0.54590E-04  6926   0.443E-02    0.517E-02
RMM:   6    -0.365211083205E+03   -0.10412E-04   -0.21230E-04  6359   0.224E-02    0.339E-02
RMM:   7    -0.365211093026E+03   -0.98211E-05   -0.79424E-05  4804   0.160E-02
  36 F= -.36521109E+03 E0= -.36521911E+03  d E =-.120832E-02
       N       E                     dE             d eps       ncg     rms          rms(c)
DAV:   1    -0.365211212583E+03   -0.12938E-03   -0.92259E-02  4528   0.843E-01    0.151E-01
RMM:   2    -0.365211255205E+03   -0.42622E-04   -0.35844E-03  6736   0.164E-01    0.662E-02
RMM:   3    -0.365211184919E+03    0.70286E-04   -0.58544E-04  6788   0.426E-02    0.458E-02
RMM:   4    -0.365211155796E+03    0.29123E-04   -0.18825E-04  6457   0.238E-02    0.270E-02
RMM:   5    -0.365211155852E+03   -0.56454E-07   -0.63776E-05  4375   0.156E-02
  37 F= -.36521116E+03 E0= -.36521918E+03  d E =-.127115E-02
       N       E                     dE             d eps       ncg     rms          rms(c)
DAV:   1    -0.365211693782E+03   -0.53799E-03   -0.58230E-01  4400   0.205E+00    0.251E-01
RMM:   2    -0.365212798021E+03   -0.11042E-02   -0.16129E-02  6680   0.362E-01    0.134E-01
RMM:   3    -0.365212507698E+03    0.29032E-03   -0.27374E-03  6825   0.919E-02    0.102E-01
RMM:   4    -0.365212414370E+03    0.93328E-04   -0.62618E-04  6861   0.445E-02    0.600E-02
RMM:   5    -0.365212396029E+03    0.18341E-04   -0.26571E-04  6588   0.279E-02    0.293E-02
RMM:   6    -0.365212382764E+03    0.13265E-04   -0.10096E-04  6040   0.164E-02    0.161E-02
RMM:   7    -0.365212381536E+03    0.12277E-05   -0.26825E-05  3053   0.103E-02
  38 F= -.36521238E+03 E0= -.36522038E+03  d E =-.122568E-02
       N       E                     dE             d eps       ncg     rms          rms(c)
DAV:   1    -0.365212505953E+03   -0.12319E-03   -0.33273E-01  4376   0.155E+00    0.184E-01
RMM:   2    -0.365213141041E+03   -0.63509E-03   -0.92111E-03  6671   0.273E-01    0.998E-02
RMM:   3    -0.365212971270E+03    0.16977E-03   -0.15397E-03  6783   0.680E-02    0.751E-02
RMM:   4    -0.365212924738E+03    0.46532E-04   -0.35619E-04  6658   0.328E-02    0.450E-02
RMM:   5    -0.365212915058E+03    0.96806E-05   -0.15064E-04  6244   0.207E-02    0.226E-02
RMM:   6    -0.365212906786E+03    0.82714E-05   -0.57306E-05  4194   0.127E-02
  39 F= -.36521291E+03 E0= -.36522089E+03  d E =-.175093E-02
       N       E                     dE             d eps       ncg     rms          rms(c)
DAV:   1    -0.365211399516E+03    0.15155E-02   -0.13302E+00  4368   0.310E+00    0.367E-01
RMM:   2    -0.365213930911E+03   -0.25314E-02   -0.36715E-02  6668   0.545E-01    0.199E-01
RMM:   3    -0.365213214227E+03    0.71668E-03   -0.59226E-03  6817   0.134E-01    0.150E-01
RMM:   4    -0.365213025227E+03    0.18900E-03   -0.13610E-03  7002   0.647E-02    0.898E-02
RMM:   5    -0.365212987169E+03    0.38058E-04   -0.58608E-04  6849   0.413E-02    0.453E-02
RMM:   6    -0.365212959070E+03    0.28099E-04   -0.23685E-04  6543   0.249E-02    0.254E-02
RMM:   7    -0.365212958336E+03    0.73406E-06   -0.65118E-05  4149   0.138E-02
  40 F= -.36521296E+03 E0= -.36522092E+03  d E =-.180248E-02
       N       E                     dE             d eps       ncg     rms          rms(c)
DAV:   1    -0.365212749362E+03    0.20971E-03   -0.33828E-01  4408   0.156E+00    0.187E-01
RMM:   2    -0.365213357593E+03   -0.60823E-03   -0.91472E-03  6561   0.274E-01    0.966E-02
RMM:   3    -0.365213161923E+03    0.19567E-03   -0.13652E-03  6786   0.692E-02    0.732E-02
RMM:   4    -0.365213105720E+03    0.56203E-04   -0.29306E-04  6574   0.315E-02    0.431E-02
RMM:   5    -0.365213096044E+03    0.96762E-05   -0.12525E-04  6083   0.199E-02    0.221E-02
RMM:   6    -0.365213090589E+03    0.54545E-05   -0.40276E-05  3659   0.124E-02
  41 F= -.36521309E+03 E0= -.36522107E+03  d E =-.193474E-02
       N       E                     dE             d eps       ncg     rms          rms(c)
DAV:   1    -0.365213673772E+03   -0.57773E-03   -0.42767E-01  4368   0.182E+00    0.194E-01
RMM:   2    -0.365214323389E+03   -0.64962E-03   -0.11617E-02  6709   0.325E-01    0.954E-02
RMM:   3    -0.365214256004E+03    0.67385E-04   -0.16012E-03  6766   0.808E-02    0.655E-02
RMM:   4    -0.365214223986E+03    0.32018E-04   -0.39631E-04  6856   0.316E-02    0.449E-02
RMM:   5    -0.365214216755E+03    0.72303E-05   -0.16703E-04  6371   0.219E-02    0.245E-02
RMM:   6    -0.365214215441E+03    0.13148E-05   -0.65872E-05  4824   0.142E-02
  42 F= -.36521422E+03 E0= -.36522218E+03  d E =-.112485E-02
       N       E                     dE             d eps       ncg     rms          rms(c)
DAV:   1    -0.365213354315E+03    0.86244E-03   -0.13253E+00  4368   0.320E+00    0.349E-01
RMM:   2    -0.365215394441E+03   -0.20401E-02   -0.36767E-02  6744   0.574E-01    0.173E-01
RMM:   3    -0.365215214799E+03    0.17964E-03   -0.54709E-03  6768   0.143E-01    0.118E-01
RMM:   4    -0.365215116950E+03    0.97849E-04   -0.13900E-03  7255   0.579E-02    0.809E-02
RMM:   5    -0.365215092927E+03    0.24023E-04   -0.59177E-04  6950   0.399E-02    0.441E-02
RMM:   6    -0.365215085106E+03    0.78212E-05   -0.22703E-04  6449   0.252E-02    0.249E-02
RMM:   7    -0.365215090989E+03   -0.58828E-05   -0.59044E-05  4142   0.144E-02
  43 F= -.36521509E+03 E0= -.36522304E+03  d E =-.200040E-02
       N       E                     dE             d eps       ncg     rms          rms(c)
DAV:   1    -0.365217017019E+03   -0.19319E-02   -0.49682E-01  4592   0.206E+00    0.448E-01
RMM:   2    -0.365217390675E+03   -0.37366E-03   -0.25944E-02  6783   0.416E-01    0.201E-01
RMM:   3    -0.365216260399E+03    0.11303E-02   -0.45290E-03  6918   0.121E-01    0.133E-01
RMM:   4    -0.365215920360E+03    0.34004E-03   -0.13869E-03  6917   0.708E-02    0.680E-02
RMM:   5    -0.365215845919E+03    0.74441E-04   -0.45476E-04  6936   0.408E-02    0.465E-02
RMM:   6    -0.365215841513E+03    0.44061E-05   -0.17014E-04  5862   0.205E-02    0.296E-02
RMM:   7    -0.365215835077E+03    0.64361E-05   -0.60336E-05  4165   0.152E-02
  44 F= -.36521584E+03 E0= -.36522381E+03  d E =-.744088E-03
       N       E                     dE             d eps       ncg     rms          rms(c)
DAV:   1    -0.365215875614E+03   -0.34101E-04   -0.17915E-02  4688   0.391E-01    0.819E-02
RMM:   2    -0.365215889242E+03   -0.13628E-04   -0.91729E-04  6634   0.792E-02    0.357E-02
RMM:   3    -0.365215849490E+03    0.39752E-04   -0.15498E-04  6042   0.241E-02    0.237E-02
RMM:   4    -0.365215838057E+03    0.11433E-04   -0.47989E-05  3933   0.155E-02    0.132E-02
RMM:   5    -0.365215835342E+03    0.27160E-05   -0.17387E-05  2695   0.115E-02
  45 F= -.36521584E+03 E0= -.36522381E+03  d E =-.744352E-03
       N       E                     dE             d eps       ncg     rms          rms(c)
DAV:   1    -0.365215968800E+03   -0.13074E-03   -0.18927E-01  4392   0.118E+00    0.117E-01
RMM:   2    -0.365216294113E+03   -0.32531E-03   -0.50884E-03  6749   0.207E-01    0.628E-02
RMM:   3    -0.365216260347E+03    0.33765E-04   -0.82245E-04  6631   0.528E-02    0.468E-02
RMM:   4    -0.365216238410E+03    0.21938E-04   -0.20146E-04  6279   0.237E-02    0.296E-02
RMM:   5    -0.365216233592E+03    0.48180E-05   -0.71397E-05  4901   0.142E-02
  46 F= -.36521623E+03 E0= -.36522420E+03  d E =-.398250E-03
       N       E                     dE             d eps       ncg     rms          rms(c)
DAV:   1    -0.365216044491E+03    0.19392E-03   -0.24899E-01  4376   0.135E+00    0.132E-01
RMM:   2    -0.365216482012E+03   -0.43752E-03   -0.66842E-03  6731   0.238E-01    0.712E-02
RMM:   3    -0.365216444879E+03    0.37133E-04   -0.11003E-03  6648   0.606E-02    0.524E-02
RMM:   4    -0.365216421924E+03    0.22955E-04   -0.26896E-04  6671   0.262E-02    0.342E-02
RMM:   5    -0.365216419589E+03    0.23343E-05   -0.99900E-05  5648   0.168E-02
  47 F= -.36521642E+03 E0= -.36522438E+03  d E =-.584248E-03
       N       E                     dE             d eps       ncg     rms          rms(c)
DAV:   1    -0.365216640297E+03   -0.21837E-03   -0.57270E-02  4456   0.675E-01    0.815E-02
RMM:   2    -0.365216768059E+03   -0.12776E-03   -0.20242E-03  6699   0.126E-01    0.449E-02
RMM:   3    -0.365216718819E+03    0.49240E-04   -0.28743E-04  6435   0.323E-02    0.323E-02
RMM:   4    -0.365216710497E+03    0.83225E-05   -0.66383E-05  4533   0.154E-02
  48 F= -.36521671E+03 E0= -.36522465E+03  d E =-.290907E-03
       N       E                     dE             d eps       ncg     rms          rms(c)
DAV:   1    -0.365216593318E+03    0.12550E-03   -0.35151E-01  4368   0.167E+00    0.208E-01
RMM:   2    -0.365217398053E+03   -0.80474E-03   -0.12545E-02  6752   0.312E-01    0.117E-01
RMM:   3    -0.365217024519E+03    0.37353E-03   -0.17776E-03  6831   0.791E-02    0.817E-02
RMM:   4    -0.365216961165E+03    0.63354E-04   -0.43117E-04  6856   0.372E-02    0.496E-02
RMM:   5    -0.365216954958E+03    0.62067E-05   -0.18849E-04  6609   0.250E-02    0.282E-02
RMM:   6    -0.365216955846E+03   -0.88725E-06   -0.77596E-05  4837   0.148E-02
  49 F= -.36521696E+03 E0= -.36522485E+03  d E =-.536256E-03
       N       E                     dE             d eps       ncg     rms          rms(c)
DAV:   1    -0.365217130441E+03   -0.17548E-03   -0.24163E-02  4704   0.455E-01    0.102E-01
RMM:   2    -0.365217140144E+03   -0.97034E-05   -0.11847E-03  6734   0.914E-02    0.408E-02
RMM:   3    -0.365217123336E+03    0.16808E-04   -0.23838E-04  6380   0.274E-02    0.297E-02
RMM:   4    -0.365217102837E+03    0.20499E-04   -0.69585E-05  5047   0.170E-02    0.149E-02
RMM:   5    -0.365217099068E+03    0.37682E-05   -0.20478E-05  2783   0.114E-02
  50 F= -.36521710E+03 E0= -.36522499E+03  d E =-.143223E-03
       N       E                     dE             d eps       ncg     rms          rms(c)
DAV:   1    -0.365217261006E+03   -0.15817E-03   -0.57143E-02  4520   0.701E-01    0.145E-01
RMM:   2    -0.365217284379E+03   -0.23373E-04   -0.26478E-03  6666   0.140E-01    0.584E-02
RMM:   3    -0.365217222815E+03    0.61564E-04   -0.45273E-04  6778   0.401E-02    0.430E-02
RMM:   4    -0.365217179924E+03    0.42891E-04   -0.13269E-04  6354   0.225E-02    0.224E-02
RMM:   5    -0.365217172747E+03    0.71767E-05   -0.40277E-05  3466   0.144E-02
  51 F= -.36521717E+03 E0= -.36522507E+03  d E =-.216901E-03
       N       E                     dE             d eps       ncg     rms          rms(c)
DAV:   1    -0.365217253369E+03   -0.73445E-04   -0.41599E-03  4624   0.176E-01    0.217E-02
RMM:   2    -0.365217256268E+03   -0.28995E-05   -0.14875E-04  6402   0.341E-02    0.121E-02
RMM:   3    -0.365217253449E+03    0.28195E-05   -0.21377E-05  2820   0.105E-02
  52 F= -.36521725E+03 E0= -.36522514E+03  d E =-.807019E-04
       N       E                     dE             d eps       ncg     rms          rms(c)
DAV:   1    -0.365217411376E+03   -0.15511E-03   -0.37189E-02  4424   0.525E-01    0.647E-02
RMM:   2    -0.365217443105E+03   -0.31729E-04   -0.12225E-03  6748   0.975E-02    0.330E-02
RMM:   3    -0.365217431860E+03    0.11245E-04   -0.20950E-04  5646   0.269E-02    0.234E-02
RMM:   4    -0.365217428388E+03    0.34716E-05   -0.98278E-05  4781   0.164E-02
  53 F= -.36521743E+03 E0= -.36522533E+03  d E =-.255641E-03
       N       E                     dE             d eps       ncg     rms          rms(c)
DAV:   1    -0.365217325724E+03    0.10614E-03   -0.14836E-01  4368   0.105E+00    0.127E-01
RMM:   2    -0.365217472355E+03   -0.14663E-03   -0.47373E-03  6768   0.194E-01    0.646E-02
RMM:   3    -0.365217448795E+03    0.23560E-04   -0.89122E-04  6555   0.529E-02    0.477E-02
RMM:   4    -0.365217423133E+03    0.25662E-04   -0.31087E-04  6364   0.286E-02    0.254E-02
RMM:   5    -0.365217416935E+03    0.61974E-05   -0.10461E-04  4600   0.165E-02    0.124E-02
RMM:   6    -0.365217416806E+03    0.12905E-06   -0.40090E-05  3975   0.117E-02
  54 F= -.36521742E+03 E0= -.36522534E+03  d E =-.244059E-03
       N       E                     dE             d eps       ncg     rms          rms(c)
DAV:   1    -0.365217481276E+03   -0.64340E-04   -0.42391E-02  4392   0.563E-01    0.672E-02
RMM:   2    -0.365217507419E+03   -0.26143E-04   -0.12336E-03  6600   0.102E-01    0.333E-02
RMM:   3    -0.365217492582E+03    0.14837E-04   -0.18433E-04  6093   0.270E-02    0.241E-02
RMM:   4    -0.365217482147E+03    0.10435E-04   -0.52448E-05  4618   0.141E-02    0.125E-02
RMM:   5    -0.365217479871E+03    0.22759E-05   -0.16950E-05  2581   0.972E-03
  55 F= -.36521748E+03 E0= -.36522540E+03  d E =-.307124E-03
       N       E                     dE             d eps       ncg     rms          rms(c)
DAV:   1    -0.365217694509E+03   -0.21236E-03   -0.18034E-02  4632   0.410E-01    0.119E-01
RMM:   2    -0.365217632883E+03    0.61626E-04   -0.12159E-03  6621   0.915E-02    0.443E-02
RMM:   3    -0.365217585563E+03    0.47321E-04   -0.24777E-04  6267   0.293E-02    0.329E-02
RMM:   4    -0.365217560769E+03    0.24794E-04   -0.67465E-05  4852   0.182E-02    0.179E-02
RMM:   5    -0.365217558294E+03    0.24746E-05   -0.15064E-05  2492   0.128E-02
  56 F= -.36521756E+03 E0= -.36522546E+03  d E =-.784236E-04
       N       E                     dE             d eps       ncg     rms          rms(c)
DAV:   1    -0.365217618793E+03   -0.58024E-04   -0.78155E-03  4584   0.272E-01    0.751E-02
RMM:   2    -0.365217599881E+03    0.18913E-04   -0.53809E-04  6605   0.615E-02    0.287E-02
RMM:   3    -0.365217578278E+03    0.21602E-04   -0.97963E-05  5636   0.190E-02    0.220E-02
RMM:   4    -0.365217570066E+03    0.82121E-05   -0.23188E-05  2675   0.130E-02
  57 F= -.36521757E+03 E0= -.36522547E+03  d E =-.901954E-04
       N       E                     dE             d eps       ncg     rms          rms(c)
DAV:   1    -0.365217665799E+03   -0.87520E-04   -0.20208E-02  4440   0.386E-01    0.508E-02
RMM:   2    -0.365217706662E+03   -0.40863E-04   -0.63600E-04  6572   0.716E-02    0.282E-02
RMM:   3    -0.365217698307E+03    0.83546E-05   -0.11008E-04  5013   0.201E-02    0.204E-02
RMM:   4    -0.365217695769E+03    0.25384E-05   -0.30974E-05  3249   0.121E-02
  58 F= -.36521770E+03 E0= -.36522559E+03  d E =-.125702E-03
       N       E                     dE             d eps       ncg     rms          rms(c)
DAV:   1    -0.365217618807E+03    0.79500E-04   -0.17912E-01  4368   0.115E+00    0.141E-01
RMM:   2    -0.365217947519E+03   -0.32871E-03   -0.54510E-03  6754   0.210E-01    0.796E-02
RMM:   3    -0.365217863961E+03    0.83558E-04   -0.91044E-04  6745   0.520E-02    0.571E-02
RMM:   4    -0.365217835631E+03    0.28330E-04   -0.23619E-04  6321   0.260E-02    0.356E-02
RMM:   5    -0.365217827326E+03    0.83047E-05   -0.98345E-05  5924   0.160E-02
  59 F= -.36521783E+03 E0= -.36522570E+03  d E =-.257260E-03
       N       E                     dE             d eps       ncg     rms          rms(c)
DAV:   1    -0.365217819701E+03    0.15930E-04   -0.63839E-03  4576   0.217E-01    0.294E-02
RMM:   2    -0.365217829006E+03   -0.93052E-05   -0.19475E-04  6126   0.397E-02    0.136E-02
RMM:   3    -0.365217823471E+03    0.55346E-05   -0.15212E-05  2477   0.113E-02
  60 F= -.36521782E+03 E0= -.36522569E+03  d E =-.253405E-03
       N       E                     dE             d eps       ncg     rms          rms(c)
DAV:   1    -0.365217862881E+03   -0.33875E-04   -0.35035E-02  4388   0.505E-01    0.338E-02
RMM:   2    -0.365217920983E+03   -0.58102E-04   -0.81254E-04  6219   0.802E-02    0.175E-02
RMM:   3    -0.365217913450E+03    0.75328E-05   -0.86178E-05  4495   0.236E-02
  61 F= -.36521791E+03 E0= -.36522577E+03  d E =-.899788E-04
       N       E                     dE             d eps       ncg     rms          rms(c)
DAV:   1    -0.365217884691E+03    0.36292E-04   -0.87766E-02  4376   0.796E-01    0.596E-02
RMM:   2    -0.365218039935E+03   -0.15524E-03   -0.22135E-03  6512   0.128E-01    0.332E-02
RMM:   3    -0.365218031703E+03    0.82321E-05   -0.35230E-04  6184   0.352E-02    0.241E-02
RMM:   4    -0.365218031474E+03    0.22887E-06   -0.92259E-05  4666   0.147E-02
  62 F= -.36521803E+03 E0= -.36522588E+03  d E =-.208002E-03
       N       E                     dE             d eps       ncg     rms          rms(c)
DAV:   1    -0.365217584491E+03    0.44721E-03   -0.35024E-01  4368   0.159E+00    0.113E-01
RMM:   2    -0.365218209914E+03   -0.62542E-03   -0.83821E-03  6556   0.255E-01    0.630E-02
RMM:   3    -0.365218182739E+03    0.27176E-04   -0.12565E-03  6568   0.681E-02    0.470E-02
RMM:   4    -0.365218171665E+03    0.11074E-04   -0.28935E-04  6534   0.253E-02    0.309E-02
RMM:   5    -0.365218169490E+03    0.21745E-05   -0.11191E-04  5678   0.157E-02    0.155E-02
RMM:   6    -0.365218168462E+03    0.10286E-05   -0.36167E-05  3604   0.121E-02
  63 F= -.36521817E+03 E0= -.36522598E+03  d E =-.344990E-03
       N       E                     dE             d eps       ncg     rms          rms(c)
DAV:   1    -0.365218277871E+03   -0.10838E-03   -0.49301E-02  4496   0.603E-01    0.103E-01
RMM:   2    -0.365218344912E+03   -0.67041E-04   -0.17630E-03  6747   0.113E-01    0.471E-02
RMM:   3    -0.365218312106E+03    0.32806E-04   -0.31172E-04  6395   0.296E-02    0.337E-02
RMM:   4    -0.365218291163E+03    0.20943E-04   -0.86190E-05  5352   0.188E-02    0.171E-02
RMM:   5    -0.365218287313E+03    0.38493E-05   -0.30139E-05  3121   0.127E-02
  64 F= -.36521829E+03 E0= -.36522610E+03  d E =-.118852E-03
       N       E                     dE             d eps       ncg     rms          rms(c)
DAV:   1    -0.365218326341E+03   -0.35178E-04   -0.57257E-02  4488   0.651E-01    0.107E-01
RMM:   2    -0.365218407292E+03   -0.80951E-04   -0.20171E-03  6718   0.121E-01    0.501E-02
RMM:   3    -0.365218361561E+03    0.45731E-04   -0.33745E-04  6451   0.312E-02    0.358E-02
RMM:   4    -0.365218339110E+03    0.22452E-04   -0.92125E-05  5262   0.197E-02    0.190E-02
RMM:   5    -0.365218334828E+03    0.42816E-05   -0.34487E-05  3263   0.137E-02
  65 F= -.36521833E+03 E0= -.36522614E+03  d E =-.166366E-03
       N       E                     dE             d eps       ncg     rms          rms(c)
DAV:   1    -0.365218369525E+03   -0.30416E-04   -0.50935E-02  4560   0.590E-01    0.646E-02
RMM:   2    -0.365218452463E+03   -0.82938E-04   -0.13480E-03  6651   0.102E-01    0.336E-02
RMM:   3    -0.365218444451E+03    0.80115E-05   -0.22642E-04  5587   0.265E-02    0.250E-02
RMM:   4    -0.365218439611E+03    0.48403E-05   -0.51792E-05  4057   0.140E-02
  66 F= -.36521844E+03 E0= -.36522623E+03  d E =-.104783E-03
       N       E                     dE             d eps       ncg     rms          rms(c)
DAV:   1    -0.365218206551E+03    0.23790E-03   -0.23017E-01  4480   0.125E+00    0.129E-01
RMM:   2    -0.365218583749E+03   -0.37720E-03   -0.58401E-03  6660   0.214E-01    0.693E-02
RMM:   3    -0.365218553999E+03    0.29749E-04   -0.92448E-04  6700   0.535E-02    0.511E-02
RMM:   4    -0.365218540253E+03    0.13746E-04   -0.22255E-04  6237   0.238E-02    0.365E-02
RMM:   5    -0.365218537961E+03    0.22929E-05   -0.87381E-05  5459   0.158E-02
  67 F= -.36521854E+03 E0= -.36522629E+03  d E =-.203133E-03
       N       E                     dE             d eps       ncg     rms          rms(c)
DAV:   1    -0.365218532724E+03    0.75293E-05   -0.47136E-03  4768   0.180E-01    0.211E-02
RMM:   2    -0.365218541983E+03   -0.92592E-05   -0.11994E-04  5654   0.305E-02    0.910E-03
RMM:   3    -0.365218539799E+03    0.21847E-05   -0.68245E-06  2468   0.959E-03
  68 F= -.36521854E+03 E0= -.36522630E+03  d E =-.204971E-03
       N       E                     dE             d eps       ncg     rms          rms(c)
DAV:   1    -0.365218538637E+03    0.33465E-05   -0.15296E-03  4680   0.104E-01    0.960E-03
RMM:   2    -0.365218541062E+03   -0.24253E-05   -0.30601E-05  2782   0.180E-02
  69 F= -.36521854E+03 E0= -.36522630E+03  d E =-.206234E-03
       N       E                     dE             d eps       ncg     rms          rms(c)
DAV:   1    -0.365218540417E+03   -0.17805E-05   -0.47301E-04  4672   0.590E-02    0.518E-03
RMM:   2    -0.365218541298E+03   -0.88091E-06   -0.94645E-06  2410   0.102E-02
  70 F= -.36521854E+03 E0= -.36522630E+03  d E =-.206470E-03
       N       E                     dE             d eps       ncg     rms          rms(c)
DAV:   1    -0.365218541540E+03   -0.11228E-05   -0.13938E-04  4552   0.323E-02    0.271E-03
RMM:   2    -0.365218541758E+03   -0.21753E-06   -0.31497E-06  2264   0.583E-03
  71 F= -.36521854E+03 E0= -.36522630E+03  d E =-.206930E-03
       N       E                     dE             d eps       ncg     rms          rms(c)
DAV:   1    -0.365218579453E+03   -0.37912E-04   -0.23971E-02  4488   0.398E-01    0.283E-02
RMM:   2    -0.365218619797E+03   -0.40344E-04   -0.51216E-04  6140   0.580E-02    0.152E-02
RMM:   3    -0.365218613481E+03    0.63153E-05   -0.60344E-05  3972   0.194E-02
  72 F= -.36521861E+03 E0= -.36522635E+03  d E =-.717237E-04
       N       E                     dE             d eps       ncg     rms          rms(c)
DAV:   1    -0.365218490814E+03    0.12898E-03   -0.16390E-01  4480   0.104E+00    0.791E-02
RMM:   2    -0.365218762942E+03   -0.27213E-03   -0.35952E-03  6462   0.153E-01    0.455E-02
RMM:   3    -0.365218739926E+03    0.23016E-04   -0.57854E-04  6294   0.451E-02    0.353E-02
RMM:   4    -0.365218734807E+03    0.51190E-05   -0.13166E-04  5580   0.165E-02    0.241E-02
RMM:   5    -0.365218732926E+03    0.18815E-05   -0.45491E-05  3920   0.121E-02
  73 F= -.36521873E+03 E0= -.36522643E+03  d E =-.191168E-03
