 vasp.5.4.1 05Feb16 (build Jan 29 2020 16:04:39) complex                        
  
 executed on           IFC91_ompi date 2020.06.15  12:41:58
 running on  160 total cores
 distrk:  each k-point on   20 cores,    8 groups
 distr:  one band on NCORES_PER_BAND=   5 cores,    4 groups


--------------------------------------------------------------------------------------------------------


 INCAR:
 POTCAR:    PAW_PBE Hf 20Jan2003                  
 POTCAR:    PAW_PBE Nb_sv 25May2007               
 POTCAR:    PAW_PBE Ta 17Jan2003                  
 POTCAR:    PAW_PBE Zr_sv 04Jan2005               

 ----------------------------------------------------------------------------- 
|                                                                             |
|           W    W    AA    RRRRR   N    N  II  N    N   GGGG   !!!           |
|           W    W   A  A   R    R  NN   N  II  NN   N  G    G  !!!           |
|           W    W  A    A  R    R  N N  N  II  N N  N  G       !!!           |
|           W WW W  AAAAAA  RRRRR   N  N N  II  N  N N  G  GGG   !            |
|           WW  WW  A    A  R   R   N   NN  II  N   NN  G    G                |
|           W    W  A    A  R    R  N    N  II  N    N   GGGG   !!!           |
|                                                                             |
|      For optimal performance we recommend to set                            |
|        NCORE= 4 - approx SQRT( number of cores)                             |
|      NCORE specifies how many cores store one orbital (NPAR=cpu/NCORE).     |
|      This setting can  greatly improve the performance of VASP for DFT.     |
|      The default, NPAR=number of cores might be grossly inefficient         |
|      on modern multi-core architectures or massively parallel machines.     |
|      Do your own testing !!!!                                               |
|      Unfortunately you need to use the default for GW and RPA calculations. |
|      (for HF NCORE is supported but not extensively tested yet)             |
|                                                                             |
 ----------------------------------------------------------------------------- 


 ----------------------------------------------------------------------------- 
|                                                                             |
|           W    W    AA    RRRRR   N    N  II  N    N   GGGG   !!!           |
|           W    W   A  A   R    R  NN   N  II  NN   N  G    G  !!!           |
|           W    W  A    A  R    R  N N  N  II  N N  N  G       !!!           |
|           W WW W  AAAAAA  RRRRR   N  N N  II  N  N N  G  GGG   !            |
|           WW  WW  A    A  R   R   N   NN  II  N   NN  G    G                |
|           W    W  A    A  R    R  N    N  II  N    N   GGGG   !!!           |
|                                                                             |
|      You have enabled k-point parallelism (KPAR>1).                         |
|      This developmental code was originally  written by Paul Kent at ORNL,  |
|      and carefully double checked in Vienna.                                |
|      GW as well as linear response parallelism added by Martijn Marsman     |
|      and Georg Kresse.                                                      |
|      Carefully verify results versus KPAR=1.                                |
|      Report problems to Paul Kent and Vienna.                               |
|                                                                             |
 ----------------------------------------------------------------------------- 

 POTCAR:    PAW_PBE Hf 20Jan2003                  
   VRHFIN =Hf: 6s5d                                                             
   LEXCH  = PE                                                                  
   EATOM  =    75.9011 eV,    5.5786 Ry                                         
                                                                                
   TITEL  = PAW_PBE Hf 20Jan2003                                                
   LULTRA =        F    use ultrasoft PP ?                                      
   IUNSCR =        1    unscreen: 0-lin 1-nonlin 2-no                           
   RPACOR =    2.500    partial core radius                                     
   POMASS =  178.490; ZVAL   =    4.000    mass and valenz                      
   RCORE  =    3.000    outmost cutoff radius                                   
   RWIGS  =    3.050; RWIGS  =    1.614    wigner-seitz radius (au A)           
   ENMAX  =  220.334; ENMIN  =  165.250 eV                                      
   RCLOC  =    2.212    cutoff for local pot                                    
   LCOR   =        T    correct aug charges                                     
   LPAW   =        T    paw PP                                                  
   EAUG   =  335.116                                                            
   DEXC   =    0.000                                                            
   RMAX   =    3.077    core radius for proj-oper                               
   RAUG   =    1.300    factor for augmentation sphere                          
   RDEP   =    3.047    radius for radial grids                                 
   RDEPT  =    2.344    core radius for aug-charge                              
                                                                                
   Atomic configuration                                                         
   16 entries                                                                   
     n  l   j            E        occ.                                          
     1  0  0.50    -65259.4397   2.0000                                         
     2  0  0.50    -11157.9882   2.0000                                         
     2  1  1.50     -9795.2113   6.0000                                         
     3  0  0.50     -2541.4058   2.0000                                         
     3  1  1.50     -2134.4770   6.0000                                         
     3  2  2.50     -1653.5418  10.0000                                         
     4  0  0.50      -510.9575   2.0000                                         
     4  1  1.50      -377.5023   6.0000                                         
     4  2  2.50      -205.2085  10.0000                                         
     4  3  3.50       -15.4905  14.0000                                         
     5  0  0.50       -65.6020   2.0000                                         
     5  1  1.50       -34.2798   6.0000                                         
     5  2  2.50        -1.9877   3.0000                                         
     6  0  0.50        -4.7357   1.0000                                         
     6  1  1.50        -1.3606   0.0000                                         
     5  3  2.50        -1.3606   0.0000                                         
   Description                                                                  
     l       E           TYP  RCUT    TYP  RCUT                                 
     2     -1.9876627     23  2.500                                             
     2      0.0744703     23  2.500                                             
     0     -4.7356889     23  2.600                                             
     0      3.2364747     23  2.600                                             
     1     -1.3605826     23  3.000                                             
     1     27.2116520     23  3.000                                             
  local pseudopotential read in
  partial core-charges read in
  partial kinetic energy density read in
  atomic valenz-charges read in
  non local Contribution for L=           2  read in
    real space projection operators read in
  non local Contribution for L=           2  read in
    real space projection operators read in
  non local Contribution for L=           0  read in
    real space projection operators read in
  non local Contribution for L=           0  read in
    real space projection operators read in
  non local Contribution for L=           1  read in
    real space projection operators read in
  non local Contribution for L=           1  read in
    real space projection operators read in
    PAW grid and wavefunctions read in
 
   number of l-projection  operators is LMAX  =           6
   number of lm-projection operators is LMMAX =          18
 
 POTCAR:    PAW_PBE Nb_sv 25May2007               
   VRHFIN =Nb: 4p5s4d                                                           
   LEXCH  = PE                                                                  
   EATOM  =  1555.1913 eV,  114.3033 Ry                                         
                                                                                
   TITEL  = PAW_PBE Nb_sv 25May2007                                             
   LULTRA =        F    use ultrasoft PP ?                                      
   IUNSCR =        1    unscreen: 0-lin 1-nonlin 2-no                           
   RPACOR =    1.800    partial core radius                                     
   POMASS =   92.910; ZVAL   =   13.000    mass and valenz                      
   RCORE  =    2.400    outmost cutoff radius                                   
   RWIGS  =    2.400; RWIGS  =    1.270    wigner-seitz radius (au A)           
   ENMAX  =  293.235; ENMIN  =  219.927 eV                                      
   ICORE  =        3    local potential                                         
   LCOR   =        T    correct aug charges                                     
   LPAW   =        T    paw PP                                                  
   EAUG   =  455.659                                                            
   DEXC   =    0.000                                                            
   RMAX   =    2.456    core radius for proj-oper                               
   RAUG   =    1.300    factor for augmentation sphere                          
   RDEP   =    2.451    radius for radial grids                                 
   RDEPT  =    1.956    core radius for aug-charge                              
                                                                                
   Atomic configuration                                                         
   11 entries                                                                   
     n  l   j            E        occ.                                          
     1  0  0.50    -18805.2457   2.0000                                         
     2  0  0.50     -2630.2869   2.0000                                         
     2  1  1.50     -2348.4046   6.0000                                         
     3  0  0.50      -438.8757   2.0000                                         
     3  1  1.50      -346.7588   6.0000                                         
     3  2  2.50      -196.2560  10.0000                                         
     4  0  0.50       -58.3859   2.0000                                         
     5  0  0.50        -3.9816   1.0000                                         
     4  1  1.50       -34.5141   6.0000                                         
     4  2  2.50        -3.0408   4.0000                                         
     4  3  2.50        -1.3606   0.0000                                         
   Description                                                                  
     l       E           TYP  RCUT    TYP  RCUT                                 
     0    -58.3859094     23  2.200                                             
     0     -3.9816262     23  2.200                                             
     1    -34.5140738     23  2.200                                             
     1     13.6058260     23  2.200                                             
     2     -3.0408010     23  2.200                                             
     2     -0.1283038     23  2.200                                             
     3     -1.3605826     23  2.400                                             
  local pseudopotential read in
  partial core-charges read in
  partial kinetic energy density read in
  atomic valenz-charges read in
  non local Contribution for L=           0  read in
    real space projection operators read in
  non local Contribution for L=           0  read in
    real space projection operators read in
  non local Contribution for L=           1  read in
    real space projection operators read in
  non local Contribution for L=           1  read in
    real space projection operators read in
  non local Contribution for L=           2  read in
    real space projection operators read in
  non local Contribution for L=           2  read in
    real space projection operators read in
    PAW grid and wavefunctions read in
 
   number of l-projection  operators is LMAX  =           6
   number of lm-projection operators is LMMAX =          18
 
 POTCAR:    PAW_PBE Ta 17Jan2003                  
   VRHFIN =Ta:  6s5d                                                            
   LEXCH  = PE                                                                  
   EATOM  =   130.6506 eV,    9.6025 Ry                                         
                                                                                
   TITEL  = PAW_PBE Ta 17Jan2003                                                
   LULTRA =        F    use ultrasoft PP ?                                      
   IUNSCR =        1    unscreen: 0-lin 1-nonlin 2-no                           
   RPACOR =    2.330    partial core radius                                     
   POMASS =  180.948; ZVAL   =    5.000    mass and valenz                      
   RCORE  =    2.900    outmost cutoff radius                                   
   RWIGS  =    2.840; RWIGS  =    1.503    wigner-seitz radius (au A)           
   ENMAX  =  223.667; ENMIN  =  167.750 eV                                      
   RCLOC  =    2.205    cutoff for local pot                                    
   LCOR   =        T    correct aug charges                                     
   LPAW   =        T    paw PP                                                  
   EAUG   =  332.075                                                            
   DEXC   =    0.000                                                            
   RMAX   =    2.970    core radius for proj-oper                               
   RAUG   =    1.300    factor for augmentation sphere                          
   RDEP   =    3.060    radius for radial grids                                 
   RDEPT  =    2.354    core radius for aug-charge                              
                                                                                
   Atomic configuration                                                         
   16 entries                                                                   
     n  l   j            E        occ.                                          
     1  0  0.50    -67341.2807   2.0000                                         
     2  0  0.50    -11566.9376   2.0000                                         
     2  1  1.50    -10134.1182   6.0000                                         
     3  0  0.50     -2648.5620   2.0000                                         
     3  1  1.50     -2222.6012   6.0000                                         
     3  2  2.50     -1726.3120  10.0000                                         
     4  0  0.50      -538.6961   2.0000                                         
     4  1  1.50      -399.0129   6.0000                                         
     4  2  2.50      -220.3959  10.0000                                         
     4  3  3.50       -23.0374  14.0000                                         
     5  0  0.50       -71.2901   2.0000                                         
     5  1  1.50       -37.8225   6.0000                                         
     5  2  2.50        -2.6455   4.0000                                         
     6  0  0.50        -4.9623   1.0000                                         
     6  1  1.50        -1.3606   0.0000                                         
     5  3  2.50        -1.3606   0.0000                                         
   Description                                                                  
     l       E           TYP  RCUT    TYP  RCUT                                 
     2     -2.6455043     23  2.500                                             
     2     -0.6258895     23  2.500                                             
     0     -4.9622780     23  2.500                                             
     0      4.7531321     23  2.500                                             
     1     -1.3605826     23  2.900                                             
     1     27.2116520     23  2.900                                             
  local pseudopotential read in
  partial core-charges read in
  partial kinetic energy density read in
  atomic valenz-charges read in
  non local Contribution for L=           2  read in
    real space projection operators read in
  non local Contribution for L=           2  read in
    real space projection operators read in
  non local Contribution for L=           0  read in
    real space projection operators read in
  non local Contribution for L=           0  read in
    real space projection operators read in
  non local Contribution for L=           1  read in
    real space projection operators read in
  non local Contribution for L=           1  read in
    real space projection operators read in
    PAW grid and wavefunctions read in
 
   number of l-projection  operators is LMAX  =           6
   number of lm-projection operators is LMMAX =          18
 
 POTCAR:    PAW_PBE Zr_sv 04Jan2005               
   VRHFIN =Zr: 4s4p5s4d                                                         
   LEXCH  = PE                                                                  
   EATOM  =  1284.2219 eV,   94.3876 Ry                                         
                                                                                
   TITEL  = PAW_PBE Zr_sv 04Jan2005                                             
   LULTRA =        F    use ultrasoft PP ?                                      
   IUNSCR =        1    unscreen: 0-lin 1-nonlin 2-no                           
   RPACOR =    2.200    partial core radius                                     
   POMASS =   91.224; ZVAL   =   12.000    mass and valenz                      
   RCORE  =    2.500    outmost cutoff radius                                   
   RWIGS  =    3.070; RWIGS  =    1.625    wigner-seitz radius (au A)           
   ENMAX  =  229.898; ENMIN  =  172.424 eV                                      
   ICORE  =        3    local potential                                         
   LCOR   =        T    correct aug charges                                     
   LPAW   =        T    paw PP                                                  
   EAUG   =  461.257                                                            
   DEXC   =    0.000                                                            
   RMAX   =    2.561    core radius for proj-oper                               
   RAUG   =    1.300    factor for augmentation sphere                          
   RDEP   =    2.597    radius for radial grids                                 
   RDEPT  =    2.007    core radius for aug-charge                              
                                                                                
   Atomic configuration                                                         
   11 entries                                                                   
     n  l   j            E        occ.                                          
     1  0  0.50    -17820.0161   2.0000                                         
     2  0  0.50     -2467.0882   2.0000                                         
     2  1  1.50     -2199.6095   6.0000                                         
     3  0  0.50      -402.4863   2.0000                                         
     3  1  1.50      -315.3675   6.0000                                         
     3  2  2.50      -172.4472  10.0000                                         
     4  0  0.50       -52.4146   2.0000                                         
     5  0  0.50        -3.8421   1.0000                                         
     4  1  1.50       -30.5054   6.0000                                         
     4  2  2.50        -2.3341   3.0000                                         
     4  3  2.50        -1.3606   0.0000                                         
   Description                                                                  
     l       E           TYP  RCUT    TYP  RCUT                                 
     0    -52.4145962     23  2.200                                             
     0     -3.8421270     23  2.500                                             
     1    -30.5053914     23  2.200                                             
     1     20.4087390     23  2.200                                             
     2     -2.3340816     23  2.500                                             
     2     -0.6120942     23  2.500                                             
     3     -4.0817478     23  2.500                                             
  local pseudopotential read in
  partial core-charges read in
  partial kinetic energy density read in
  atomic valenz-charges read in
  non local Contribution for L=           0  read in
    real space projection operators read in
  non local Contribution for L=           0  read in
    real space projection operators read in
  non local Contribution for L=           1  read in
    real space projection operators read in
  non local Contribution for L=           1  read in
    real space projection operators read in
  non local Contribution for L=           2  read in
    real space projection operators read in
  non local Contribution for L=           2  read in
    real space projection operators read in
    PAW grid and wavefunctions read in
 
   number of l-projection  operators is LMAX  =           6
   number of lm-projection operators is LMMAX =          18
 
 Optimization of the real space projectors (new method)

 maximal supplied QI-value         = 12.47
 optimisation between [QCUT,QGAM] = [  8.86, 17.71] = [ 21.96, 87.83] Ry 
 Optimized for a Real-space Cutoff    1.90 Angstroem

   l    n(q)    QCUT    max X(q) W(low)/X(q) W(high)/X(q)  e(spline) 
   2      9     8.855    48.111    0.22E-03    0.80E-04    0.10E-05
   2      9     8.855    40.545    0.21E-03    0.76E-04    0.95E-06
   0     10     8.855   121.658    0.27E-04    0.12E-04    0.11E-06
   0     10     8.855    71.177    0.22E-04    0.11E-04    0.99E-07
   1     10     8.855    14.183    0.65E-04    0.10E-03    0.98E-07
   1     10     8.855     8.257    0.43E-04    0.73E-04    0.72E-07
 Optimization of the real space projectors (new method)

 maximal supplied QI-value         = 15.68
 optimisation between [QCUT,QGAM] = [  8.78, 17.72] = [ 21.60, 87.97] Ry 
 Optimized for a Real-space Cutoff    1.96 Angstroem

   l    n(q)    QCUT    max X(q) W(low)/X(q) W(high)/X(q)  e(spline) 
   0     10     8.783    10.201    0.29E-04    0.25E-05    0.69E-07
   0     10     8.783     8.174    0.45E-04    0.57E-05    0.14E-06
   1     10     8.783     3.488    0.76E-05    0.24E-04    0.95E-07
   1     10     8.783     4.917    0.78E-04    0.14E-03    0.46E-06
   2      9     8.783   153.744    0.22E-03    0.34E-04    0.15E-05
   2      9     8.783   126.342    0.22E-03    0.35E-04    0.15E-05
 Optimization of the real space projectors (new method)

 maximal supplied QI-value         = 12.85
 optimisation between [QCUT,QGAM] = [  8.87, 17.73] = [ 22.01, 88.06] Ry 
 Optimized for a Real-space Cutoff    1.90 Angstroem

   l    n(q)    QCUT    max X(q) W(low)/X(q) W(high)/X(q)  e(spline) 
   2      9     8.867    62.315    0.23E-03    0.62E-04    0.11E-05
   2      9     8.867    52.185    0.23E-03    0.62E-04    0.11E-05
   0     10     8.867   103.837    0.15E-04    0.23E-04    0.98E-07
   0     10     8.867    59.728    0.12E-04    0.21E-04    0.89E-07
   1     10     8.867    13.958    0.50E-04    0.22E-04    0.14E-06
   1     10     8.867     8.441    0.36E-04    0.19E-04    0.98E-07
 Optimization of the real space projectors (new method)

 maximal supplied QI-value         = 15.12
 optimisation between [QCUT,QGAM] = [  8.77, 17.69] = [ 21.53, 87.61] Ry 
 Optimized for a Real-space Cutoff    1.74 Angstroem

   l    n(q)    QCUT    max X(q) W(low)/X(q) W(high)/X(q)  e(spline) 
   0      9     8.768    12.107    0.28E-04    0.53E-06    0.29E-07
   0      9     8.768     9.948    0.36E-04    0.50E-05    0.64E-07
   1      9     8.768     3.563    0.14E-04    0.16E-04    0.88E-07
   1      9     8.768     4.524    0.21E-03    0.33E-03    0.19E-06
   2      8     8.768    87.261    0.19E-03    0.25E-03    0.24E-06
   2      8     8.768    70.950    0.19E-03    0.24E-03    0.24E-06
  PAW_PBE Hf 20Jan2003                  :
 energy of atom  1       EATOM=  -75.9011
 kinetic energy error for atom=    0.0071 (will be added to EATOM!!)
  PAW_PBE Nb_sv 25May2007               :
 energy of atom  2       EATOM=-1555.1913
 kinetic energy error for atom=    0.0655 (will be added to EATOM!!)
  PAW_PBE Ta 17Jan2003                  :
 energy of atom  3       EATOM= -130.6506
 kinetic energy error for atom=    0.0121 (will be added to EATOM!!)
  PAW_PBE Zr_sv 04Jan2005               :
 energy of atom  4       EATOM=-1284.2219
 kinetic energy error for atom=    0.0483 (will be added to EATOM!!)
 
 
 POSCAR: generated by pypospack                  
  positions in direct lattice
  No initial velocities read in
 exchange correlation table for  LEXCH =        8
   RHO(1)=    0.500       N(1)  =     2000
   RHO(2)=  100.500       N(2)  =     4000
 


--------------------------------------------------------------------------------------------------------


 ion  position               nearest neighbor table
   1  0.476  0.328  1.000-  15 2.86  14 2.90  13 2.98  21 2.99   5 3.06  34 3.09   4 3.10  16 3.13
                             2 3.14  11 3.34  29 3.39  23 3.39   7 3.55
   2  0.767  0.494  0.165-   7 3.03   6 3.05  25 3.06  35 3.06  20 3.08  16 3.08  29 3.13   1 3.14
                             5 3.19  34 3.26   4 3.40  30 3.42  18 3.52   5 3.77
   3  0.269  0.823  0.815-  26 2.91  27 2.95  35 3.01   7 3.01  11 3.08   8 3.12   9 3.13  31 3.17
                            33 3.20  10 3.20  21 3.25  10 3.76
   4  0.752  0.498  0.835-  26 2.97  16 3.01  23 3.03  36 3.03  27 3.04   1 3.10  35 3.10   7 3.16
                            14 3.19  10 3.23   2 3.40  21 3.45  30 3.47  21 3.51
   5  0.225  0.502  0.172-  20 2.90  16 2.94  29 3.00   6 3.00  35 3.01   7 3.03  25 3.04   1 3.06
                             2 3.19  24 3.38  22 3.40  13 3.45  21 3.57   2 3.77
   6  0.990  0.679  0.341-  17 2.84  18 2.85  22 2.91  33 2.98   5 3.00  30 3.00   2 3.05  24 3.07
                            28 3.24  27 3.25  25 3.39  35 3.51  25 3.58  20 3.62
   7  0.497  0.675  0.018-  22 2.92  18 2.95   3 3.01   2 3.03   5 3.03  10 3.05  21 3.15   4 3.16
                            25 3.18  11 3.33  35 3.46  35 3.51   1 3.55  26 3.74
   8  0.520  0.029  0.668-  12 2.92  19 2.93  15 2.94  14 2.95  10 2.98  23 3.08  17 3.09   3 3.12
                            33 3.17   9 3.23  11 3.44  32 3.45   9 3.73
   9  0.984  0.009  0.667-  12 2.93  19 2.95  15 2.99  17 3.00  10 3.03  14 3.04  33 3.11   3 3.13
                             8 3.23  36 3.26  28 3.37  31 3.42  27 3.60   8 3.73
  10  0.729  0.814  0.807-  26 2.92  27 2.98   8 2.98  35 3.02   9 3.03   7 3.05  17 3.11   3 3.20
                            11 3.21   4 3.23  31 3.29   3 3.76
  11  0.496  0.001  0.001-  15 2.99  18 3.03  22 3.04  13 3.06  14 3.06   3 3.08  34 3.11  10 3.21
                             7 3.33   1 3.34  32 3.41  31 3.44   8 3.44  31 3.52
  12  0.762  0.178  0.489-  20 2.78  28 2.92   8 2.92  36 2.93   9 2.93  29 2.95  32 2.98  23 3.08
                            30 3.24  34 3.36
  13  0.226  0.164  0.170-  20 2.82  16 2.87  28 2.91  29 2.92  31 2.94   1 2.98  32 3.01  11 3.06
                            34 3.14   5 3.45
  14  0.757  0.186  0.847-  16 2.79   1 2.90  36 2.93   8 2.95  23 2.98  31 3.03   9 3.04  11 3.06
                             4 3.19  34 3.25
  15  0.245  0.169  0.833-  16 2.74   1 2.86  36 2.87  23 2.89   8 2.94  11 2.99   9 2.99  31 3.00

  16  0.028  0.329  0.987-  15 2.74  14 2.79  13 2.87  21 2.88   5 2.94  34 2.97   4 3.01   2 3.08
                             1 3.13  36 3.30  31 3.45
  17  0.745  0.828  0.505-   6 2.84  25 2.96  28 2.98  27 2.98   9 3.00  32 3.02  26 3.06   8 3.09
                            10 3.11  18 3.30  33 3.38  30 3.40
  18  0.745  0.838  0.184-  25 2.81  32 2.85   6 2.85  28 2.87   7 2.95  35 3.03  11 3.03  31 3.04
                            17 3.30  22 3.41  34 3.44   2 3.52  22 3.54
  19  0.243  0.163  0.499-  20 2.75  29 2.91  28 2.92   8 2.93  36 2.93   9 2.95  32 2.96  23 3.00
                            33 3.33  24 3.41
  20  0.023  0.325  0.345-  19 2.75  12 2.78  13 2.82  24 2.87   5 2.90  34 2.98  30 3.04   2 3.08
                            29 3.19  36 3.31  28 3.36   6 3.62
  21  0.248  0.505  0.825-  26 2.76  27 2.83  16 2.88  23 2.94  36 2.96   1 2.99  35 3.11   7 3.15
                             3 3.25  24 3.34   4 3.45   4 3.51   5 3.57
  22  0.254  0.834  0.185-  25 2.81  32 2.91   6 2.91  28 2.91   7 2.92  35 3.00  31 3.04  11 3.04
                            33 3.27   5 3.40  18 3.41  18 3.54
  23  0.490  0.330  0.670-  15 2.89  24 2.93  21 2.94  14 2.98  19 3.00  30 3.02   4 3.03   8 3.08
                            12 3.08  26 3.15  36 3.37   1 3.39  29 3.50  36 3.59
  24  0.254  0.497  0.500-  26 2.70  27 2.85  20 2.87  23 2.93  29 2.95  36 2.97  25 3.05   6 3.07
                            21 3.34   5 3.38  19 3.41  30 3.41  33 3.46  30 3.54
  25  0.504  0.670  0.327-  18 2.81  22 2.81  17 2.96  30 3.00  33 3.02   5 3.04  24 3.05   2 3.06
                             7 3.18   6 3.39  26 3.40  32 3.43  29 3.53   6 3.58
  26  0.485  0.639  0.656-  24 2.70  21 2.76  30 2.85   3 2.91  10 2.92   4 2.97  33 2.99  17 3.06
                            23 3.15  27 3.29  25 3.40   7 3.74
  27  0.013  0.657  0.657-  21 2.83  24 2.85   3 2.95  33 2.97  10 2.98  17 2.98  30 2.99   4 3.04
                             6 3.25  26 3.29  36 3.35  35 3.54   9 3.60
  28  0.997  0.996  0.340-  18 2.87  13 2.91  22 2.91  12 2.92  19 2.92  33 2.96  17 2.98  34 2.99
                             6 3.24  20 3.36   9 3.37  32 3.43  31 3.50  32 3.53
  29  0.481  0.325  0.330-  19 2.91  13 2.92  24 2.95  12 2.95   5 3.00  30 3.06  34 3.09   2 3.13
                            20 3.19  32 3.25   1 3.39  23 3.50  25 3.53
  30  0.744  0.495  0.497-  26 2.85  27 2.99  25 3.00   6 3.00  23 3.02  36 3.03  20 3.04  29 3.06
                            12 3.24  17 3.40  24 3.41   2 3.42   4 3.47  24 3.54
  31  0.002  0.992  0.999-  13 2.94  34 2.97  15 3.00  14 3.03  22 3.04  18 3.04  35 3.11   3 3.17
                            10 3.29   9 3.42  11 3.44  16 3.45  28 3.50  11 3.52
  32  0.504  0.006  0.333-  18 2.85  22 2.91  19 2.96  12 2.98  33 2.99  13 3.01  17 3.02  34 3.09
                            29 3.25  11 3.41  25 3.43  28 3.43   8 3.45  28 3.53
  33  0.260  0.836  0.503-  28 2.96  27 2.97   6 2.98  26 2.99  32 2.99  25 3.02   9 3.11   8 3.17
                             3 3.20  22 3.27  19 3.33  17 3.38  24 3.46
  34  0.775  0.174  0.163-  31 2.97  16 2.97  20 2.98  28 2.99   1 3.09  29 3.09  32 3.09  11 3.11
                            13 3.14  14 3.25   2 3.26  12 3.36  18 3.44
  35  0.001  0.687  0.000-  22 3.00   3 3.01   5 3.01  10 3.02  18 3.03   2 3.06   4 3.10  21 3.11
                            31 3.11   7 3.46   6 3.51   7 3.51  27 3.54
  36  0.006  0.328  0.667-  15 2.87  14 2.93  12 2.93  19 2.93  21 2.96  24 2.97   4 3.03  30 3.03
                             9 3.26  16 3.30  20 3.31  27 3.35  23 3.37  23 3.59
 
  LATTYP: Found a triclinic cell.
 ALAT       =    20.0806007300
 B/A-ratio  =     0.3464344480
 C/A-ratio  =     0.5081303129
 COS(alpha) =     0.0012205220
 COS(beta)  =     0.5059015501
 COS(gamma) =     0.6950577838
  
  Lattice vectors:
  
 A1 = ( -13.9354276173, -10.1808563763,  10.2656975528)
 A2 = (  -6.9566023481,  -0.0040305545,   0.0107547964)
 A3 = (  -0.0065895575, -10.2035132804,  -0.0308127909)


Analysis of symmetry for initial positions (statically):
=====================================================================
 Subroutine PRICEL returns:
 Original cell was already a primitive cell.
 

 Routine SETGRP: Setting up the symmetry group for a 
 triclinic supercell.


 Subroutine GETGRP returns: Found  1 space group operations
 (whereof  1 operations were pure point group operations)
 out of a pool of  2 trial point group operations.


The static configuration has the point symmetry C_1 .


Analysis of symmetry for dynamics (positions and initial velocities):
=====================================================================
 Subroutine PRICEL returns:
 Original cell was already a primitive cell.
 

 Routine SETGRP: Setting up the symmetry group for a 
 triclinic supercell.


 Subroutine GETGRP returns: Found  1 space group operations
 (whereof  1 operations were pure point group operations)
 out of a pool of  2 trial point group operations.


The dynamic configuration has the point symmetry C_1 .


 Subroutine INISYM returns: Found  1 space group operations
 (whereof  1 operations are pure point group operations),
 and found     1 'primitive' translations

 
 
 KPOINTS: k-points                                

Automatic generation of k-mesh.
Space group operators:
 irot       det(A)        alpha          n_x          n_y          n_z        tau_x        tau_y        tau_z
    1     1.000000     0.000000     1.000000     0.000000     0.000000     0.000000     0.000000     0.000000
 
 Subroutine IBZKPT returns following result:
 ===========================================
 
 Found     14 irreducible k-points:
 
 Following reciprocal coordinates:
            Coordinates               Weight
  0.000000  0.000000  0.000000      1.000000
  0.333333  0.000000  0.000000      2.000000
  0.000000  0.333333 -0.000000      2.000000
  0.333333  0.333333 -0.000000      2.000000
 -0.333333  0.333333  0.000000      2.000000
 -0.000000  0.000000  0.333333      2.000000
  0.333333 -0.000000  0.333333      2.000000
 -0.333333  0.000000  0.333333      2.000000
 -0.000000  0.333333  0.333333      2.000000
  0.333333  0.333333  0.333333      2.000000
 -0.333333  0.333333  0.333333      2.000000
  0.000000 -0.333333  0.333333      2.000000
  0.333333 -0.333333  0.333333      2.000000
 -0.333333 -0.333333  0.333333      2.000000
 
 Following cartesian coordinates:
            Coordinates               Weight
  0.000000  0.000000  0.000000      1.000000
  0.239021 -0.000155  0.000364      2.000000
 -0.000095  0.162962 -0.000487      2.000000
  0.238926  0.162807 -0.000123      2.000000
 -0.239116  0.163118 -0.000851      2.000000
  0.000250 -0.000489  0.161829      2.000000
  0.239272 -0.000644  0.162193      2.000000
 -0.238771 -0.000333  0.161464      2.000000
  0.000155  0.162473  0.161341      2.000000
  0.239176  0.162318  0.161705      2.000000
 -0.238866  0.162629  0.160977      2.000000
  0.000346 -0.163451  0.162316      2.000000
  0.239367 -0.163606  0.162680      2.000000
 -0.238675 -0.163295  0.161952      2.000000
 


--------------------------------------------------------------------------------------------------------




 Dimension of arrays:
   k-points           NKPTS =     14   k-points in BZ     NKDIM =     14   number of bands    NBANDS=    164
   number of dos      NEDOS =    301   number of ions     NIONS =     36
   non local maximal  LDIM  =      6   non local SUM 2l+1 LMDIM =     18
   total plane-waves  NPLWV = 144000
   max r-space proj   IRMAX =   6282   max aug-charges    IRDMAX=  13638
   dimension x,y,z NGX =    40 NGY =   60 NGZ =   60
   dimension x,y,z NGXF=    80 NGYF=  120 NGZF=  120
   support grid    NGXF=    80 NGYF=  120 NGZF=  120
   ions per type =              11   6  11   8
 NGX,Y,Z   is equivalent  to a cutoff of   9.56,  9.78,  9.71 a.u.
 NGXF,Y,Z  is equivalent  to a cutoff of  19.12, 19.55, 19.42 a.u.


 I would recommend the setting:
   dimension x,y,z NGX =    39 NGY =   58 NGZ =   58
 SYSTEM =  automatically generated by mexm         
 POSCAR =  generated by pypospack                  

 Startparameter for this run:
   NWRITE =      2    write-flag & timer
   PREC   = accura    normal or accurate (medium, high low for compatibility)
   ISTART =      0    job   : 0-new  1-cont  2-samecut
   ICHARG =      2    charge: 1-file 2-atom 10-const
   ISPIN  =      1    spin polarized calculation?
   LNONCOLLINEAR =      F non collinear calculations
   LSORBIT =      F    spin-orbit coupling
   INIWAV =      1    electr: 0-lowe 1-rand  2-diag
   LASPH  =      F    aspherical Exc in radial PAW
   METAGGA=      F    non-selfconsistent MetaGGA calc.

 Electronic Relaxation 1
   ENCUT  =  300.0 eV  22.05 Ry    4.70 a.u.   9.82 14.41 14.51*2*pi/ulx,y,z
   ENINI  =  300.0     initial cutoff
   ENAUG  =  461.3 eV  augmentation charge cutoff
   NELM   =     70;   NELMIN=  2; NELMDL= -5     # of ELM steps 
   EDIFF  = 0.1E-04   stopping-criterion for ELM
   LREAL  =      T    real-space projection
   NLSPLINE    = F    spline interpolate recip. space projectors
   LCOMPAT=      F    compatible to vasp.4.4
   GGA_COMPAT  = T    GGA compatible to vasp.4.4-vasp.4.6
   LMAXPAW     = -100 max onsite density
   LMAXMIX     =    2 max onsite mixed and CHGCAR
   VOSKOWN=      0    Vosko Wilk Nusair interpolation
   ROPT   =   -0.00025  -0.00025  -0.00025  -0.00025
 Ionic relaxation
   EDIFFG = -.1E-01   stopping-criterion for IOM
   NSW    =    300    number of steps for IOM
   NBLOCK =      1;   KBLOCK =    300    inner block; outer block 
   IBRION =      2    ionic relax: 0-MD 1-quasi-New 2-CG
   NFREE  =      1    steps in history (QN), initial steepest desc. (CG)
   ISIF   =      3    stress and relaxation
   IWAVPR =     11    prediction:  0-non 1-charg 2-wave 3-comb
   ISYM   =      1    0-nonsym 1-usesym 2-fastsym
   LCORR  =      T    Harris-Foulkes like correction to forces

   POTIM  = 0.1500    time-step for ionic-motion
   TEIN   =    0.0    initial temperature
   TEBEG  =    0.0;   TEEND  =   0.0 temperature during run
   SMASS  =  -3.00    Nose mass-parameter (am)
   estimated Nose-frequenzy (Omega)   =  0.10E-29 period in steps =****** mass=  -0.111E-26a.u.
   SCALEE = 1.0000    scale energy and forces
   NPACO  =    256;   APACO  = 16.0  distance and # of slots for P.C.
   PSTRESS=    0.0 pullay stress

  Mass of Ions in am
   POMASS = 178.49 92.91180.95 91.22
  Ionic Valenz
   ZVAL   =   4.00 13.00  5.00 12.00
  Atomic Wigner-Seitz radii
   RWIGS  =  -1.00 -1.00 -1.00 -1.00
  virtual crystal weights 
   VCA    =   1.00  1.00  1.00  1.00
   NELECT =     273.0000    total number of electrons
   NUPDOWN=      -1.0000    fix difference up-down

 DOS related values:
   EMIN   =  10.00;   EMAX   =-10.00  energy-range for DOS
   EFERMI =   0.00
   ISMEAR =     1;   SIGMA  =   0.15  broadening in eV -4-tet -1-fermi 0-gaus

 Electronic relaxation 2 (details)
   IALGO  =     68    algorithm
   LDIAG  =      T    sub-space diagonalisation (order eigenvalues)
   LSUBROT=      F    optimize rotation matrix (better conditioning)
   TURBO    =      0    0=normal 1=particle mesh
   IRESTART =      0    0=no restart 2=restart with 2 vectors
   NREBOOT  =      0    no. of reboots
   NMIN     =      0    reboot dimension
   EREF     =   0.00    reference energy to select bands
   IMIX   =      4    mixing-type and parameters
     AMIX     =   0.40;   BMIX     =  1.00
     AMIX_MAG =   1.60;   BMIX_MAG =  1.00
     AMIN     =   0.10
     WC   =   100.;   INIMIX=   1;  MIXPRE=   1;  MAXMIX= -45

 Intra band minimization:
   WEIMIN = 0.0010     energy-eigenvalue tresh-hold
   EBREAK =  0.15E-07  absolut break condition
   DEPER  =   0.30     relativ break condition  

   TIME   =   0.40     timestep for ELM

  volume/ion in A,a.u.               =      20.26       136.72
  Fermi-wavevector in a.u.,A,eV,Ry     =   1.179835  2.229564 18.939444  1.392010
  Thomas-Fermi vector in A             =   2.316138
 
 Write flags
   LWAVE  =      F    write WAVECAR
   LCHARG =      F    write CHGCAR
   LVTOT  =      F    write LOCPOT, total local potential
   LVHAR  =      F    write LOCPOT, Hartree potential only
   LELF   =      F    write electronic localiz. function (ELF)
   LORBIT =      0    0 simple, 1 ext, 2 COOP (PROOUT)


 Dipole corrections
   LMONO  =      F    monopole corrections only (constant potential shift)
   LDIPOL =      F    correct potential (dipole corrections)
   IDIPOL =      0    1-x, 2-y, 3-z, 4-all directions 
   EPSILON=  1.0000000 bulk dielectric constant

 Exchange correlation treatment:
   GGA     =    --    GGA type
   LEXCH   =     8    internal setting for exchange type
   VOSKOWN=      0    Vosko Wilk Nusair interpolation
   LHFCALC =     F    Hartree Fock is set to
   LHFONE  =     F    Hartree Fock one center treatment
   AEXX    =    0.0000 exact exchange contribution

 Linear response parameters
   LEPSILON=     F    determine dielectric tensor
   LRPA    =     F    only Hartree local field effects (RPA)
   LNABLA  =     F    use nabla operator in PAW spheres
   LVEL    =     F    velocity operator in full k-point grid
   LINTERFAST=   F  fast interpolation
   KINTER  =     0    interpolate to denser k-point grid
   CSHIFT  =0.1000    complex shift for real part using Kramers Kronig
   OMEGAMAX=  -1.0    maximum frequency
   DEG_THRESHOLD= 0.2000000E-02 threshold for treating states as degnerate
   RTIME   =    0.100 relaxation time in fs

 Orbital magnetization related:
   ORBITALMAG=     F  switch on orbital magnetization
   LCHIMAG   =     F  perturbation theory with respect to B field
   DQ        =  0.001000  dq finite difference perturbation B field



--------------------------------------------------------------------------------------------------------


 conjugate gradient relaxation of ions
 charge density and potential will be updated during run
 non-spin polarized calculation
 RMM-DIIS sequential band-by-band and
  variant of blocked Davidson during initial phase
 perform sub-space diagonalisation
    before iterative eigenvector-optimisation
 modified Broyden-mixing scheme, WC =      100.0
 initial mixing is a Kerker type mixing with AMIX =  0.4000 and BMIX =      1.0000
 Hartree-type preconditioning will be used
 using additional bands           27
 real space projection scheme for non local part
 use partial core corrections
 calculate Harris-corrections to forces 
   (improved forces if not selfconsistent)
 use gradient corrections 
 use of overlap-Matrix (Vanderbilt PP)
 Methfessel and Paxton  Order N= 1 SIGMA  =   0.15


--------------------------------------------------------------------------------------------------------


  energy-cutoff  :      300.00
  volume of cell :      729.33
      direct lattice vectors                 reciprocal lattice vectors
     6.956602348  0.004030554 -0.010754796     0.143748727 -0.000093496  0.000218993
     0.006589558 10.203513280  0.030812791    -0.000057237  0.098006381 -0.000293086
    -0.015633364  0.030718013 10.275000751     0.000150633 -0.000294001  0.097324702

  length of vectors
     6.956611829 10.203561933 10.275058561     0.143748924  0.098006836  0.097325263


 
 k-points in units of 2pi/SCALE and weight: k-points                                
   0.00000000  0.00000000  0.00000000       0.037
   0.23902107 -0.00015546  0.00036413       0.074
  -0.00009517  0.16296207 -0.00048733       0.074
   0.23892590  0.16280661 -0.00012320       0.074
  -0.23911624  0.16311753 -0.00085147       0.074
   0.00025047 -0.00048886  0.16182859       0.074
   0.23927154 -0.00064432  0.16219273       0.074
  -0.23877060 -0.00033339  0.16146446       0.074
   0.00015530  0.16247321  0.16134126       0.074
   0.23917637  0.16231775  0.16170539       0.074
  -0.23886577  0.16262868  0.16097713       0.074
   0.00034564 -0.16345093  0.16231593       0.074
   0.23936671 -0.16360639  0.16268006       0.074
  -0.23867543 -0.16329546  0.16195179       0.074
 
 k-points in reciprocal lattice and weights: k-points                                
   0.00000000  0.00000000  0.00000000       0.037
   0.33333333  0.00000000  0.00000000       0.074
   0.00000000  0.33333333 -0.00000000       0.074
   0.33333333  0.33333333 -0.00000000       0.074
  -0.33333333  0.33333333  0.00000000       0.074
  -0.00000000  0.00000000  0.33333333       0.074
   0.33333333 -0.00000000  0.33333333       0.074
  -0.33333333  0.00000000  0.33333333       0.074
  -0.00000000  0.33333333  0.33333333       0.074
   0.33333333  0.33333333  0.33333333       0.074
  -0.33333333  0.33333333  0.33333333       0.074
   0.00000000 -0.33333333  0.33333333       0.074
   0.33333333 -0.33333333  0.33333333       0.074
  -0.33333333 -0.33333333  0.33333333       0.074
 
 position of ions in fractional coordinates (direct lattice) 
   0.47648600  0.32795500  0.99991200
   0.76665200  0.49383300  0.16518900
   0.26883400  0.82253500  0.81460400
   0.75243200  0.49835800  0.83462100
   0.22523700  0.50194100  0.17204900
   0.99037100  0.67876600  0.34136100
   0.49693300  0.67481400  0.01756400
   0.52027300  0.02854600  0.66826700
   0.98424800  0.00897000  0.66667500
   0.72919900  0.81385900  0.80704100
   0.49575800  0.00054900  0.00118500
   0.76249900  0.17760300  0.48940100
   0.22587100  0.16367700  0.17030700
   0.75706700  0.18555900  0.84716900
   0.24530300  0.16949600  0.83320700
   0.02758700  0.32919200  0.98726100
   0.74489800  0.82774400  0.50452100
   0.74479400  0.83835700  0.18382700
   0.24334000  0.16264800  0.49882400
   0.02281400  0.32481600  0.34496600
   0.24796500  0.50495000  0.82539900
   0.25410500  0.83428200  0.18512100
   0.49033400  0.32986800  0.67021300
   0.25387300  0.49690500  0.50018400
   0.50425200  0.67008000  0.32688500
   0.48530000  0.63880400  0.65581700
   0.01261700  0.65674200  0.65687700
   0.99736800  0.99608300  0.33951700
   0.48101800  0.32471700  0.32962700
   0.74435800  0.49491000  0.49736400
   0.00209300  0.99207400  0.99891700
   0.50436300  0.00617100  0.33321900
   0.25984100  0.83631200  0.50336000
   0.77505700  0.17398900  0.16274900
   0.00075700  0.68681500  0.00029000
   0.00610400  0.32809500  0.66650800
 
 position of ions in cartesian coordinates  (Angst):
   3.30125272  3.37892901 10.27907725
   5.33396478  5.04699588  1.70428829
   1.86285638  8.41885336  8.39251006
   5.22460624  5.11367309  8.58299495
   1.56750211  5.12775449  1.78084743
   6.88875337  6.94027557  3.51774797
   3.46113742  6.88801606  0.19591860
   3.60907322  0.31389431  6.86172808
   6.83665868  0.11597151  6.83977713
   5.06549368  8.33195089  8.30958176
   3.44877636  0.00763631  0.00686102
   5.29792168  1.83028129  5.02586757
   1.56971082  1.67622232  1.75251870
   5.25459272  1.92242847  8.70223760
   1.69456650  1.75603786  8.56378701
   0.17864681  3.38935283 10.15395415
   5.17952628  8.46439713  5.20144753
   5.18388626  8.56283552  1.90664457
   1.68609310  1.67588471  5.12781154
   0.15545534  3.32495299  3.55428904
   1.71541754  5.17861808  8.49386745
   1.77031092  8.51931820  1.92509212
   3.40275466  3.38837645  6.89132979
   1.76154833  5.08656467  5.15197165
   3.50718587  6.84924385  3.37396753
   3.36999593  6.54014652  6.75298420
   0.08182989  6.72130453  6.76951203
   6.93954852 10.17799535  3.50850304
   3.34323751  3.32531848  3.39174986
   5.17368838  5.06809897  5.11765961
   0.00548106 10.15333342 10.29441898
   3.50348416  0.07523457  3.41859130
   1.80525223  8.54983012  5.19499895
   5.39036554  1.78342231  1.66927160
   0.00978742  7.00793793  0.02413430
   0.03420534  3.36822009  6.85841408
 


--------------------------------------------------------------------------------------------------------


 k-point  1 :   0.0000 0.0000 0.0000  plane waves:    8641
 k-point  2 :   0.3333 0.0000 0.0000  plane waves:    8619
 k-point  3 :   0.0000 0.3333-0.0000  plane waves:    8618
 k-point  4 :   0.3333 0.3333-0.0000  plane waves:    8611
 k-point  5 :  -0.3333 0.3333 0.0000  plane waves:    8607
 k-point  6 :  -0.0000 0.0000 0.3333  plane waves:    8608
 k-point  7 :   0.3333-0.0000 0.3333  plane waves:    8599
 k-point  8 :  -0.3333 0.0000 0.3333  plane waves:    8605
 k-point  9 :  -0.0000 0.3333 0.3333  plane waves:    8591
 k-point 10 :   0.3333 0.3333 0.3333  plane waves:    8617
 k-point 11 :  -0.3333 0.3333 0.3333  plane waves:    8607
 k-point 12 :   0.0000-0.3333 0.3333  plane waves:    8605
 k-point 13 :   0.3333-0.3333 0.3333  plane waves:    8605
 k-point 14 :  -0.3333-0.3333 0.3333  plane waves:    8603

 maximum and minimum number of plane-waves per node :      1750     1694

 maximum number of plane-waves:      8641
 maximum index in each direction: 
   IXMAX=   10   IYMAX=   14   IZMAX=   14
   IXMIN=  -10   IYMIN=  -14   IZMIN=  -14

 WARNING: aliasing errors must be expected set NGX to  42 to avoid them
 NGY is ok and might be reduce to  58
 NGZ is ok and might be reduce to  58
 aliasing errors are usually negligible using standard VASP settings
 and one can safely disregard these warnings

 real space projection operators:
  total allocation   :      26990.16 KBytes
  max/ min on nodes  :       5458.36       5320.83


 parallel 3D FFT for wavefunctions:
    minimum data exchange during FFTs selected (reduces bandwidth)
 parallel 3D FFT for charge:
    minimum data exchange during FFTs selected (reduces bandwidth)


 total amount of memory used by VASP on root node    66005. kBytes
========================================================================

   base      :      30000. kBytes
   nonlr-proj:      10368. kBytes
   fftplans  :       2814. kBytes
   grid      :       5360. kBytes
   one-center:        124. kBytes
   wavefun   :      17339. kBytes
 
     INWAV:  cpu time    0.0000: real time    0.0000
 Broyden mixing: mesh for mixing (old mesh)
   NGX = 19   NGY = 29   NGZ = 29
  (NGX  = 80   NGY  =120   NGZ  =120)
  gives a total of  15979 points

 initial charge density was supplied:
 charge density of overlapping atoms calculated
 number of electron     273.0000000 magnetization 
 keeping initial charge density in first step


--------------------------------------------------------------------------------------------------------


 Maximum index for non-local projection operator         1223
 Maximum index for augmentation-charges          682 (set IRDMAX)


--------------------------------------------------------------------------------------------------------


 First call to EWALD:  gamma=   0.197
 Maximum number of real-space cells 3x 2x 2
 Maximum number of reciprocal cells 2x 3x 3

 FEWALD executed in parallel
    FEWALD:  cpu time    0.0463: real time    0.0464


----------------------------------------- Iteration    1(   1)  ---------------------------------------


    POTLOK:  cpu time    0.0497: real time    0.0981
    SETDIJ:  cpu time    0.2341: real time    0.2348
     EDDAV:  cpu time    1.0274: real time    1.0429
       DOS:  cpu time    0.0044: real time    0.0044
    --------------------------------------------
      LOOP:  cpu time    1.3242: real time    1.5290

 eigenvalue-minimisations  :  4992
 total energy-change (2. order) : 0.1572931E+04  (-0.9950304E+04)
 number of electron     273.0000000 magnetization 
 augmentation part      273.0000000 magnetization 

 Free energy of the ion-electron system (eV)
  ---------------------------------------------------
  alpha Z        PSCENC =      1385.58711809
  Ewald energy   TEWEN  =    -16407.69974345
  -Hartree energ DENC   =     -6466.20219175
  -exchange      EXHF   =         0.00000000
  -V(xc)+E(xc)   XCENC  =      -577.00111443
  PAW double counting   =     18876.41125238   -17150.47083733
  entropy T*S    EENTRO =         0.00786038
  eigenvalues    EBANDS =        36.29708509
  atomic energy  EATOM  =     21876.00140187
  Solvation  Ediel_sol  =         0.00000000
  ---------------------------------------------------
  free energy    TOTEN  =      1572.93083084 eV

  energy without entropy =     1572.92297046  energy(sigma->0) =     1572.92821072


--------------------------------------------------------------------------------------------------------




----------------------------------------- Iteration    1(   2)  ---------------------------------------


     EDDAV:  cpu time    1.0453: real time    1.0681
       DOS:  cpu time    0.0012: real time    0.0012
    --------------------------------------------
      LOOP:  cpu time    1.0471: real time    1.1516

 eigenvalue-minimisations  :  5180
 total energy-change (2. order) :-0.1694986E+04  (-0.1635373E+04)
 number of electron     273.0000000 magnetization 
 augmentation part      273.0000000 magnetization 

 Free energy of the ion-electron system (eV)
  ---------------------------------------------------
  alpha Z        PSCENC =      1385.58711809
  Ewald energy   TEWEN  =    -16407.69974345
  -Hartree energ DENC   =     -6466.20219175
  -exchange      EXHF   =         0.00000000
  -V(xc)+E(xc)   XCENC  =      -577.00111443
  PAW double counting   =     18876.41125238   -17150.47083733
  entropy T*S    EENTRO =         0.00074840
  eigenvalues    EBANDS =     -1658.68154064
  atomic energy  EATOM  =     21876.00140187
  Solvation  Ediel_sol  =         0.00000000
  ---------------------------------------------------
  free energy    TOTEN  =      -122.05490687 eV

  energy without entropy =     -122.05565527  energy(sigma->0) =     -122.05515634


--------------------------------------------------------------------------------------------------------




----------------------------------------- Iteration    1(   3)  ---------------------------------------


     EDDAV:  cpu time    1.4029: real time    1.4093
       DOS:  cpu time    0.0013: real time    0.0013
    --------------------------------------------
      LOOP:  cpu time    1.4045: real time    1.4248

 eigenvalue-minimisations  :  7816
 total energy-change (2. order) :-0.2281127E+03  (-0.2161739E+03)
 number of electron     273.0000000 magnetization 
 augmentation part      273.0000000 magnetization 

 Free energy of the ion-electron system (eV)
  ---------------------------------------------------
  alpha Z        PSCENC =      1385.58711809
  Ewald energy   TEWEN  =    -16407.69974345
  -Hartree energ DENC   =     -6466.20219175
  -exchange      EXHF   =         0.00000000
  -V(xc)+E(xc)   XCENC  =      -577.00111443
  PAW double counting   =     18876.41125238   -17150.47083733
  entropy T*S    EENTRO =         0.00401649
  eigenvalues    EBANDS =     -1886.79753979
  atomic energy  EATOM  =     21876.00140187
  Solvation  Ediel_sol  =         0.00000000
  ---------------------------------------------------
  free energy    TOTEN  =      -350.16763794 eV

  energy without entropy =     -350.17165442  energy(sigma->0) =     -350.16897677


--------------------------------------------------------------------------------------------------------




----------------------------------------- Iteration    1(   4)  ---------------------------------------


     EDDAV:  cpu time    1.4161: real time    1.4299
       DOS:  cpu time    0.0010: real time    0.0010
    --------------------------------------------
      LOOP:  cpu time    1.4178: real time    1.4462

 eigenvalue-minimisations  :  7792
 total energy-change (2. order) :-0.2733426E+02  (-0.2592518E+02)
 number of electron     273.0000000 magnetization 
 augmentation part      273.0000000 magnetization 

 Free energy of the ion-electron system (eV)
  ---------------------------------------------------
  alpha Z        PSCENC =      1385.58711809
  Ewald energy   TEWEN  =    -16407.69974345
  -Hartree energ DENC   =     -6466.20219175
  -exchange      EXHF   =         0.00000000
  -V(xc)+E(xc)   XCENC  =      -577.00111443
  PAW double counting   =     18876.41125238   -17150.47083733
  entropy T*S    EENTRO =         0.01548883
  eigenvalues    EBANDS =     -1914.14327531
  atomic energy  EATOM  =     21876.00140187
  Solvation  Ediel_sol  =         0.00000000
  ---------------------------------------------------
  free energy    TOTEN  =      -377.50190111 eV

  energy without entropy =     -377.51738994  energy(sigma->0) =     -377.50706406


--------------------------------------------------------------------------------------------------------




----------------------------------------- Iteration    1(   5)  ---------------------------------------


     EDDAV:  cpu time    1.3790: real time    1.5150
       DOS:  cpu time    0.0011: real time    0.0011
    CHARGE:  cpu time    0.0402: real time    0.0403
    MIXING:  cpu time    0.0019: real time    0.0022
    --------------------------------------------
      LOOP:  cpu time    1.4228: real time    1.5732

 eigenvalue-minimisations  :  7448
 total energy-change (2. order) :-0.2854807E+01  (-0.2767867E+01)
 number of electron     273.0000005 magnetization 
 augmentation part       14.6387578 magnetization 

 Broyden mixing:
  rms(total) = 0.66374E+01    rms(broyden)= 0.66370E+01
  rms(prec ) = 0.68915E+01
  weight for this iteration     100.00

 Free energy of the ion-electron system (eV)
  ---------------------------------------------------
  alpha Z        PSCENC =      1385.58711809
  Ewald energy   TEWEN  =    -16407.69974345
  -Hartree energ DENC   =     -6466.20219175
  -exchange      EXHF   =         0.00000000
  -V(xc)+E(xc)   XCENC  =      -577.00111443
  PAW double counting   =     18876.41125238   -17150.47083733
  entropy T*S    EENTRO =         0.01450389
  eigenvalues    EBANDS =     -1916.99709727
  atomic energy  EATOM  =     21876.00140187
  Solvation  Ediel_sol  =         0.00000000
  ---------------------------------------------------
  free energy    TOTEN  =      -380.35670801 eV

  energy without entropy =     -380.37121190  energy(sigma->0) =     -380.36154264


--------------------------------------------------------------------------------------------------------




----------------------------------------- Iteration    1(   6)  ---------------------------------------


    POTLOK:  cpu time    0.0304: real time    0.0316
    SETDIJ:  cpu time    0.0039: real time    0.0041
    EDDIAG:  cpu time    0.0683: real time    0.0740
  RMM-DIIS:  cpu time    0.6899: real time    0.6930
    ORTHCH:  cpu time    0.0115: real time    0.0115
       DOS:  cpu time    0.0009: real time    0.0009
    CHARGE:  cpu time    0.0283: real time    0.0284
    MIXING:  cpu time    0.0018: real time    0.0025
    --------------------------------------------
      LOOP:  cpu time    0.8355: real time    0.8614

 eigenvalue-minimisations  :  6466
 total energy-change (2. order) : 0.1039346E+02  (-0.2266918E+01)
 number of electron     273.0000005 magnetization 
 augmentation part       15.1971777 magnetization 

 Broyden mixing:
  rms(total) = 0.32037E+01    rms(broyden)= 0.32037E+01
  rms(prec ) = 0.33893E+01
  weight for this iteration     100.00

 eigenvalues of (default mixing * dielectric matrix)
  average eigenvalue GAMMA=   1.8615
  1.8615

 Free energy of the ion-electron system (eV)
  ---------------------------------------------------
  alpha Z        PSCENC =      1385.58711809
  Ewald energy   TEWEN  =    -16407.69974345
  -Hartree energ DENC   =     -6319.61608939
  -exchange      EXHF   =         0.00000000
  -V(xc)+E(xc)   XCENC  =      -578.48748857
  PAW double counting   =     24190.77751184   -22473.61330443
  entropy T*S    EENTRO =         0.02036436
  eigenvalues    EBANDS =     -2042.93301688
  atomic energy  EATOM  =     21876.00140187
  Solvation  Ediel_sol  =         0.00000000
  ---------------------------------------------------
  free energy    TOTEN  =      -369.96324657 eV

  energy without entropy =     -369.98361093  energy(sigma->0) =     -369.97003469


--------------------------------------------------------------------------------------------------------




----------------------------------------- Iteration    1(   7)  ---------------------------------------


    POTLOK:  cpu time    0.0297: real time    0.0311
    SETDIJ:  cpu time    0.0191: real time    0.0201
    EDDIAG:  cpu time    0.1014: real time    0.1038
  RMM-DIIS:  cpu time    0.6872: real time    0.6898
    ORTHCH:  cpu time    0.0113: real time    0.0113
       DOS:  cpu time    0.0008: real time    0.0008
    CHARGE:  cpu time    0.0291: real time    0.0292
    MIXING:  cpu time    0.0014: real time    0.0014
    --------------------------------------------
      LOOP:  cpu time    0.8806: real time    0.9074

 eigenvalue-minimisations  :  6496
 total energy-change (2. order) : 0.1522448E+01  (-0.2293526E+01)
 number of electron     273.0000005 magnetization 
 augmentation part       15.7729601 magnetization 

 Broyden mixing:
  rms(total) = 0.75600E+00    rms(broyden)= 0.75577E+00
  rms(prec ) = 0.18239E+01
  weight for this iteration     100.00

 eigenvalues of (default mixing * dielectric matrix)
  average eigenvalue GAMMA=   1.2817
  0.6887  1.8748

 Free energy of the ion-electron system (eV)
  ---------------------------------------------------
  alpha Z        PSCENC =      1385.58711809
  Ewald energy   TEWEN  =    -16407.69974345
  -Hartree energ DENC   =     -6247.98771928
  -exchange      EXHF   =         0.00000000
  -V(xc)+E(xc)   XCENC  =      -575.58520920
  PAW double counting   =     30011.68599259   -28290.63972166
  entropy T*S    EENTRO =         0.00453497
  eigenvalues    EBANDS =     -2119.80745219
  atomic energy  EATOM  =     21876.00140187
  Solvation  Ediel_sol  =         0.00000000
  ---------------------------------------------------
  free energy    TOTEN  =      -368.44079826 eV

  energy without entropy =     -368.44533323  energy(sigma->0) =     -368.44230992


--------------------------------------------------------------------------------------------------------




----------------------------------------- Iteration    1(   8)  ---------------------------------------


    POTLOK:  cpu time    0.0289: real time    0.0314
    SETDIJ:  cpu time    0.0248: real time    0.0262
    EDDIAG:  cpu time    0.1067: real time    0.1097
  RMM-DIIS:  cpu time    0.7836: real time    0.7890
    ORTHCH:  cpu time    0.0108: real time    0.0108
       DOS:  cpu time    0.0008: real time    0.0008
    CHARGE:  cpu time    0.0283: real time    0.0305
    MIXING:  cpu time    0.0012: real time    0.0012
    --------------------------------------------
      LOOP:  cpu time    0.9857: real time    1.0146

 eigenvalue-minimisations  :  7233
 total energy-change (2. order) : 0.2787010E+01  (-0.4347750E+00)
 number of electron     273.0000005 magnetization 
 augmentation part       15.5433206 magnetization 

 Broyden mixing:
  rms(total) = 0.36659E+00    rms(broyden)= 0.36633E+00
  rms(prec ) = 0.59843E+00
  weight for this iteration     100.00

 eigenvalues of (default mixing * dielectric matrix)
  average eigenvalue GAMMA=   1.2336
  1.7558  1.4525  0.4925

 Free energy of the ion-electron system (eV)
  ---------------------------------------------------
  alpha Z        PSCENC =      1385.58711809
  Ewald energy   TEWEN  =    -16407.69974345
  -Hartree energ DENC   =     -6246.31972325
  -exchange      EXHF   =         0.00000000
  -V(xc)+E(xc)   XCENC  =      -575.06500505
  PAW double counting   =     30750.58416766   -29027.27223352
  entropy T*S    EENTRO =         0.02955836
  eigenvalues    EBANDS =     -2121.49932899
  atomic energy  EATOM  =     21876.00140187
  Solvation  Ediel_sol  =         0.00000000
  ---------------------------------------------------
  free energy    TOTEN  =      -365.65378829 eV

  energy without entropy =     -365.68334665  energy(sigma->0) =     -365.66364108


--------------------------------------------------------------------------------------------------------




----------------------------------------- Iteration    1(   9)  ---------------------------------------


    POTLOK:  cpu time    0.0281: real time    0.0295
    SETDIJ:  cpu time    0.0037: real time    0.0040
    EDDIAG:  cpu time    0.0699: real time    0.0732
  RMM-DIIS:  cpu time    0.7895: real time    0.7931
    ORTHCH:  cpu time    0.0109: real time    0.0110
       DOS:  cpu time    0.0121: real time    0.0122
    CHARGE:  cpu time    0.0538: real time    0.0561
    MIXING:  cpu time    0.0015: real time    0.0015
    --------------------------------------------
      LOOP:  cpu time    0.9702: real time    1.0225

 eigenvalue-minimisations  :  7171
 total energy-change (2. order) : 0.6005032E-01  (-0.1563092E+00)
 number of electron     273.0000005 magnetization 
 augmentation part       15.4311102 magnetization 

 Broyden mixing:
  rms(total) = 0.26359E+00    rms(broyden)= 0.26353E+00
  rms(prec ) = 0.38269E+00
  weight for this iteration     100.00

 eigenvalues of (default mixing * dielectric matrix)
  average eigenvalue GAMMA=   1.1795
  1.9018  1.9018  0.5206  0.3936

 Free energy of the ion-electron system (eV)
  ---------------------------------------------------
  alpha Z        PSCENC =      1385.58711809
  Ewald energy   TEWEN  =    -16407.69974345
  -Hartree energ DENC   =     -6243.26420412
  -exchange      EXHF   =         0.00000000
  -V(xc)+E(xc)   XCENC  =      -574.75377755
  PAW double counting   =     30860.58450651   -29134.46091029
  entropy T*S    EENTRO =         0.02871866
  eigenvalues    EBANDS =     -2127.61684770
  atomic energy  EATOM  =     21876.00140187
  Solvation  Ediel_sol  =         0.00000000
  ---------------------------------------------------
  free energy    TOTEN  =      -365.59373797 eV

  energy without entropy =     -365.62245663  energy(sigma->0) =     -365.60331086


--------------------------------------------------------------------------------------------------------




----------------------------------------- Iteration    1(  10)  ---------------------------------------


    POTLOK:  cpu time    0.0439: real time    0.0450
    SETDIJ:  cpu time    0.0054: real time    0.0055
    EDDIAG:  cpu time    0.0880: real time    0.0885
  RMM-DIIS:  cpu time    0.7229: real time    0.8435
    ORTHCH:  cpu time    0.0112: real time    0.0137
       DOS:  cpu time    0.0008: real time    0.0008
    CHARGE:  cpu time    0.0289: real time    0.0307
    MIXING:  cpu time    0.0015: real time    0.0015
    --------------------------------------------
      LOOP:  cpu time    0.9035: real time    1.0670

 eigenvalue-minimisations  :  7130
 total energy-change (2. order) : 0.5229409E-01  (-0.3719745E-01)
 number of electron     273.0000005 magnetization 
 augmentation part       15.3558838 magnetization 

 Broyden mixing:
  rms(total) = 0.12151E+00    rms(broyden)= 0.12145E+00
  rms(prec ) = 0.20626E+00
  weight for this iteration     100.00

 eigenvalues of (default mixing * dielectric matrix)
  average eigenvalue GAMMA=   1.1313
  1.9857  1.9857  0.7743  0.4968  0.4138

 Free energy of the ion-electron system (eV)
  ---------------------------------------------------
  alpha Z        PSCENC =      1385.58711809
  Ewald energy   TEWEN  =    -16407.69974345
  -Hartree energ DENC   =     -6258.04558883
  -exchange      EXHF   =         0.00000000
  -V(xc)+E(xc)   XCENC  =      -573.74682542
  PAW double counting   =     31067.92910697   -29335.75904982
  entropy T*S    EENTRO =         0.02923439
  eigenvalues    EBANDS =     -2119.83709769
  atomic energy  EATOM  =     21876.00140187
  Solvation  Ediel_sol  =         0.00000000
  ---------------------------------------------------
  free energy    TOTEN  =      -365.54144388 eV

  energy without entropy =     -365.57067828  energy(sigma->0) =     -365.55118868


--------------------------------------------------------------------------------------------------------




----------------------------------------- Iteration    1(  11)  ---------------------------------------


    POTLOK:  cpu time    0.0283: real time    0.0342
    SETDIJ:  cpu time    0.0077: real time    0.0077
    EDDIAG:  cpu time    0.1078: real time    0.1107
  RMM-DIIS:  cpu time    0.7428: real time    0.7488
    ORTHCH:  cpu time    0.0109: real time    0.0110
       DOS:  cpu time    0.0009: real time    0.0009
    CHARGE:  cpu time    0.0287: real time    0.0288
    MIXING:  cpu time    0.0016: real time    0.0016
    --------------------------------------------
      LOOP:  cpu time    0.9294: real time    0.9573

 eigenvalue-minimisations  :  7114
 total energy-change (2. order) : 0.2492573E-01  (-0.1194268E-01)
 number of electron     273.0000005 magnetization 
 augmentation part       15.3390305 magnetization 

 Broyden mixing:
  rms(total) = 0.57623E-01    rms(broyden)= 0.57594E-01
  rms(prec ) = 0.83928E-01
  weight for this iteration     100.00

 eigenvalues of (default mixing * dielectric matrix)
  average eigenvalue GAMMA=   1.1324
  2.2274  1.8068  1.3239  0.5340  0.5340  0.3682

 Free energy of the ion-electron system (eV)
  ---------------------------------------------------
  alpha Z        PSCENC =      1385.58711809
  Ewald energy   TEWEN  =    -16407.69974345
  -Hartree energ DENC   =     -6261.34283069
  -exchange      EXHF   =         0.00000000
  -V(xc)+E(xc)   XCENC  =      -573.38087967
  PAW double counting   =     31231.96697047   -29497.08450496
  entropy T*S    EENTRO =         0.02954787
  eigenvalues    EBANDS =     -2119.59359769
  atomic energy  EATOM  =     21876.00140187
  Solvation  Ediel_sol  =         0.00000000
  ---------------------------------------------------
  free energy    TOTEN  =      -365.51651815 eV

  energy without entropy =     -365.54606603  energy(sigma->0) =     -365.52636745


--------------------------------------------------------------------------------------------------------




----------------------------------------- Iteration    1(  12)  ---------------------------------------


    POTLOK:  cpu time    0.0290: real time    0.0307
    SETDIJ:  cpu time    0.0038: real time    0.0040
    EDDIAG:  cpu time    0.0714: real time    0.0732
  RMM-DIIS:  cpu time    0.7553: real time    0.7666
    ORTHCH:  cpu time    0.0158: real time    0.0192
       DOS:  cpu time    0.0011: real time    0.0013
    CHARGE:  cpu time    0.0273: real time    0.0330
    MIXING:  cpu time    0.0017: real time    0.0017
    --------------------------------------------
      LOOP:  cpu time    0.9060: real time    0.9439

 eigenvalue-minimisations  :  7253
 total energy-change (2. order) :-0.1437543E-02  (-0.4933705E-02)
 number of electron     273.0000005 magnetization 
 augmentation part       15.3435323 magnetization 

 Broyden mixing:
  rms(total) = 0.37488E-01    rms(broyden)= 0.37479E-01
  rms(prec ) = 0.68019E-01
  weight for this iteration     100.00

 eigenvalues of (default mixing * dielectric matrix)
  average eigenvalue GAMMA=   1.0875
  2.2291  1.7260  1.6190  0.6055  0.6055  0.4536  0.3736

 Free energy of the ion-electron system (eV)
  ---------------------------------------------------
  alpha Z        PSCENC =      1385.58711809
  Ewald energy   TEWEN  =    -16407.69974345
  -Hartree energ DENC   =     -6262.35729357
  -exchange      EXHF   =         0.00000000
  -V(xc)+E(xc)   XCENC  =      -573.26386010
  PAW double counting   =     31359.55292640   -29623.30602455
  entropy T*S    EENTRO =         0.02886001
  eigenvalues    EBANDS =     -2120.06134040
  atomic energy  EATOM  =     21876.00140187
  Solvation  Ediel_sol  =         0.00000000
  ---------------------------------------------------
  free energy    TOTEN  =      -365.51795570 eV

  energy without entropy =     -365.54681571  energy(sigma->0) =     -365.52757570


--------------------------------------------------------------------------------------------------------




----------------------------------------- Iteration    1(  13)  ---------------------------------------


    POTLOK:  cpu time    0.0288: real time    0.0295
    SETDIJ:  cpu time    0.0177: real time    0.0204
    EDDIAG:  cpu time    0.0749: real time    0.0762
  RMM-DIIS:  cpu time    0.7765: real time    0.7860
    ORTHCH:  cpu time    0.0122: real time    0.0122
       DOS:  cpu time    0.0027: real time    0.0027
    CHARGE:  cpu time    0.0679: real time    0.0702
    MIXING:  cpu time    0.0016: real time    0.0016
    --------------------------------------------
      LOOP:  cpu time    0.9831: real time    1.0225

 eigenvalue-minimisations  :  7243
 total energy-change (2. order) : 0.7455296E-03  (-0.1744368E-02)
 number of electron     273.0000005 magnetization 
 augmentation part       15.3444799 magnetization 

 Broyden mixing:
  rms(total) = 0.23664E-01    rms(broyden)= 0.23656E-01
  rms(prec ) = 0.34766E-01
  weight for this iteration     100.00

 eigenvalues of (default mixing * dielectric matrix)
  average eigenvalue GAMMA=   1.1059
  2.2322  2.1534  1.5485  1.0344  0.5900  0.5078  0.3656  0.4152

 Free energy of the ion-electron system (eV)
  ---------------------------------------------------
  alpha Z        PSCENC =      1385.58711809
  Ewald energy   TEWEN  =    -16407.69974345
  -Hartree energ DENC   =     -6262.21621727
  -exchange      EXHF   =         0.00000000
  -V(xc)+E(xc)   XCENC  =      -573.26068860
  PAW double counting   =     31410.63059501   -29673.87794312
  entropy T*S    EENTRO =         0.02921965
  eigenvalues    EBANDS =     -2120.71095234
  atomic energy  EATOM  =     21876.00140187
  Solvation  Ediel_sol  =         0.00000000
  ---------------------------------------------------
  free energy    TOTEN  =      -365.51721017 eV

  energy without entropy =     -365.54642982  energy(sigma->0) =     -365.52695005


--------------------------------------------------------------------------------------------------------




----------------------------------------- Iteration    1(  14)  ---------------------------------------


    POTLOK:  cpu time    0.0281: real time    0.0294
    SETDIJ:  cpu time    0.0391: real time    0.0392
    EDDIAG:  cpu time    0.0744: real time    0.0759
  RMM-DIIS:  cpu time    0.8182: real time    0.8262
    ORTHCH:  cpu time    0.0121: real time    0.0121
       DOS:  cpu time    0.0009: real time    0.0009
    CHARGE:  cpu time    0.0288: real time    0.0289
    MIXING:  cpu time    0.0017: real time    0.0017
    --------------------------------------------
      LOOP:  cpu time    1.0039: real time    1.0366

 eigenvalue-minimisations  :  7226
 total energy-change (2. order) :-0.2564784E-03  (-0.8789802E-03)
 number of electron     273.0000005 magnetization 
 augmentation part       15.3418542 magnetization 

 Broyden mixing:
  rms(total) = 0.12409E-01    rms(broyden)= 0.12404E-01
  rms(prec ) = 0.18748E-01
  weight for this iteration     100.00

 eigenvalues of (default mixing * dielectric matrix)
  average eigenvalue GAMMA=   1.0977
  2.4144  2.2323  1.6598  1.1551  0.6003  0.6003  0.4762  0.3874  0.3538

 Free energy of the ion-electron system (eV)
  ---------------------------------------------------
  alpha Z        PSCENC =      1385.58711809
  Ewald energy   TEWEN  =    -16407.69974345
  -Hartree energ DENC   =     -6262.48887247
  -exchange      EXHF   =         0.00000000
  -V(xc)+E(xc)   XCENC  =      -573.25825695
  PAW double counting   =     31435.26193473   -29698.12088549
  entropy T*S    EENTRO =         0.02893618
  eigenvalues    EBANDS =     -2120.82909915
  atomic energy  EATOM  =     21876.00140187
  Solvation  Ediel_sol  =         0.00000000
  ---------------------------------------------------
  free energy    TOTEN  =      -365.51746665 eV

  energy without entropy =     -365.54640283  energy(sigma->0) =     -365.52711204


--------------------------------------------------------------------------------------------------------




----------------------------------------- Iteration    1(  15)  ---------------------------------------


    POTLOK:  cpu time    0.0305: real time    0.0310
    SETDIJ:  cpu time    0.0142: real time    0.0143
    EDDIAG:  cpu time    0.0732: real time    0.0746
  RMM-DIIS:  cpu time    0.8183: real time    0.8276
    ORTHCH:  cpu time    0.0126: real time    0.0126
       DOS:  cpu time    0.0008: real time    0.0008
    CHARGE:  cpu time    0.0286: real time    0.0287
    MIXING:  cpu time    0.0021: real time    0.0022
    --------------------------------------------
      LOOP:  cpu time    0.9810: real time    1.0142

 eigenvalue-minimisations  :  7193
 total energy-change (2. order) :-0.2292466E-03  (-0.4357728E-03)
 number of electron     273.0000005 magnetization 
 augmentation part       15.3401271 magnetization 

 Broyden mixing:
  rms(total) = 0.48887E-02    rms(broyden)= 0.48855E-02
  rms(prec ) = 0.96862E-02
  weight for this iteration     100.00

 eigenvalues of (default mixing * dielectric matrix)
  average eigenvalue GAMMA=   1.0651
  2.5695  2.0889  1.6429  1.2145  0.7372  0.7065  0.4810  0.4810  0.3761  0.3536

 Free energy of the ion-electron system (eV)
  ---------------------------------------------------
  alpha Z        PSCENC =      1385.58711809
  Ewald energy   TEWEN  =    -16407.69974345
  -Hartree energ DENC   =     -6262.85999583
  -exchange      EXHF   =         0.00000000
  -V(xc)+E(xc)   XCENC  =      -573.25392774
  PAW double counting   =     31457.07516275   -29719.60701002
  entropy T*S    EENTRO =         0.02915476
  eigenvalues    EBANDS =     -2120.78985632
  atomic energy  EATOM  =     21876.00140187
  Solvation  Ediel_sol  =         0.00000000
  ---------------------------------------------------
  free energy    TOTEN  =      -365.51769589 eV

  energy without entropy =     -365.54685065  energy(sigma->0) =     -365.52741415


--------------------------------------------------------------------------------------------------------




----------------------------------------- Iteration    1(  16)  ---------------------------------------


    POTLOK:  cpu time    0.0319: real time    0.0328
    SETDIJ:  cpu time    0.0044: real time    0.0045
    EDDIAG:  cpu time    0.0743: real time    0.0747
  RMM-DIIS:  cpu time    0.6622: real time    0.6664
    ORTHCH:  cpu time    0.0115: real time    0.0115
       DOS:  cpu time    0.0011: real time    0.0011
    CHARGE:  cpu time    0.0297: real time    0.0299
    MIXING:  cpu time    0.0020: real time    0.0020
    --------------------------------------------
      LOOP:  cpu time    0.8177: real time    0.8378

 eigenvalue-minimisations  :  6328
 total energy-change (2. order) :-0.1002899E-03  (-0.1844230E-03)
 number of electron     273.0000005 magnetization 
 augmentation part       15.3402543 magnetization 

 Broyden mixing:
  rms(total) = 0.27381E-02    rms(broyden)= 0.27367E-02
  rms(prec ) = 0.58273E-02
  weight for this iteration     100.00

 eigenvalues of (default mixing * dielectric matrix)
  average eigenvalue GAMMA=   1.0377
  2.6159  2.0660  1.6900  1.2049  0.8852  0.7127  0.5361  0.5361  0.4399  0.3795
  0.3487

 Free energy of the ion-electron system (eV)
  ---------------------------------------------------
  alpha Z        PSCENC =      1385.58711809
  Ewald energy   TEWEN  =    -16407.69974345
[...]
     86       4.8945      2.00000
     87       4.9458      2.00000
     88       4.9860      2.00000
     89       5.0365      2.00000
     90       5.0975      2.00000
     91       5.1390      2.00000
     92       5.2409      2.00000
     93       5.2596      2.00000
     94       5.3281      2.00000
     95       5.3761      2.00000
     96       5.4468      2.00000
     97       5.4916      2.00000
     98       5.6258      2.00000
     99       5.7053      2.00000
    100       5.7957      2.00000
    101       5.8080      2.00000
    102       5.8345      2.00000
    103       5.8810      2.00000
    104       5.8998      2.00000
    105       5.9335      2.00000
    106       5.9585      2.00000
    107       5.9780      2.00000
    108       6.0051      2.00000
    109       6.0603      2.00000
    110       6.0880      2.00000
    111       6.1418      2.00000
    112       6.1829      2.00000
    113       6.2267      2.00000
    114       6.2533      2.00000
    115       6.2883      2.00000
    116       6.3352      2.00000
    117       6.3949      2.00000
    118       6.4198      2.00000
    119       6.4443      2.00000
    120       6.5100      2.00000
    121       6.5524      2.00000
    122       6.5890      2.00000
    123       6.6233      2.00001
    124       6.6767      2.00011
    125       6.7179      2.00050
    126       6.7493      2.00142
    127       6.7906      2.00477
    128       6.8155      2.00905
    129       6.8275      2.01203
    130       6.8416      2.01646
    131       6.8888      2.03916
    132       6.9209      2.05855
    133       6.9575      2.07090
    134       6.9963      2.04095
    135       7.0389      1.90234
    136       7.0605      1.77438
    137       7.0780      1.64002
    138       7.1113      1.32074
    139       7.1860      0.50987
    140       7.2254      0.19022
    141       7.2507      0.05614
    142       7.2801     -0.03320
    143       7.3442     -0.06629
    144       7.3634     -0.05642
    145       7.3893     -0.04064
    146       7.4462     -0.01406
    147       7.4602     -0.01017
    148       7.4882     -0.00499
    149       7.5101     -0.00270
    150       7.5502     -0.00077
    151       7.6029     -0.00012
    152       7.6615     -0.00001
    153       7.7095     -0.00000
    154       7.7402     -0.00000
    155       7.7942     -0.00000
    156       7.8951     -0.00000
    157       7.9178     -0.00000
    158       7.9536     -0.00000
    159       8.0669     -0.00000
    160       8.1217     -0.00000
    161       8.2613     -0.00000
    162       8.3801     -0.00000
    163       8.5157     -0.00000
    164       8.9817     -0.00000


--------------------------------------------------------------------------------------------------------


 soft charge-density along one line, spin component           1
         0         1         2         3         4         5         6         7         8         9
 total charge-density along one line
 
 pseudopotential strength for first ion, spin component:           1
 -5.086   0.001   0.001   0.002  -0.001  -6.345   0.001   0.001
  0.001  -5.089   0.000   0.001  -0.001   0.001  -6.349   0.000
  0.001   0.000  -5.086  -0.000  -0.000   0.001   0.000  -6.344
  0.002   0.001  -0.000  -5.084  -0.000   0.003   0.001  -0.000
 -0.001  -0.001  -0.000  -0.000  -5.086  -0.001  -0.001  -0.001
 -6.345   0.001   0.001   0.003  -0.001  -7.896   0.001   0.001
  0.001  -6.349   0.000   0.001  -0.001   0.001  -7.901   0.001
  0.001   0.000  -6.344  -0.000  -0.001   0.001   0.001  -7.894
  0.003   0.001  -0.000  -6.343  -0.000   0.004   0.001  -0.000
 -0.001  -0.001  -0.001  -0.000  -6.345  -0.001  -0.001  -0.001
 -0.000  -0.002  -0.000  -0.000  -0.001  -0.000  -0.002  -0.000
 -0.000  -0.003  -0.001  -0.000  -0.001  -0.000  -0.004  -0.001
  0.007   0.001  -0.002  -0.002  -0.003   0.008   0.002  -0.003
 -0.002   0.002   0.003   0.007  -0.001  -0.003   0.002   0.004
  0.002  -0.002  -0.006  -0.000   0.010   0.003  -0.003  -0.007
 -0.007  -0.000   0.002   0.004   0.003  -0.009  -0.000   0.003
  0.004  -0.001  -0.003  -0.008   0.001   0.005  -0.001  -0.003
 -0.002   0.004   0.007   0.002  -0.013  -0.003   0.005   0.009
 total augmentation occupancy for first ion, spin component:           1
  4.008   0.064   0.052   0.169  -0.038  -2.089  -0.031  -0.025  -0.077   0.012  -0.014   0.003  -0.036   0.032  -0.064  -0.004
  0.064   3.586   0.000   0.043  -0.036  -0.031  -1.863  -0.002  -0.017   0.028   0.074  -0.019  -0.082  -0.008   0.034  -0.002
  0.052   0.000   4.177  -0.026  -0.013  -0.024  -0.002  -2.235   0.015   0.018  -0.006  -0.003   0.027  -0.061   0.037   0.001
  0.169   0.043  -0.026   4.158  -0.026  -0.077  -0.017   0.015  -2.169   0.011   0.006   0.000   0.027  -0.056  -0.070   0.001
 -0.038  -0.036  -0.013  -0.026   4.146   0.011   0.028   0.018   0.010  -2.216   0.111  -0.024   0.016   0.015  -0.092   0.002
 -2.089  -0.031  -0.024  -0.077   0.011   1.101   0.015   0.011   0.036  -0.002   0.009  -0.001   0.021  -0.016   0.031   0.002
 -0.031  -1.863  -0.002  -0.017   0.028   0.015   0.980   0.002   0.006  -0.019  -0.037   0.010   0.041   0.004  -0.017   0.001
 -0.025  -0.002  -2.235   0.015   0.018   0.011   0.002   1.204  -0.009  -0.015   0.003   0.002  -0.015   0.040  -0.019  -0.001
 -0.077  -0.017   0.015  -2.169   0.010   0.036   0.006  -0.009   1.145  -0.004  -0.004  -0.000  -0.014   0.031   0.037  -0.001
  0.012   0.028   0.018   0.011  -2.216  -0.002  -0.019  -0.015  -0.004   1.192  -0.071   0.014  -0.012  -0.005   0.046  -0.001
 -0.014   0.074  -0.006   0.006   0.111   0.009  -0.037   0.003  -0.004  -0.071   2.396  -0.299  -0.025  -0.012  -0.034  -0.000
  0.003  -0.019  -0.003   0.000  -0.024  -0.001   0.010   0.002  -0.000   0.014  -0.299   0.040  -0.001   0.000  -0.002   0.000
 -0.036  -0.082   0.027   0.027   0.016   0.021   0.041  -0.015  -0.014  -0.012  -0.025  -0.001   0.286  -0.001  -0.002   0.005
  0.032  -0.008  -0.061  -0.056   0.015  -0.016   0.004   0.040   0.031  -0.005  -0.012   0.000  -0.001   0.295  -0.002  -0.000
 -0.064   0.034   0.037  -0.070  -0.092   0.031  -0.017  -0.019   0.037   0.046  -0.034  -0.002  -0.002  -0.002   0.298  -0.000
 -0.004  -0.002   0.001   0.001   0.002   0.002   0.001  -0.001  -0.001  -0.001  -0.000   0.000   0.005  -0.000  -0.000   0.000
  0.001  -0.001  -0.004  -0.004   0.000  -0.001   0.001   0.002   0.002  -0.000  -0.000   0.000  -0.000   0.005  -0.000  -0.000
 -0.001   0.001   0.003  -0.001  -0.006   0.001  -0.001  -0.002   0.001   0.003  -0.002   0.000   0.000  -0.000   0.005   0.000


------------------------ aborting loop because EDIFF is reached ----------------------------------------


    CHARGE:  cpu time    0.0274: real time    0.0288
    FORLOC:  cpu time    0.0135: real time    0.0140
    FORNL :  cpu time    0.2751: real time    0.2922
    STRESS:  cpu time    0.9353: real time    0.9712
    FORCOR:  cpu time    0.0438: real time    0.0446
    FORHAR:  cpu time    0.0189: real time    0.0190
    MIXING:  cpu time    0.0013: real time    0.0013
    OFIELD:  cpu time    0.0000: real time    0.0000

  FORCE on cell =-STRESS in cart. coord.  units (eV):
  Direction    XX          YY          ZZ          XY          YZ          ZX
  --------------------------------------------------------------------------------------
  Alpha Z  1384.78415  1384.78415  1384.78415
  Ewald   -4752.61805 -6767.89213 -4880.33747    40.34025  -350.68877   334.62468
  Hartree  2768.89376   847.47545  2651.61445    33.34340  -311.88233   291.71168
  E(xc)   -1184.93073 -1185.25969 -1184.81806     0.12684     0.59021    -0.44330
  Local   -2553.25117  1382.94260 -2312.06689   -72.68597   660.31501  -625.64542
  n-local  -268.64743  -271.07406  -273.21044    -0.25988    -1.54141    -0.47026
  augment   175.84315   176.29021   176.71283    -0.05428     0.33711    -0.08982
  Kinetic  4429.80451  4432.58861  4437.17478    -0.81870     2.85962     0.27672
  Fock        0.00000     0.00000     0.00000     0.00000     0.00000     0.00000
  -------------------------------------------------------------------------------------
  Total      -0.12181    -0.14486    -0.14663    -0.00835    -0.01056    -0.03571
  in kB      -0.26743    -0.31805    -0.32194    -0.01833    -0.02319    -0.07840
  external pressure =       -0.30 kB  Pullay stress =        0.00 kB


 VOLUME and BASIS-vectors are now :
 -----------------------------------------------------------------------------
  energy-cutoff  :      300.00
  volume of cell :      729.75
      direct lattice vectors                 reciprocal lattice vectors
     6.956471104  0.004923171 -0.015100621     0.143751796 -0.000112118  0.000308914
     0.007883963 10.208772904  0.036443851    -0.000070078  0.097956259 -0.000347240
    -0.022053903  0.036410813 10.275918492     0.000211494 -0.000347570  0.097316587

  length of vectors
     6.956489236 10.208840998 10.276006664     0.143752172  0.097956900  0.097317438


 FORCES acting on ions
    electron-ion (+dipol)            ewald-force                    non-local-force                 convergence-correction
 -----------------------------------------------------------------------------------------------
   -.288E+02 -.139E+03 0.185E+01   0.280E+02 0.138E+03 -.233E+01   0.804E+00 0.359E+00 0.489E+00   -.163E-04 0.461E-04 -.227E-02
   0.289E+02 -.984E+02 0.211E+02   -.286E+02 0.986E+02 -.208E+02   -.293E+00 -.176E+00 -.306E+00   0.204E-04 -.105E-02 -.683E-03
   -.393E+02 0.503E+02 -.104E+02   0.396E+02 -.510E+02 0.988E+01   -.298E+00 0.688E+00 0.491E+00   -.164E-03 0.224E-03 -.631E-03
   0.621E+02 -.113E+03 -.280E+02   -.621E+02 0.113E+03 0.275E+02   0.424E-01 -.105E+00 0.480E+00   0.442E-03 -.120E-02 -.131E-02
   -.270E+02 -.103E+03 -.349E+00   0.267E+02 0.103E+03 0.752E+00   0.371E+00 -.163E-01 -.399E+00   0.137E-05 -.108E-02 -.446E-03
   -.255E+02 0.385E+02 0.527E+02   0.254E+02 -.378E+02 -.528E+02   0.123E+00 -.730E+00 0.848E-01   0.117E-03 -.199E-02 0.232E-03
   -.605E+01 0.895E+01 0.234E+02   0.591E+01 -.861E+01 -.228E+02   0.137E+00 -.342E+00 -.597E+00   0.340E-03 -.579E-03 -.205E-02
   0.241E+02 0.862E+02 -.509E+02   -.239E+02 -.854E+02 0.508E+02   -.235E+00 -.844E+00 0.110E+00   -.127E-02 0.283E-02 0.527E-03
   -.199E+02 0.106E+03 -.224E+02   0.196E+02 -.105E+03 0.220E+02   0.293E+00 -.888E+00 0.432E+00   0.132E-02 0.311E-02 0.150E-02
   0.369E+02 0.480E+02 -.284E+02   -.373E+02 -.487E+02 0.277E+02   0.352E+00 0.630E+00 0.660E+00   0.106E-03 0.120E-03 0.725E-03
   -.951E+01 0.135E+03 0.422E+02   0.925E+01 -.134E+03 -.421E+02   0.263E+00 -.761E-01 -.913E-01   0.420E-03 0.651E-03 -.263E-02
   -.201E+02 0.647E+02 -.113E+03   0.209E+02 -.644E+02 0.112E+03   -.852E+00 -.353E+00 0.578E+00   -.158E-02 0.778E-02 0.419E-02
   -.107E+03 0.182E+02 -.376E+02   0.106E+03 -.179E+02 0.380E+02   0.115E+01 -.353E+00 -.393E+00   0.555E-03 0.237E-02 0.190E-02
   0.265E+03 0.966E+02 0.822E+02   -.265E+03 -.959E+02 -.818E+02   -.120E+00 -.707E+00 -.401E+00   0.623E-02 0.384E-02 -.887E-02
   -.255E+03 0.173E+03 0.143E+03   0.255E+03 -.173E+03 -.143E+03   0.871E-01 -.509E+00 0.775E-01   -.540E-02 -.122E-02 -.702E-02
   0.425E+01 -.509E+03 -.776E+02   -.324E+01 0.509E+03 0.768E+02   -.101E+01 0.722E+00 0.813E+00   0.499E-05 -.438E-02 -.114E-01
   -.486E+02 0.178E+03 -.140E+03   0.487E+02 -.179E+03 0.140E+03   -.890E-01 0.592E+00 -.200E-01   -.193E-02 0.396E-02 0.489E-02
   0.222E+02 0.129E+03 0.640E+02   -.224E+02 -.129E+03 -.633E+02   0.204E+00 0.598E-01 -.677E+00   0.885E-04 0.301E-03 -.278E-02
   -.774E+00 0.190E+02 -.495E+02   0.253E+00 -.189E+02 0.492E+02   0.517E+00 -.901E-01 0.301E+00   0.376E-03 0.250E-02 0.345E-02
   -.330E+02 -.140E+03 0.961E+01   0.337E+02 0.140E+03 -.887E+01   -.675E+00 0.376E+00 -.745E+00   0.179E-03 -.607E-03 0.396E-02
   -.764E+02 -.138E+03 -.177E+02   0.763E+02 0.139E+03 0.172E+02   0.144E+00 -.252E+00 0.476E+00   -.728E-03 -.159E-02 -.166E-02
   -.223E+02 0.130E+03 0.472E+02   0.224E+02 -.130E+03 -.463E+02   -.141E+00 0.181E+00 -.818E+00   0.154E-03 -.350E-03 -.162E-02
   0.229E+02 -.947E+02 -.239E+02   -.237E+02 0.946E+02 0.241E+02   0.742E+00 0.565E-01 -.247E+00   -.850E-03 -.151E-02 -.103E-02
   0.263E+01 -.873E+02 0.131E+02   -.261E+01 0.874E+02 -.129E+02   -.215E-01 -.165E+00 -.189E+00   0.236E-03 -.401E-02 0.259E-02
   0.274E+02 0.493E+02 0.892E+02   -.271E+02 -.486E+02 -.897E+02   -.303E+00 -.616E+00 0.529E+00   0.170E-04 -.248E-02 0.524E-03
   0.169E+02 -.222E+02 -.102E+03   -.176E+02 0.214E+02 0.102E+03   0.691E+00 0.772E+00 -.454E-01   -.829E-03 -.252E-02 0.140E-02
   -.184E+02 -.248E+02 -.689E+02   0.190E+02 0.241E+02 0.687E+02   -.590E+00 0.649E+00 0.240E+00   0.101E-02 -.251E-02 0.239E-02
   -.243E+02 0.103E+03 -.102E+02   0.243E+02 -.104E+03 0.103E+02   -.897E-02 0.283E+00 -.110E+00   0.306E-03 0.344E-02 0.220E-02
   0.794E+02 -.340E+03 0.522E+02   -.804E+02 0.339E+03 -.521E+02   0.958E+00 0.705E+00 -.573E-01   0.692E-03 -.240E-02 0.101E-01
   0.325E+01 -.241E+03 0.131E+02   -.354E+01 0.241E+03 -.129E+02   0.292E+00 -.684E-01 -.227E+00   -.112E-02 -.108E-01 0.618E-02
   0.149E+02 0.442E+03 0.999E+02   -.145E+02 -.442E+03 -.999E+02   -.388E+00 -.993E-01 -.163E-01   -.233E-02 0.278E-02 -.101E-01
   0.509E+02 0.232E+03 0.530E+02   -.510E+02 -.232E+03 -.530E+02   0.159E-01 -.516E-01 -.329E-01   -.627E-03 0.911E-02 0.671E-02
   0.545E+02 0.171E+03 -.127E+03   -.546E+02 -.171E+03 0.126E+03   0.692E-01 0.139E+00 0.272E+00   0.185E-02 0.388E-02 0.806E-02
   0.117E+03 -.259E+02 0.135E+02   -.116E+03 0.260E+02 -.134E+02   -.101E+01 -.122E+00 -.286E-01   -.812E-03 0.310E-02 -.775E-03
   0.129E+02 0.509E+02 0.284E+02   -.127E+02 -.507E+02 -.278E+02   -.227E+00 -.178E+00 -.645E+00   -.975E-03 -.189E-02 -.735E-02
   -.851E+02 -.252E+03 0.587E+02   0.859E+02 0.252E+03 -.587E+02   -.816E+00 0.333E+00 0.198E-01   0.196E-02 -.437E-02 0.116E-02
 -----------------------------------------------------------------------------------------------
   -.177E+00 0.194E+00 -.771E-02   0.568E-13 0.568E-13 0.178E-12   0.179E+00 -.198E+00 0.736E-02   -.219E-02 0.347E-02 0.175E-05
 
 
 POSITION                                       TOTAL-FORCE (eV/Angst)
 -----------------------------------------------------------------------------------
      3.29256      3.39751     10.25702         0.000469      0.001072      0.001684
      5.34019      5.05357      1.69215        -0.000353     -0.001282     -0.002540
      1.86582      8.41951      8.39070         0.002621     -0.004930     -0.002741
      5.22612      5.12968      8.58667        -0.001830      0.002521      0.001493
      1.57185      5.11983      1.80043         0.003853      0.000819      0.003531
      6.88630      6.94325      3.51623        -0.006443      0.000054     -0.001963
      3.45943      6.89019      0.20500        -0.001147      0.000758      0.001851
      3.60140      0.32254      6.86300        -0.001172     -0.001138      0.002891
      6.83532      0.11727      6.83751         0.002088     -0.000582      0.001065
      5.06049      8.34239      8.31570         0.000554     -0.001622      0.003450
      3.44269      0.00525     -0.00080        -0.002118      0.000688     -0.001523
      5.29100      1.82054      5.03357        -0.000569      0.000579      0.002464
      1.57094      1.68818      1.75641        -0.001272      0.001836      0.001196
      5.25252      1.92290      8.71116        -0.000262      0.001025     -0.000203
      1.68465      1.76663      8.56463         0.000823      0.004050     -0.001062
      0.17570      3.40134     10.16368        -0.001483      0.002756     -0.002074
      5.17779      8.47279      5.20181        -0.002005      0.000162      0.003996
      5.19680      8.58006      1.90024         0.004697      0.006276     -0.005157
      1.68161      1.69065      5.12659        -0.002787     -0.000456      0.002786
      0.11619      3.31962      3.56122         0.001990     -0.001044      0.001213
      1.70416      5.19110      8.49325        -0.000531      0.000743     -0.001434
      1.76281      8.52951      1.93204         0.000466     -0.000597      0.005979
      3.39100      3.40135      6.91474         0.000255      0.000991     -0.001594
      1.75268      5.08642      5.14808        -0.001799     -0.001382      0.000339
      3.50724      6.87244      3.37491         0.004281      0.001634     -0.003195
      3.36434      6.54120      6.75097         0.003935     -0.000835     -0.004119
      0.07390      6.73273      6.76715        -0.001873     -0.000322     -0.003066
      6.93972     10.18981      3.51115         0.000292     -0.000131      0.000959
      3.37995      3.32562      3.39135        -0.006153     -0.006301      0.001582
      5.16300      5.07993      5.12504         0.000404     -0.000141     -0.002481
      0.01222     10.16537     10.29571         0.003690      0.001144     -0.001197
      3.50024      0.06462      3.41533         0.001124      0.001935     -0.000933
      1.80430      8.55637      5.19938        -0.001114     -0.002035     -0.003423
      5.38774      1.76366      1.64635         0.000262     -0.002359     -0.000786
      0.02239      7.01035      0.03068         0.003949     -0.003212      0.000743
      0.02377      3.37170      6.85783        -0.002838     -0.000675      0.002268
 -----------------------------------------------------------------------------------
    total drift:                               -0.000284     -0.000448     -0.000349


--------------------------------------------------------------------------------------------------------



  FREE ENERGIE OF THE ION-ELECTRON SYSTEM (eV)
  ---------------------------------------------------
  free  energy   TOTEN  =      -365.52922749 eV

  energy  without entropy=     -365.55641024  energy(sigma->0) =     -365.53828841
 
 d Force = 0.2850744E-04[ 0.271E-04, 0.299E-04]  d Energy = 0.5055856E-04-0.221E-04
 d Force =-0.1113169E+00[-0.111E+00,-0.111E+00]  d Ewald  = 0.8419081E+00-0.953E+00


--------------------------------------------------------------------------------------------------------


    POTLOK:  cpu time    0.0724: real time    0.0727


--------------------------------------------------------------------------------------------------------


 Conjugate gradient step on ions:
 trial-energy change:   -0.000051  1 .order   -0.000059   -0.000069   -0.000048
  (g-gl).g = 0.562E-04      g.g   = 0.662E-04  gl.gl    = 0.450E-04
 g(Force)  = 0.110E-04   g(Stress)= 0.553E-04 ortho     = 0.762E-05
 gamma     =   1.25035
 trial     =   0.91415
 opt step  =   2.94152  (harmonic =   2.94152) maximal distance =0.00099239
 next E    =  -365.529288   (d E  =  -0.00011)


--------------------------------------------------------------------------------------------------------


  
 reached required accuracy - stopping structural energy minimisation
     LOOP+:  cpu time    5.1881: real time    5.5515
    4ORBIT:  cpu time    0.0000: real time    0.0000

 total amount of memory used by VASP on root node    66005. kBytes
========================================================================

   base      :      30000. kBytes
   nonlr-proj:      10368. kBytes
   fftplans  :       2814. kBytes
   grid      :       5360. kBytes
   one-center:        124. kBytes
   wavefun   :      17339. kBytes
 
  
  
 General timing and accounting informations for this job:
 ========================================================
  
                  Total CPU time used (sec):      212.071
                            User time (sec):      209.423
                          System time (sec):        2.647
                         Elapsed time (sec):      229.345
  
                   Maximum memory used (kb):      274824.
                   Average memory used (kb):           0.
  
                          Minor page faults:       129233
                          Major page faults:           41
                 Voluntary context switches:         9470
