       N       E                     dE             d eps       ncg     rms          rms(c)
DAV:   1     0.172264243855E+04    0.17226E+04   -0.10642E+05  5304   0.105E+03
DAV:   2    -0.118159581955E+03   -0.18408E+04   -0.17764E+04  5504   0.378E+02
DAV:   3    -0.358621998414E+03   -0.24046E+03   -0.22819E+03  8208   0.960E+01
DAV:   4    -0.386546208335E+03   -0.27924E+02   -0.26443E+02  8136   0.298E+01
DAV:   5    -0.389317325027E+03   -0.27711E+01   -0.27104E+01  7568   0.963E+00    0.674E+01
RMM:   6    -0.378769111931E+03    0.10548E+02   -0.23834E+01  6848   0.100E+01    0.327E+01
RMM:   7    -0.381272524486E+03   -0.25034E+01   -0.29415E+01  7357   0.885E+00    0.125E+01
RMM:   8    -0.374065241673E+03    0.72073E+01   -0.75162E+00  7132   0.399E+00    0.397E+00
RMM:   9    -0.373955521216E+03    0.10972E+00   -0.25877E+00  7457   0.218E+00    0.283E+00
RMM:  10    -0.373901021751E+03    0.54499E-01   -0.49816E-01  7474   0.120E+00    0.141E+00
RMM:  11    -0.373872944405E+03    0.28077E-01   -0.14442E-01  7453   0.583E-01    0.755E-01
RMM:  12    -0.373867455841E+03    0.54886E-02   -0.52517E-02  7554   0.347E-01    0.417E-01
RMM:  13    -0.373866779796E+03    0.67604E-03   -0.17374E-02  7531   0.184E-01    0.256E-01
RMM:  14    -0.373866445547E+03    0.33425E-03   -0.69311E-03  7661   0.108E-01    0.149E-01
RMM:  15    -0.373866578686E+03   -0.13314E-03   -0.34426E-03  7605   0.700E-02    0.745E-02
RMM:  16    -0.373866588768E+03   -0.10082E-04   -0.13688E-03  6942   0.406E-02    0.411E-02
RMM:  17    -0.373866596461E+03   -0.76931E-05   -0.56018E-04  6315   0.272E-02    0.209E-02
RMM:  18    -0.373866604843E+03   -0.83819E-05   -0.23500E-04  5502   0.184E-02    0.911E-03
RMM:  19    -0.373866611053E+03   -0.62103E-05   -0.11694E-04  4315   0.136E-02    0.561E-03
RMM:  20    -0.373866610924E+03    0.12974E-06   -0.39348E-05  3759   0.114E-02
   1 F= -.37386661E+03 E0= -.37387285E+03  d E =-.373867E+03
       N       E                     dE             d eps       ncg     rms          rms(c)
DAV:   1    -0.373868321012E+03   -0.17100E-02   -0.56802E-02  5580   0.713E-01    0.195E-01
RMM:   2    -0.373868174645E+03    0.14637E-03   -0.38905E-03  7115   0.162E-01    0.778E-02
RMM:   3    -0.373868012004E+03    0.16264E-03   -0.80577E-04  7373   0.536E-02    0.550E-02
RMM:   4    -0.373867948342E+03    0.63662E-04   -0.22047E-04  7139   0.277E-02    0.309E-02
RMM:   5    -0.373867932422E+03    0.15920E-04   -0.77698E-05  5529   0.185E-02    0.199E-02
RMM:   6    -0.373867936972E+03   -0.45506E-05   -0.22850E-05  3129   0.116E-02
   2 F= -.37386794E+03 E0= -.37387425E+03  d E =-.132605E-02
       N       E                     dE             d eps       ncg     rms          rms(c)
DAV:   1    -0.373873649006E+03   -0.57166E-02   -0.51026E-01  5376   0.214E+00    0.583E-01
RMM:   2    -0.373872348271E+03    0.13007E-02   -0.34236E-02  7069   0.482E-01    0.231E-01
RMM:   3    -0.373870865303E+03    0.14830E-02   -0.71125E-03  7435   0.157E-01    0.164E-01
RMM:   4    -0.373870286085E+03    0.57922E-03   -0.19505E-03  7545   0.819E-02    0.934E-02
RMM:   5    -0.373870136362E+03    0.14972E-03   -0.72153E-04  7544   0.524E-02    0.634E-02
RMM:   6    -0.373870161806E+03   -0.25443E-04   -0.25686E-04  6858   0.275E-02    0.448E-02
RMM:   7    -0.373870182359E+03   -0.20553E-04   -0.11517E-04  5981   0.187E-02    0.256E-02
RMM:   8    -0.373870197678E+03   -0.15320E-04   -0.65943E-05  4269   0.154E-02    0.151E-02
RMM:   9    -0.373870209600E+03   -0.11922E-04   -0.42256E-05  4046   0.125E-02    0.986E-03
RMM:  10    -0.373870215821E+03   -0.62207E-05   -0.10361E-05  3030   0.986E-03
   3 F= -.37387022E+03 E0= -.37387673E+03  d E =-.360490E-02
       N       E                     dE             d eps       ncg     rms          rms(c)
DAV:   1    -0.373870871219E+03   -0.66162E-03   -0.73637E-02  5376   0.813E-01    0.221E-01
RMM:   2    -0.373870680659E+03    0.19056E-03   -0.48701E-03  7016   0.182E-01    0.872E-02
RMM:   3    -0.373870470427E+03    0.21023E-03   -0.10088E-03  7346   0.594E-02    0.607E-02
RMM:   4    -0.373870392511E+03    0.77916E-04   -0.27906E-04  7299   0.309E-02    0.339E-02
RMM:   5    -0.373870373871E+03    0.18640E-04   -0.10034E-04  6152   0.205E-02    0.224E-02
RMM:   6    -0.373870380142E+03   -0.62711E-05   -0.29605E-05  3398   0.121E-02
   4 F= -.37387038E+03 E0= -.37387697E+03  d E =-.376922E-02
       N       E                     dE             d eps       ncg     rms          rms(c)
DAV:   1    -0.373871757657E+03   -0.13838E-02   -0.62674E-02  5296   0.730E-01    0.198E-01
RMM:   2    -0.373871644455E+03    0.11320E-03   -0.36157E-03  7139   0.157E-01    0.794E-02
RMM:   3    -0.373871539091E+03    0.10536E-03   -0.82386E-04  7385   0.549E-02    0.562E-02
RMM:   4    -0.373871471852E+03    0.67238E-04   -0.22517E-04  7230   0.299E-02    0.293E-02
RMM:   5    -0.373871455414E+03    0.16439E-04   -0.79950E-05  5721   0.165E-02    0.204E-02
RMM:   6    -0.373871450564E+03    0.48497E-05   -0.20651E-05  2997   0.103E-02
   5 F= -.37387145E+03 E0= -.37387811E+03  d E =-.107042E-02
       N       E                     dE             d eps       ncg     rms          rms(c)
DAV:   1    -0.373875385949E+03   -0.39305E-02   -0.56169E-01  5136   0.219E+00    0.569E-01
RMM:   2    -0.373874235314E+03    0.11506E-02   -0.31076E-02  6899   0.464E-01    0.223E-01
RMM:   3    -0.373873225186E+03    0.10101E-02   -0.66079E-03  7413   0.161E-01    0.155E-01
RMM:   4    -0.373872713923E+03    0.51126E-03   -0.17889E-03  7537   0.867E-02    0.831E-02
RMM:   5    -0.373872615922E+03    0.98001E-04   -0.65578E-04  7613   0.444E-02    0.643E-02
RMM:   6    -0.373872608290E+03    0.76326E-05   -0.22395E-04  6816   0.237E-02    0.422E-02
RMM:   7    -0.373872602565E+03    0.57248E-05   -0.11090E-04  5997   0.186E-02    0.224E-02
RMM:   8    -0.373872599958E+03    0.26073E-05   -0.58939E-05  4247   0.148E-02
   6 F= -.37387260E+03 E0= -.37387948E+03  d E =-.221982E-02
       N       E                     dE             d eps       ncg     rms          rms(c)
DAV:   1    -0.373872625615E+03   -0.23050E-04   -0.23460E-03  5488   0.141E-01    0.406E-02
RMM:   2    -0.373872619000E+03    0.66148E-05   -0.16244E-04  7177   0.323E-02    0.196E-02
RMM:   3    -0.373872613480E+03    0.55199E-05   -0.33521E-05  3709   0.117E-02
   7 F= -.37387261E+03 E0= -.37387949E+03  d E =-.223334E-02
       N       E                     dE             d eps       ncg     rms          rms(c)
DAV:   1    -0.373872986551E+03   -0.36755E-03   -0.12303E-01  5168   0.102E+00    0.270E-01
RMM:   2    -0.373872680324E+03    0.30623E-03   -0.70280E-03  6952   0.219E-01    0.107E-01
RMM:   3    -0.373872447536E+03    0.23279E-03   -0.14848E-03  7365   0.750E-02    0.738E-02
RMM:   4    -0.373872339646E+03    0.10789E-03   -0.39484E-04  7413   0.420E-02    0.391E-02
RMM:   5    -0.373872324869E+03    0.14776E-04   -0.13725E-04  6445   0.214E-02    0.303E-02
RMM:   6    -0.373872329890E+03   -0.50204E-05   -0.41465E-05  3795   0.125E-02
   8 F= -.37387233E+03 E0= -.37387910E+03  d E =-.194975E-02
       N       E                     dE             d eps       ncg     rms          rms(c)
DAV:   1    -0.373873073097E+03   -0.74823E-03   -0.89527E-02  5128   0.873E-01    0.232E-01
RMM:   2    -0.373872905901E+03    0.16720E-03   -0.50626E-03  6838   0.186E-01    0.920E-02
RMM:   3    -0.373872739196E+03    0.16670E-03   -0.10703E-03  7334   0.646E-02    0.633E-02
RMM:   4    -0.373872647187E+03    0.92009E-04   -0.27679E-04  7345   0.350E-02    0.319E-02
RMM:   5    -0.373872628687E+03    0.18500E-04   -0.92614E-05  5906   0.181E-02    0.235E-02
RMM:   6    -0.373872622063E+03    0.66242E-05   -0.21355E-05  2986   0.113E-02
   9 F= -.37387262E+03 E0= -.37387947E+03  d E =-.224192E-02
       N       E                     dE             d eps       ncg     rms          rms(c)
DAV:   1    -0.373872620745E+03    0.79420E-05   -0.30958E-04  5072   0.536E-02    0.135E-02
RMM:   2    -0.373872619847E+03    0.89847E-06   -0.24138E-05  2980   0.128E-02
  10 F= -.37387262E+03 E0= -.37387948E+03  d E =-.223970E-02
       N       E                     dE             d eps       ncg     rms          rms(c)
DAV:   1    -0.373872731504E+03   -0.11076E-03   -0.68001E-03  4944   0.238E-01    0.215E-02
RMM:   2    -0.373872753520E+03   -0.22016E-04   -0.28492E-04  5988   0.480E-02    0.114E-02
RMM:   3    -0.373872748965E+03    0.45551E-05   -0.24746E-05  3066   0.148E-02
  11 F= -.37387275E+03 E0= -.37387961E+03  d E =-.129118E-03
       N       E                     dE             d eps       ncg     rms          rms(c)
DAV:   1    -0.373872897867E+03   -0.14435E-03   -0.61193E-02  4880   0.711E-01    0.633E-02
RMM:   2    -0.373873090419E+03   -0.19255E-03   -0.24815E-03  6726   0.142E-01    0.338E-02
RMM:   3    -0.373873079350E+03    0.11069E-04   -0.31246E-04  6748   0.382E-02    0.279E-02
RMM:   4    -0.373873070149E+03    0.92016E-05   -0.65765E-05  4730   0.135E-02
  12 F= -.37387307E+03 E0= -.37387992E+03  d E =-.450302E-03
       N       E                     dE             d eps       ncg     rms          rms(c)
DAV:   1    -0.373872686377E+03    0.39297E-03   -0.24334E-01  4856   0.142E+00    0.125E-01
RMM:   2    -0.373873455939E+03   -0.76956E-03   -0.97488E-03  6793   0.285E-01    0.659E-02
RMM:   3    -0.373873435091E+03    0.20848E-04   -0.12494E-03  7260   0.749E-02    0.552E-02
RMM:   4    -0.373873399927E+03    0.35164E-04   -0.25806E-04  6885   0.246E-02    0.345E-02
RMM:   5    -0.373873397922E+03    0.20058E-05   -0.11027E-04  6338   0.179E-02    0.178E-02
RMM:   6    -0.373873393706E+03    0.42152E-05   -0.38644E-05  3845   0.122E-02
  13 F= -.37387339E+03 E0= -.37388023E+03  d E =-.773860E-03
       N       E                     dE             d eps       ncg     rms          rms(c)
DAV:   1    -0.373873910487E+03   -0.51257E-03   -0.38560E-02  5252   0.642E-01    0.201E-01
RMM:   2    -0.373873736636E+03    0.17385E-03   -0.35824E-03  7154   0.160E-01    0.736E-02
RMM:   3    -0.373873607876E+03    0.12876E-03   -0.75013E-04  7316   0.513E-02    0.517E-02
RMM:   4    -0.373873548282E+03    0.59594E-04   -0.19652E-04  7244   0.293E-02    0.278E-02
RMM:   5    -0.373873537201E+03    0.11081E-04   -0.59897E-05  4540   0.164E-02    0.197E-02
RMM:   6    -0.373873542079E+03   -0.48773E-05   -0.22409E-05  3036   0.112E-02
  14 F= -.37387354E+03 E0= -.37388037E+03  d E =-.148372E-03
       N       E                     dE             d eps       ncg     rms          rms(c)
DAV:   1    -0.373873612085E+03   -0.74884E-04   -0.69189E-03  5264   0.274E-01    0.797E-02
RMM:   2    -0.373873587257E+03    0.24829E-04   -0.60431E-04  6898   0.679E-02    0.291E-02
RMM:   3    -0.373873566329E+03    0.20927E-04   -0.11096E-04  5966   0.208E-02    0.207E-02
RMM:   4    -0.373873558787E+03    0.75427E-05   -0.23635E-05  3006   0.139E-02
  15 F= -.37387356E+03 E0= -.37388038E+03  d E =-.165080E-03
       N       E                     dE             d eps       ncg     rms          rms(c)
DAV:   1    -0.373873737867E+03   -0.17154E-03   -0.27750E-02  5144   0.545E-01    0.165E-01
RMM:   2    -0.373873609932E+03    0.12793E-03   -0.25566E-03  6984   0.136E-01    0.601E-02
RMM:   3    -0.373873516750E+03    0.93182E-04   -0.49762E-04  7190   0.428E-02    0.421E-02
RMM:   4    -0.373873480557E+03    0.36193E-04   -0.13577E-04  6375   0.242E-02    0.246E-02
RMM:   5    -0.373873475050E+03    0.55077E-05   -0.37567E-05  3513   0.156E-02
  16 F= -.37387348E+03 E0= -.37388029E+03  d E =-.813433E-04
       N       E                     dE             d eps       ncg     rms          rms(c)
DAV:   1    -0.373873749977E+03   -0.26942E-03   -0.18672E-02  5160   0.444E-01    0.145E-01
RMM:   2    -0.373873684103E+03    0.65874E-04   -0.17450E-03  6990   0.112E-01    0.538E-02
RMM:   3    -0.373873619638E+03    0.64465E-04   -0.37678E-04  6908   0.366E-02    0.374E-02
RMM:   4    -0.373873585752E+03    0.33886E-04   -0.88573E-05  5842   0.205E-02    0.198E-02
RMM:   5    -0.373873575146E+03    0.10605E-04   -0.19581E-05  2603   0.126E-02    0.141E-02
RMM:   6    -0.373873572923E+03    0.22236E-05   -0.91105E-06  2518   0.985E-03
  17 F= -.37387357E+03 E0= -.37388039E+03  d E =-.179216E-03
       N       E                     dE             d eps       ncg     rms          rms(c)
DAV:   1    -0.373873577985E+03   -0.28391E-05   -0.38069E-04  5160   0.634E-02    0.172E-02
RMM:   2    -0.373873576626E+03    0.13593E-05   -0.27603E-05  2880   0.148E-02
  18 F= -.37387358E+03 E0= -.37388040E+03  d E =-.182920E-03
       N       E                     dE             d eps       ncg     rms          rms(c)
DAV:   1    -0.373873631874E+03   -0.53889E-04   -0.11609E-02  4888   0.301E-01    0.228E-02
RMM:   2    -0.373873661272E+03   -0.29398E-04   -0.37869E-04  5637   0.572E-02    0.124E-02
RMM:   3    -0.373873656404E+03    0.48684E-05   -0.30742E-05  3322   0.175E-02
  19 F= -.37387366E+03 E0= -.37388048E+03  d E =-.797777E-04
       N       E                     dE             d eps       ncg     rms          rms(c)
DAV:   1    -0.373873688984E+03   -0.27712E-04   -0.36835E-02  4840   0.533E-01    0.456E-02
RMM:   2    -0.373873784049E+03   -0.95064E-04   -0.12574E-03  6759   0.100E-01    0.255E-02
RMM:   3    -0.373873779237E+03    0.48116E-05   -0.18066E-04  6033   0.287E-02    0.208E-02
RMM:   4    -0.373873775456E+03    0.37807E-05   -0.41688E-05  3926   0.112E-02
  20 F= -.37387378E+03 E0= -.37388059E+03  d E =-.198830E-03
       N       E                     dE             d eps       ncg     rms          rms(c)
DAV:   1    -0.373873553192E+03    0.22605E-03   -0.14640E-01  4824   0.106E+00    0.868E-02
RMM:   2    -0.373873934768E+03   -0.38158E-03   -0.48565E-03  6559   0.203E-01    0.460E-02
RMM:   3    -0.373873931653E+03    0.31152E-05   -0.72171E-04  7004   0.567E-02    0.388E-02
RMM:   4    -0.373873919749E+03    0.11904E-04   -0.16101E-04  6136   0.187E-02    0.243E-02
RMM:   5    -0.373873919354E+03    0.39472E-06   -0.53030E-05  4460   0.127E-02
  21 F= -.37387392E+03 E0= -.37388072E+03  d E =-.342728E-03
       N       E                     dE             d eps       ncg     rms          rms(c)
DAV:   1    -0.373874920346E+03   -0.10006E-02   -0.37117E-02  6128   0.682E-01    0.261E-01
RMM:   2    -0.373874530737E+03    0.38961E-03   -0.56115E-03  7366   0.194E-01    0.102E-01
RMM:   3    -0.373874225942E+03    0.30479E-03   -0.11471E-03  7372   0.576E-02    0.649E-02
RMM:   4    -0.373874136962E+03    0.88980E-04   -0.32949E-04  7431   0.383E-02    0.368E-02
RMM:   5    -0.373874104502E+03    0.32460E-04   -0.92098E-05  5630   0.205E-02    0.242E-02
RMM:   6    -0.373874099672E+03    0.48303E-05   -0.35205E-05  3308   0.134E-02
  22 F= -.37387410E+03 E0= -.37388089E+03  d E =-.180318E-03
       N       E                     dE             d eps       ncg     rms          rms(c)
DAV:   1    -0.373874118120E+03   -0.13618E-04   -0.11224E-03  6216   0.124E-01    0.401E-02
RMM:   2    -0.373874107298E+03    0.10822E-04   -0.13351E-04  6590   0.323E-02    0.157E-02
RMM:   3    -0.373874096866E+03    0.10432E-04   -0.17212E-05  2685   0.976E-03    0.120E-02
RMM:   4    -0.373874093674E+03    0.31919E-05   -0.63666E-06  2521   0.878E-03
  23 F= -.37387409E+03 E0= -.37388089E+03  d E =-.174319E-03
       N       E                     dE             d eps       ncg     rms          rms(c)
DAV:   1    -0.373874166956E+03   -0.70091E-04   -0.44734E-03  5952   0.238E-01    0.872E-02
RMM:   2    -0.373874119270E+03    0.47686E-04   -0.66024E-04  7276   0.684E-02    0.338E-02
RMM:   3    -0.373874080313E+03    0.38957E-04   -0.12474E-04  6052   0.195E-02    0.216E-02
RMM:   4    -0.373874068015E+03    0.12298E-04   -0.23817E-05  2767   0.137E-02    0.139E-02
RMM:   5    -0.373874064426E+03    0.35881E-05   -0.10288E-05  2541   0.123E-02
  24 F= -.37387406E+03 E0= -.37388085E+03  d E =-.145072E-03
       N       E                     dE             d eps       ncg     rms          rms(c)
DAV:   1    -0.373874155678E+03   -0.87663E-04   -0.31730E-03  6104   0.199E-01    0.796E-02
RMM:   2    -0.373874116893E+03    0.38785E-04   -0.51024E-04  7247   0.584E-02    0.314E-02
RMM:   3    -0.373874092267E+03    0.24626E-04   -0.10683E-04  6116   0.177E-02    0.209E-02
RMM:   4    -0.373874082679E+03    0.95877E-05   -0.20509E-05  2549   0.128E-02
  25 F= -.37387408E+03 E0= -.37388087E+03  d E =-.163325E-03
       N       E                     dE             d eps       ncg     rms          rms(c)
DAV:   1    -0.373874084984E+03    0.72821E-05   -0.99075E-05  5024   0.377E-02    0.149E-02
RMM:   2    -0.373874082674E+03    0.23099E-05   -0.15689E-05  2505   0.119E-02
  26 F= -.37387408E+03 E0= -.37388087E+03  d E =-.163320E-03
       N       E                     dE             d eps       ncg     rms          rms(c)
DAV:   1    -0.373874082858E+03    0.21262E-05   -0.66384E-06  2696   0.121E-02    0.618E-03
RMM:   2    -0.373874084144E+03   -0.12858E-05   -0.33886E-06  2459   0.602E-03
  27 F= -.37387408E+03 E0= -.37388087E+03  d E =-.164790E-03
       N       E                     dE             d eps       ncg     rms          rms(c)
DAV:   1    -0.373874083703E+03   -0.84515E-06   -0.21955E-06  2576   0.776E-03    0.277E-03
RMM:   2    -0.373874084543E+03   -0.83988E-06   -0.10976E-06  2221   0.300E-03
  28 F= -.37387408E+03 E0= -.37388088E+03  d E =-.165189E-03
       N       E                     dE             d eps       ncg     rms          rms(c)
DAV:   1    -0.373874084894E+03   -0.11904E-05   -0.64059E-07  2576   0.360E-03    0.166E-03
RMM:   2    -0.373874085488E+03   -0.59445E-06   -0.42793E-07   953   0.206E-03
  29 F= -.37387409E+03 E0= -.37388088E+03  d E =-.166134E-03
       N       E                     dE             d eps       ncg     rms          rms(c)
DAV:   1    -0.373874085823E+03   -0.92966E-06   -0.43282E-07  2564   0.227E-03    0.150E-03
RMM:   2    -0.373874086216E+03   -0.39310E-06   -0.29101E-07   996   0.186E-03
  30 F= -.37387409E+03 E0= -.37388088E+03  d E =-.166862E-03
       N       E                     dE             d eps       ncg     rms          rms(c)
DAV:   1    -0.373874086354E+03   -0.53046E-06   -0.30326E-07  2560   0.213E-03    0.826E-04
RMM:   2    -0.373874086602E+03   -0.24806E-06   -0.12979E-07   757   0.145E-03
  31 F= -.37387409E+03 E0= -.37388088E+03  d E =-.167248E-03
       N       E                     dE             d eps       ncg     rms          rms(c)
DAV:   1    -0.373874086683E+03   -0.32880E-06   -0.17664E-07  2564   0.144E-03    0.671E-04
RMM:   2    -0.373874086844E+03   -0.16103E-06   -0.47668E-08   496   0.124E-03
  32 F= -.37387409E+03 E0= -.37388088E+03  d E =-.167490E-03
       N       E                     dE             d eps       ncg     rms          rms(c)
DAV:   1    -0.373874086935E+03   -0.25264E-06   -0.10903E-07  2560   0.120E-03    0.503E-04
RMM:   2    -0.373874087026E+03   -0.91215E-07   -0.80472E-09   267   0.955E-04
  33 F= -.37387409E+03 E0= -.37388088E+03  d E =-.167672E-03
       N       E                     dE             d eps       ncg     rms          rms(c)
DAV:   1    -0.373874087055E+03   -0.12001E-06   -0.65087E-08  2552   0.918E-04    0.375E-04
RMM:   2    -0.373874087116E+03   -0.61154E-07   -0.17269E-09   198   0.763E-04
  34 F= -.37387409E+03 E0= -.37388088E+03  d E =-.167762E-03
       N       E                     dE             d eps       ncg     rms          rms(c)
DAV:   1    -0.373874087146E+03   -0.91008E-07   -0.38827E-08  2548   0.758E-04    0.245E-04
RMM:   2    -0.373874087179E+03   -0.32294E-07    0.13944E-19   150   0.590E-04
  35 F= -.37387409E+03 E0= -.37388088E+03  d E =-.167824E-03
       N       E                     dE             d eps       ncg     rms          rms(c)
DAV:   1    -0.373874087189E+03   -0.42513E-07   -0.24883E-08  2592   0.596E-04    0.174E-04
RMM:   2    -0.373874087211E+03   -0.21853E-07    0.23166E-20   137   0.474E-04
  36 F= -.37387409E+03 E0= -.37388088E+03  d E =-.167857E-03
       N       E                     dE             d eps       ncg     rms          rms(c)
DAV:   1    -0.373874087224E+03   -0.34823E-07   -0.16782E-08  2540   0.479E-04    0.130E-04
RMM:   2    -0.373874087237E+03   -0.12893E-07    0.42025E-21   115   0.397E-04
  37 F= -.37387409E+03 E0= -.37388088E+03  d E =-.167882E-03
       N       E                     dE             d eps       ncg     rms          rms(c)
DAV:   1    -0.373874087240E+03   -0.15945E-07   -0.11381E-08  2540   0.398E-04    0.919E-05
RMM:   2    -0.373874087249E+03   -0.96807E-08    0.44471E-22   101   0.316E-04
  38 F= -.37387409E+03 E0= -.37388088E+03  d E =-.167895E-03
       N       E                     dE             d eps       ncg     rms          rms(c)
DAV:   1    -0.373874087257E+03   -0.17881E-07   -0.79620E-09  2532   0.318E-04    0.794E-05
RMM:   2    -0.373874087262E+03   -0.42965E-08    0.30666E-22    85   0.272E-04
  39 F= -.37387409E+03 E0= -.37388088E+03  d E =-.167908E-03
       N       E                     dE             d eps       ncg     rms          rms(c)
DAV:   1    -0.373875015891E+03   -0.92863E-03   -0.51195E-02  5900   0.803E-01    0.305E-01
RMM:   2    -0.373874430165E+03    0.58573E-03   -0.75338E-03  7361   0.226E-01    0.117E-01
RMM:   3    -0.373874029900E+03    0.40026E-03   -0.15293E-03  7383   0.664E-02    0.743E-02
RMM:   4    -0.373873919361E+03    0.11054E-03   -0.42880E-04  7449   0.454E-02    0.413E-02
RMM:   5    -0.373873889740E+03    0.29621E-04   -0.11674E-04  5926   0.227E-02    0.285E-02
RMM:   6    -0.373873896709E+03   -0.69684E-05   -0.45948E-05  3434   0.146E-02
  40 F= -.37387390E+03 E0= -.37388070E+03  d E =0.226455E-04
