<?xml version="1.0" encoding="ISO-8859-1"?>
<modeling>
 <generator>
  <i name="program" type="string">vasp </i>
  <i name="version" type="string">5.4.1  </i>
  <i name="subversion" type="string">05Feb16 (build Jan 29 2020 16:04:39) complex                          parallel </i>
  <i name="platform" type="string">IFC91_ompi </i>
  <i name="date" type="string">2020 06 15 </i>
  <i name="time" type="string">02:07:23 </i>
 </generator>
 <incar>
  <i type="string" name="SYSTEM"> automatically generated by mexm</i>
  <i type="int" name="ISTART">     0</i>
  <i type="string" name="PREC">accurate               ! avoid wrap aro</i>
  <i type="string" name="ALGO"> Fast                   ! blocked Davids</i>
  <i type="int" name="ISPIN">     1</i>
  <i type="int" name="ICHARG">     2</i>
  <i type="int" name="NELM">    70</i>
  <i type="int" name="IBRION">     2</i>
  <i name="EDIFF">      0.00001000</i>
  <i name="EDIFFG">     -0.01000000</i>
  <i type="int" name="NSW">   300</i>
  <i type="int" name="ISIF">     3</i>
  <i type="int" name="ISYM">     1</i>
  <i name="ENCUT">    300.00000000</i>
  <i name="POTIM">      0.15000000</i>
  <i type="string" name="LREAL"> Auto                  ! unpublished met</i>
  <i type="int" name="ISMEAR">     1</i>
  <i name="SIGMA">      0.15000000</i>
  <i type="logical" name="LWAVE"> F  </i>
  <i type="logical" name="LCHARG"> F  </i>
  <i type="logical" name="LVTOT"> F  </i>
  <v type="int" name="KPOINT_BSE">    -1     0     0     0</v>
  <i type="int" name="NELM">    70</i>
 </incar>
 <kpoints>
  <generation param="Gamma">
   <v type="int" name="divisions">       3        3        3 </v>
   <v name="usershift">      0.00000000       0.00000000       0.00000000 </v>
   <v name="genvec1">      0.33333333      -0.00000000      -0.00000000 </v>
   <v name="genvec2">      0.00000000       0.33333333       0.00000000 </v>
   <v name="genvec3">      0.00000000       0.00000000       0.33333333 </v>
   <v name="shift">      0.00000000       0.00000000       0.00000000 </v>
  </generation>
  <varray name="kpointlist" >
   <v>       0.00000000       0.00000000       0.00000000 </v>
   <v>       0.33333333      -0.00000000      -0.00000000 </v>
   <v>       0.00000000       0.33333333       0.00000000 </v>
   <v>       0.33333333       0.33333333      -0.00000000 </v>
   <v>      -0.33333333       0.33333333       0.00000000 </v>
   <v>      -0.00000000       0.00000000       0.33333333 </v>
   <v>       0.33333333      -0.00000000       0.33333333 </v>
   <v>      -0.33333333       0.00000000       0.33333333 </v>
   <v>       0.00000000       0.33333333       0.33333333 </v>
   <v>       0.33333333       0.33333333       0.33333333 </v>
   <v>      -0.33333333       0.33333333       0.33333333 </v>
   <v>       0.00000000      -0.33333333       0.33333333 </v>
   <v>       0.33333333      -0.33333333       0.33333333 </v>
   <v>      -0.33333333      -0.33333333       0.33333333 </v>
  </varray>
  <varray name="weights" >
   <v>       0.03703704 </v>
   <v>       0.07407407 </v>
   <v>       0.07407407 </v>
   <v>       0.07407407 </v>
   <v>       0.07407407 </v>
   <v>       0.07407407 </v>
   <v>       0.07407407 </v>
   <v>       0.07407407 </v>
   <v>       0.07407407 </v>
   <v>       0.07407407 </v>
   <v>       0.07407407 </v>
   <v>       0.07407407 </v>
   <v>       0.07407407 </v>
   <v>       0.07407407 </v>
  </varray>
 </kpoints>
 <parameters>
  <separator name="general" >
   <i type="string" name="SYSTEM">automatically generated by mexm</i>
   <i type="logical" name="LCOMPAT"> F  </i>
  </separator>
  <separator name="electronic" >
   <i type="string" name="PREC">accura</i>
   <i name="ENMAX">    300.00000000</i>
   <i name="ENAUG">    461.25700000</i>
   <i name="EDIFF">      0.00001000</i>
   <i type="int" name="IALGO">    68</i>
   <i type="int" name="IWAVPR">    11</i>
   <i type="int" name="NBANDS">   196</i>
   <i name="NELECT">    322.00000000</i>
   <i type="int" name="TURBO">     0</i>
   <i type="int" name="IRESTART">     0</i>
   <i type="int" name="NREBOOT">     0</i>
   <i type="int" name="NMIN">     0</i>
   <i name="EREF">      0.00000000</i>
   <separator name="electronic smearing" >
    <i type="int" name="ISMEAR">     1</i>
    <i name="SIGMA">      0.15000000</i>
    <i name="KSPACING">      0.50000000</i>
    <i type="logical" name="KGAMMA"> T  </i>
   </separator>
   <separator name="electronic projectors" >
    <i type="logical" name="LREAL"> T  </i>
    <v name="ROPT">     -0.00025000     -0.00025000     -0.00025000     -0.00025000</v>
    <i type="int" name="LMAXPAW">  -100</i>
    <i type="int" name="LMAXMIX">     2</i>
    <i type="logical" name="NLSPLINE"> F  </i>
   </separator>
   <separator name="electronic startup" >
    <i type="int" name="ISTART">     0</i>
    <i type="int" name="ICHARG">     2</i>
    <i type="int" name="INIWAV">     1</i>
   </separator>
   <separator name="electronic spin" >
    <i type="int" name="ISPIN">     1</i>
    <i type="logical" name="LNONCOLLINEAR"> F  </i>
    <v name="MAGMOM">      1.00000000      1.00000000      1.00000000      1.00000000      1.00000000      1.00000000      1.00000000      1.00000000      1.00000000      1.00000000      1.00000000      1.00000000      1.00000000      1.00000000      1.00000000      1.00000000      1.00000000      1.00000000      1.00000000      1.00000000
      1.00000000      1.00000000      1.00000000      1.00000000      1.00000000      1.00000000      1.00000000      1.00000000      1.00000000      1.00000000      1.00000000      1.00000000      1.00000000      1.00000000      1.00000000      1.00000000</v>
    <i name="NUPDOWN">     -1.00000000</i>
    <i type="logical" name="LSORBIT"> F  </i>
    <v name="SAXIS">      0.00000000      0.00000000      1.00000000</v>
    <i type="logical" name="LSPIRAL"> F  </i>
    <v name="QSPIRAL">      0.00000000      0.00000000      0.00000000</v>
    <i type="logical" name="LZEROZ"> F  </i>
   </separator>
   <separator name="electronic exchange-correlation" >
    <i type="logical" name="LASPH"> F  </i>
    <i type="logical" name="LMETAGGA"> F  </i>
   </separator>
   <separator name="electronic convergence" >
    <i type="int" name="NELM">    70</i>
    <i type="int" name="NELMDL">    -5</i>
    <i type="int" name="NELMIN">     2</i>
    <i name="ENINI">    300.00000000</i>
    <separator name="electronic convergence detail" >
     <i type="logical" name="LDIAG"> T  </i>
     <i type="logical" name="LSUBROT"> F  </i>
     <i name="WEIMIN">      0.00100000</i>
     <i name="EBREAK">      0.00000001</i>
     <i name="DEPER">      0.30000000</i>
     <i type="int" name="NRMM">     4</i>
     <i name="TIME">      0.40000000</i>
    </separator>
   </separator>
   <separator name="electronic mixer" >
    <i name="AMIX">      0.40000000</i>
    <i name="BMIX">      1.00000000</i>
    <i name="AMIN">      0.10000000</i>
    <i name="AMIX_MAG">      1.60000000</i>
    <i name="BMIX_MAG">      1.00000000</i>
    <separator name="electronic mixer details" >
     <i type="int" name="IMIX">     4</i>
     <i type="logical" name="MIXFIRST"> F  </i>
     <i type="int" name="MAXMIX">   -45</i>
     <i name="WC">    100.00000000</i>
     <i type="int" name="INIMIX">     1</i>
     <i type="int" name="MIXPRE">     1</i>
     <i type="int" name="MREMOVE">     5</i>
    </separator>
   </separator>
   <separator name="electronic dipolcorrection" >
    <i type="logical" name="LDIPOL"> F  </i>
    <i type="logical" name="LMONO"> F  </i>
    <i type="int" name="IDIPOL">     0</i>
    <i name="EPSILON">      1.00000000</i>
    <v name="DIPOL">   -100.00000000   -100.00000000   -100.00000000</v>
    <i name="EFIELD">      0.00000000</i>
   </separator>
  </separator>
  <separator name="grids" >
   <i type="int" name="NGX">    40</i>
   <i type="int" name="NGY">    60</i>
   <i type="int" name="NGZ">    60</i>
   <i type="int" name="NGXF">    80</i>
   <i type="int" name="NGYF">   120</i>
   <i type="int" name="NGZF">   120</i>
   <i type="logical" name="ADDGRID"> F  </i>
  </separator>
  <separator name="ionic" >
   <i type="int" name="NSW">   300</i>
   <i type="int" name="IBRION">     2</i>
   <i type="int" name="ISIF">     3</i>
   <i name="PSTRESS">      0.00000000</i>
   <i name="EDIFFG">     -0.01000000</i>
   <i type="int" name="NFREE">     1</i>
   <i name="POTIM">      0.15000000</i>
   <i name="SMASS">     -3.00000000</i>
   <i name="SCALEE">      1.00000000</i>
  </separator>
  <separator name="ionic md" >
   <i name="TEBEG">      0.00010000</i>
   <i name="TEEND">      0.00010000</i>
   <i type="int" name="NBLOCK">     1</i>
   <i type="int" name="KBLOCK">   300</i>
   <i type="int" name="NPACO">   256</i>
   <i name="APACO">     16.00000000</i>
  </separator>
  <separator name="symmetry" >
   <i type="int" name="ISYM">     1</i>
   <i name="SYMPREC">      0.00001000</i>
  </separator>
  <separator name="dos" >
   <i type="logical" name="LORBIT"> F  </i>
   <v name="RWIGS">     -1.00000000     -1.00000000     -1.00000000     -1.00000000</v>
   <i type="int" name="NEDOS">   301</i>
   <i name="EMIN">     10.00000000</i>
   <i name="EMAX">    -10.00000000</i>
   <i name="EFERMI">      0.00000000</i>
  </separator>
  <separator name="writing" >
   <i type="int" name="NWRITE">     2</i>
   <i type="logical" name="LWAVE"> F  </i>
   <i type="logical" name="LCHARG"> F  </i>
   <i type="logical" name="LPARD"> F  </i>
   <i type="logical" name="LVTOT"> F  </i>
   <i type="logical" name="LVHAR"> F  </i>
   <i type="logical" name="LELF"> F  </i>
   <i type="logical" name="LOPTICS"> F  </i>
   <v name="STM">      0.00000000      0.00000000      0.00000000      0.00000000      0.00000000      0.00000000      0.00000000</v>
  </separator>
  <separator name="performance" >
   <i type="int" name="NPAR">     4</i>
   <i type="int" name="NSIM">     4</i>
   <i type="int" name="NBLK">    -1</i>
   <i type="logical" name="LPLANE"> T  </i>
   <i type="logical" name="LSCALAPACK"> T  </i>
   <i type="logical" name="LSCAAWARE"> F  </i>
   <i type="logical" name="LSCALU"> F  </i>
   <i type="logical" name="LASYNC"> F  </i>
   <i type="logical" name="LORBITALREAL"> F  </i>
  </separator>
  <separator name="miscellaneous" >
   <i type="int" name="IDIOT">     3</i>
   <i type="logical" name="LMUSIC"> F  </i>
   <v name="POMASS">    180.94800000     91.22400000    178.49000000     92.91000000</v>
   <v name="DARWINR">      0.00000000      0.00000000      0.00000000      0.00000000</v>
   <v name="DARWINV">      1.00000000      1.00000000      1.00000000      1.00000000</v>
   <i type="logical" name="LCORR"> T  </i>
  </separator>
  <i type="logical" name="GGA_COMPAT"> T  </i>
  <i type="logical" name="LBERRY"> F  </i>
  <i type="int" name="ICORELEVEL">     0</i>
  <i type="logical" name="LDAU"> F  </i>
  <i type="int" name="I_CONSTRAINED_M">     0</i>
  <separator name="electronic exchange-correlation" >
   <i type="string" name="GGA">--</i>
   <i type="int" name="VOSKOWN">     0</i>
   <i type="logical" name="LHFCALC"> F  </i>
   <i type="string" name="PRECFOCK"></i>
   <i type="logical" name="LSYMGRAD"> F  </i>
   <i type="logical" name="LHFONE"> F  </i>
   <i type="logical" name="LRHFCALC"> F  </i>
   <i type="logical" name="LTHOMAS"> F  </i>
   <i type="logical" name="LMODELHF"> F  </i>
   <i name="ENCUT4O">     -1.00000000</i>
   <i type="int" name="EXXOEP">     0</i>
   <i type="int" name="FOURORBIT">     0</i>
   <i name="AEXX">      0.00000000</i>
   <i name="HFALPHA">      0.00000000</i>
   <i name="MCALPHA">      0.00000000</i>
   <i name="ALDAX">      1.00000000</i>
   <i name="AGGAX">      1.00000000</i>
   <i name="ALDAC">      1.00000000</i>
   <i name="AGGAC">      1.00000000</i>
   <i type="int" name="NKREDX">     1</i>
   <i type="int" name="NKREDY">     1</i>
   <i type="int" name="NKREDZ">     1</i>
   <i type="logical" name="SHIFTRED"> F  </i>
   <i type="logical" name="ODDONLY"> F  </i>
   <i type="logical" name="EVENONLY"> F  </i>
   <i type="int" name="LMAXFOCK">     0</i>
   <i type="int" name="NMAXFOCKAE">     0</i>
   <i type="logical" name="LFOCKAEDFT"> F  </i>
   <i name="HFSCREEN">      0.00000000</i>
   <i name="HFSCREENC">      0.00000000</i>
   <i type="int" name="NBANDSGWLOW">     0</i>
  </separator>
  <separator name="vdW DFT" >
   <i type="logical" name="LUSE_VDW"> F  </i>
   <i name="Zab_VDW">     -0.84910000</i>
   <i name="PARAM1">      0.12340000</i>
   <i name="PARAM2">      1.00000000</i>
   <i name="PARAM3">      0.00000000</i>
  </separator>
  <separator name="model GW" >
   <i type="int" name="MODEL_GW">     0</i>
   <i name="MODEL_EPS0">     12.10663510</i>
   <i name="MODEL_ALPHA">      1.00000000</i>
  </separator>
  <separator name="linear response parameters" >
   <i type="logical" name="LEPSILON"> F  </i>
   <i type="logical" name="LRPA"> F  </i>
   <i type="logical" name="LNABLA"> F  </i>
   <i type="logical" name="LVEL"> F  </i>
   <i type="int" name="KINTER">     0</i>
   <i name="CSHIFT">      0.10000000</i>
   <i name="OMEGAMAX">     -1.00000000</i>
   <i name="DEG_THRESHOLD">      0.00200000</i>
  </separator>
  <separator name="orbital magnetization" >
   <i type="logical" name="NUCIND"> F  </i>
   <v name="MAGPOS">      0.00000000      0.00000000      0.00000000</v>
   <i type="logical" name="LNICSALL"> T  </i>
   <i type="logical" name="ORBITALMAG"> F  </i>
   <i type="logical" name="LMAGBLOCH"> F  </i>
   <i type="logical" name="LCHIMAG"> F  </i>
   <i type="logical" name="LGAUGE"> T  </i>
   <i type="int" name="MAGATOM">     0</i>
   <v name="MAGDIPOL">      0.00000000      0.00000000      0.00000000</v>
   <v name="AVECCONST">      0.00000000      0.00000000      0.00000000</v>
  </separator>
  <separator name="response functions" >
   <i type="logical" name="LADDER"> F  </i>
   <i type="logical" name="LFXC"> F  </i>
   <i type="logical" name="LHARTREE"> T  </i>
   <i type="int" name="IBSE">     0</i>
   <v type="int" name="KPOINT">    -1     0     0     0</v>
   <i type="logical" name="LTCTE"> F  </i>
   <i type="logical" name="LTETE"> F  </i>
   <i type="logical" name="LTRIPLET"> F  </i>
   <i type="logical" name="LFXCEPS"> F  </i>
   <i type="logical" name="LFXHEG"> F  </i>
   <i type="int" name="NATURALO">     0</i>
   <i type="logical" name="L2ORDER"> F  </i>
   <i type="logical" name="LUSEW"> F  </i>
   <i name="ENCUTGW">     -2.00000000</i>
   <i name="ENCUTGWSOFT">     -2.00000000</i>
   <i name="ENCUTLF">     -1.00000000</i>
   <i type="int" name="LMAXMP2">    -1</i>
   <i name="SCISSOR">      0.00000000</i>
   <i type="int" name="NOMEGA">     0</i>
   <i type="int" name="NOMEGAR">     0</i>
   <i type="int" name="NBANDSGW">    -1</i>
   <i type="int" name="NBANDSO">    -1</i>
   <i type="int" name="NBANDSV">    -1</i>
   <i type="int" name="NELM">    70</i>
   <i type="int" name="NELMHF">     1</i>
   <i type="int" name="DIM">     3</i>
   <i type="int" name="ANTIRES">     0</i>
   <i name="OMEGAMAX">    -30.00000000</i>
   <i name="OMEGAMIN">    -30.00000000</i>
   <i name="OMEGATL">   -200.00000000</i>
   <i type="int" name="OMEGAGRID">     0</i>
   <i name="CSHIFT">     -0.10000000</i>
   <i type="logical" name="SELFENERGY"> F  </i>
   <i type="logical" name="LSPECTRAL"> F  </i>
   <i type="logical" name="LSPECTRALGW"> F  </i>
   <i type="logical" name="LSINGLES"> F  </i>
   <i type="logical" name="LFERMIGW"> F  </i>
   <i type="logical" name="ODDONLYGW"> F  </i>
   <i type="logical" name="EVENONLYGW"> F  </i>
   <i type="int" name="NKREDLFX">     1</i>
   <i type="int" name="NKREDLFY">     1</i>
   <i type="int" name="NKREDLFZ">     1</i>
   <i type="int" name="MAXMEM">  1800</i>
   <i type="int" name="TELESCOPE">     0</i>
   <i type="int" name="TAUPAR">     1</i>
   <i type="int" name="OMEGAPAR">    -1</i>
   <i name="LAMBDA">      1.00000000</i>
  </separator>
  <separator name="External order field" >
   <i name="OFIELD_KAPPA">      0.00000000</i>
   <v name="OFIELD_K">      0.00000000      0.00000000      0.00000000</v>
   <i name="OFIELD_Q6_NEAR">      0.00000000</i>
   <i name="OFIELD_Q6_FAR">      0.00000000</i>
   <i name="OFIELD_A">      0.00000000</i>
  </separator>
 </parameters>
 <atominfo>
  <atoms>      36 </atoms>
  <types>       4 </types>
  <array name="atoms" >
   <dimension dim="1">ion</dimension>
   <field type="string">element</field>
   <field type="int">atomtype</field>
   <set>
    <rc><c>Ta</c><c>   1</c></rc>
    <rc><c>Ta</c><c>   1</c></rc>
    <rc><c>Ta</c><c>   1</c></rc>
    <rc><c>Ta</c><c>   1</c></rc>
    <rc><c>Ta</c><c>   1</c></rc>
    <rc><c>Ta</c><c>   1</c></rc>
    <rc><c>Ta</c><c>   1</c></rc>
    <rc><c>Ta</c><c>   1</c></rc>
    <rc><c>Zr</c><c>   2</c></rc>
    <rc><c>Zr</c><c>   2</c></rc>
    <rc><c>Zr</c><c>   2</c></rc>
    <rc><c>Zr</c><c>   2</c></rc>
    <rc><c>Zr</c><c>   2</c></rc>
    <rc><c>Zr</c><c>   2</c></rc>
    <rc><c>Zr</c><c>   2</c></rc>
    <rc><c>Zr</c><c>   2</c></rc>
    <rc><c>Zr</c><c>   2</c></rc>
    <rc><c>Zr</c><c>   2</c></rc>
    <rc><c>Hf</c><c>   3</c></rc>
    <rc><c>Hf</c><c>   3</c></rc>
    <rc><c>Hf</c><c>   3</c></rc>
    <rc><c>Hf</c><c>   3</c></rc>
    <rc><c>Hf</c><c>   3</c></rc>
    <rc><c>Hf</c><c>   3</c></rc>
    <rc><c>Hf</c><c>   3</c></rc>
    <rc><c>Hf</c><c>   3</c></rc>
    <rc><c>Nb</c><c>   4</c></rc>
    <rc><c>Nb</c><c>   4</c></rc>
    <rc><c>Nb</c><c>   4</c></rc>
    <rc><c>Nb</c><c>   4</c></rc>
    <rc><c>Nb</c><c>   4</c></rc>
    <rc><c>Nb</c><c>   4</c></rc>
    <rc><c>Nb</c><c>   4</c></rc>
    <rc><c>Nb</c><c>   4</c></rc>
    <rc><c>Nb</c><c>   4</c></rc>
    <rc><c>Nb</c><c>   4</c></rc>
   </set>
  </array>
  <array name="atomtypes" >
   <dimension dim="1">type</dimension>
   <field type="int">atomspertype</field>
   <field type="string">element</field>
   <field>mass</field>
   <field>valence</field>
   <field type="string">pseudopotential</field>
   <set>
    <rc><c>   8</c><c>Ta</c><c>    180.94800000</c><c>      5.00000000</c><c>  PAW_PBE Ta 17Jan2003                  </c></rc>
    <rc><c>  10</c><c>Zr</c><c>     91.22400000</c><c>     12.00000000</c><c>  PAW_PBE Zr_sv 04Jan2005               </c></rc>
    <rc><c>   8</c><c>Hf</c><c>    178.49000000</c><c>      4.00000000</c><c>  PAW_PBE Hf 20Jan2003                  </c></rc>
    <rc><c>  10</c><c>Nb</c><c>     92.91000000</c><c>     13.00000000</c><c>  PAW_PBE Nb_sv 25May2007               </c></rc>
   </set>
  </array>
 </atominfo>
 <structure name="initialpos" >
  <crystal>
   <varray name="basis" >
    <v>       6.91770351       0.03698333       0.00416524 </v>
    <v>       0.05466190      10.22344657       0.00564677 </v>
    <v>       0.00649478       0.00540733      10.27136427 </v>
   </varray>
   <i name="volume">    726.39810575 </i>
   <varray name="rec_basis" >
    <v>       0.14456083      -0.00077288      -0.00009100 </v>
    <v>      -0.00052292       0.09781720      -0.00005116 </v>
    <v>      -0.00005833      -0.00005346       0.09735812 </v>
   </varray>
  </crystal>
  <varray name="positions" >
   <v>       0.25969000       0.18013300       0.17280700 </v>
   <v>       0.03509700       0.00338200       0.33090600 </v>
   <v>       0.02556800       0.99506700       0.67642600 </v>
   <v>       0.25754900       0.18568100       0.82535000 </v>
   <v>       0.50239500       0.34367600       0.34251500 </v>
   <v>       0.75587400       0.49971800       0.49999200 </v>
   <v>       0.48762500       0.33751000       0.64514000 </v>
   <v>       0.50294500       0.65972100       0.34780200 </v>
   <v>       0.74648300       0.17139500       0.81967400 </v>
   <v>       0.01561000       0.00138900       0.99398000 </v>
   <v>       0.23208800       0.17514100       0.50065700 </v>
   <v>       0.25843000       0.50059300       0.16710400 </v>
   <v>       0.49177700       0.99914200       0.99181200 </v>
   <v>       0.74607600       0.16196700       0.17880300 </v>
   <v>       0.46922500       0.99142500       0.33858000 </v>
   <v>       0.74152400       0.48539000       0.81833500 </v>
   <v>       0.52700400       0.67523800       0.99588500 </v>
   <v>       0.49460000       0.67406400       0.65866100 </v>
   <v>       0.99634600       0.33032700       0.00686400 </v>
   <v>       0.25685900       0.49440400       0.83404800 </v>
   <v>       0.97083300       0.66380100       0.99207000 </v>
   <v>       0.23872900       0.81243700       0.17162100 </v>
   <v>       0.76297300       0.16891500       0.50047900 </v>
   <v>       0.47711600       0.99392300       0.67251100 </v>
   <v>       0.76611100       0.83706600       0.18752000 </v>
   <v>       0.77013700       0.84026000       0.49794300 </v>
   <v>       0.99406800       0.34106800       0.32515300 </v>
   <v>       0.23972900       0.50140600       0.49744900 </v>
   <v>       0.00854600       0.34103800       0.66349900 </v>
   <v>       0.99652100       0.65441100       0.34400200 </v>
   <v>       0.22690000       0.82702200       0.49942700 </v>
   <v>       0.23489600       0.81833100       0.83211600 </v>
   <v>       0.49878200       0.32208800       0.00881800 </v>
   <v>       0.74075400       0.49536000       0.18171600 </v>
   <v>       0.76852000       0.84640000       0.81302400 </v>
   <v>       0.00262700       0.67111000       0.66730800 </v>
  </varray>
 </structure>
 <calculation>
  <scstep>
   <time name="dav">    1.24    1.25</time>
   <time name="total">    1.43    1.77</time>
   <energy>
    <i name="alphaZ">   1685.08682580 </i>
    <i name="ewald"> -23305.56078522 </i>
    <i name="hartreedc">  -7466.48769191 </i>
    <i name="XCdc">    110.32058908 </i>
    <i name="pawpsdc">  24881.20780484 </i>
    <i name="pawaedc"> -23439.17733493 </i>
    <i name="eentropy">      0.00539891 </i>
    <i name="bandstr">   -275.68923489 </i>
    <i name="atom">  30045.25396203 </i>
    <i name="e_fr_energy">   2234.95953372 </i>
    <i name="e_wo_entrp">   2234.95413481 </i>
    <i name="e_0_energy">   2234.95773408 </i>
   </energy>
  </scstep>
  <scstep>
   <time name="dav">    1.18    1.18</time>
   <time name="total">    1.18    1.32</time>
   <energy>
    <i name="e_fr_energy">    -51.18338817 </i>
    <i name="e_wo_entrp">    -51.18078186 </i>
    <i name="e_0_energy">    -51.18251940 </i>
   </energy>
  </scstep>
  <scstep>
   <time name="dav">    1.56    1.61</time>
   <time name="total">    1.56    1.64</time>
   <energy>
    <i name="e_fr_energy">   -336.58857847 </i>
    <i name="e_wo_entrp">   -336.58458084 </i>
    <i name="e_0_energy">   -336.58724593 </i>
   </energy>
  </scstep>
  <scstep>
   <time name="dav">    1.50    1.51</time>
   <time name="total">    1.50    1.56</time>
   <energy>
    <i name="e_fr_energy">   -369.70594723 </i>
    <i name="e_wo_entrp">   -369.70421949 </i>
    <i name="e_0_energy">   -369.70537132 </i>
   </energy>
  </scstep>
  <scstep>
   <time name="dav">    1.48    1.58</time>
   <time name="total">    1.53    1.69</time>
   <energy>
    <i name="e_fr_energy">   -373.02766779 </i>
    <i name="e_wo_entrp">   -373.02774789 </i>
    <i name="e_0_energy">   -373.02769449 </i>
   </energy>
  </scstep>
  <scstep>
   <time name="diag">    0.11    0.11</time>
   <time name="diis">    0.72    0.93</time>
   <time name="orth">    0.01    0.01</time>
   <time name="total">    0.92    1.25</time>
   <energy>
    <i name="e_fr_energy">   -362.56486588 </i>
    <i name="e_wo_entrp">   -362.57133661 </i>
    <i name="e_0_energy">   -362.56702279 </i>
   </energy>
  </scstep>
  <scstep>
   <time name="diag">    0.09    0.09</time>
   <time name="diis">    0.81    0.83</time>
   <time name="orth">    0.02    0.02</time>
   <time name="total">    0.99    1.04</time>
   <energy>
    <i name="e_fr_energy">   -364.88648455 </i>
    <i name="e_wo_entrp">   -364.88018318 </i>
    <i name="e_0_energy">   -364.88438409 </i>
   </energy>
  </scstep>
  <scstep>
   <time name="diag">    0.09    0.09</time>
   <time name="diis">    0.82    0.83</time>
   <time name="orth">    0.02    0.02</time>
   <time name="total">    1.00    1.04</time>
   <energy>
    <i name="e_fr_energy">   -358.62521245 </i>
    <i name="e_wo_entrp">   -358.64630847 </i>
    <i name="e_0_energy">   -358.63224445 </i>
   </energy>
  </scstep>
  <scstep>
   <time name="diag">    0.09    0.09</time>
   <time name="diis">    0.91    0.91</time>
   <time name="orth">    0.01    0.01</time>
   <time name="total">    1.10    1.13</time>
   <energy>
    <i name="e_fr_energy">   -358.52115666 </i>
    <i name="e_wo_entrp">   -358.53878566 </i>
    <i name="e_0_energy">   -358.52703299 </i>
   </energy>
  </scstep>
  <scstep>
   <time name="diag">    0.10    0.10</time>
   <time name="diis">    0.84    0.85</time>
   <time name="orth">    0.01    0.01</time>
   <time name="total">    1.07    1.10</time>
   <energy>
    <i name="e_fr_energy">   -358.47771642 </i>
    <i name="e_wo_entrp">   -358.49886388 </i>
    <i name="e_0_energy">   -358.48476558 </i>
   </energy>
  </scstep>
  <scstep>
   <time name="diag">    0.09    0.09</time>
   <time name="diis">    0.82    0.83</time>
   <time name="orth">    0.01    0.01</time>
   <time name="total">    0.99    1.03</time>
   <energy>
    <i name="e_fr_energy">   -358.43437311 </i>
    <i name="e_wo_entrp">   -358.45451644 </i>
    <i name="e_0_energy">   -358.44108755 </i>
   </energy>
  </scstep>
  <scstep>
   <time name="diag">    0.09    0.09</time>
   <time name="diis">    0.83    0.83</time>
   <time name="orth">    0.01    0.02</time>
   <time name="total">    1.00    1.03</time>
   <energy>
    <i name="e_fr_energy">   -358.43134468 </i>
    <i name="e_wo_entrp">   -358.45214472 </i>
    <i name="e_0_energy">   -358.43827803 </i>
   </energy>
  </scstep>
  <scstep>
   <time name="diag">    0.09    0.09</time>
   <time name="diis">    0.83    0.84</time>
   <time name="orth">    0.01    0.01</time>
   <time name="total">    1.00    1.04</time>
   <energy>
    <i name="e_fr_energy">   -358.42917504 </i>
    <i name="e_wo_entrp">   -358.45005970 </i>
    <i name="e_0_energy">   -358.43613659 </i>
   </energy>
  </scstep>
  <scstep>
   <time name="diag">    0.09    0.09</time>
   <time name="diis">    0.89    0.93</time>
   <time name="orth">    0.02    0.02</time>
   <time name="total">    1.07    1.15</time>
   <energy>
    <i name="e_fr_energy">   -358.42930135 </i>
    <i name="e_wo_entrp">   -358.44995166 </i>
    <i name="e_0_energy">   -358.43618479 </i>
   </energy>
  </scstep>
  <scstep>
   <time name="diag">    0.24    0.24</time>
   <time name="diis">    0.93    0.95</time>
   <time name="orth">    0.02    0.02</time>
   <time name="total">    1.29    1.36</time>
   <energy>
    <i name="e_fr_energy">   -358.42941122 </i>
    <i name="e_wo_entrp">   -358.45022112 </i>
    <i name="e_0_energy">   -358.43634785 </i>
   </energy>
  </scstep>
  <scstep>
   <time name="diag">    0.14    0.14</time>
   <time name="diis">    0.77    0.77</time>
   <time name="orth">    0.02    0.02</time>
   <time name="total">    1.01    1.05</time>
   <energy>
    <i name="e_fr_energy">   -358.42943499 </i>
    <i name="e_wo_entrp">   -358.45018442 </i>
    <i name="e_0_energy">   -358.43635147 </i>
   </energy>
  </scstep>
  <scstep>
   <time name="diag">    0.09    0.09</time>
   <time name="diis">    0.67    0.67</time>
   <time name="orth">    0.01    0.02</time>
   <time name="total">    1.07    1.16</time>
   <energy>
    <i name="e_fr_energy">   -358.42943974 </i>
    <i name="e_wo_entrp">   -358.45022650 </i>
    <i name="e_0_energy">   -358.43636866 </i>
   </energy>
  </scstep>
  <scstep>
   <time name="diag">    0.09    0.09</time>
   <time name="diis">    0.70    0.71</time>
   <time name="orth">    0.01    0.01</time>
   <time name="total">    0.89    0.92</time>
   <energy>
    <i name="e_fr_energy">   -358.42944964 </i>
    <i name="e_wo_entrp">   -358.45024597 </i>
    <i name="e_0_energy">   -358.43638175 </i>
   </energy>
  </scstep>
  <scstep>
   <time name="diag">    0.09    0.09</time>
   <time name="diis">    0.54    0.54</time>
   <time name="orth">    0.01    0.01</time>
   <time name="total">    0.68    0.71</time>
   <energy>
    <i name="alphaZ">   1685.08682580 </i>
    <i name="ewald"> -23305.56078522 </i>
    <i name="hartreedc">  -7190.84059241 </i>
    <i name="XCdc">    105.44842031 </i>
    <i name="pawpsdc">  37775.69858886 </i>
    <i name="pawaedc"> -36305.31455558 </i>
    <i name="eentropy">      0.02079227 </i>
    <i name="bandstr">  -3168.22210717 </i>
    <i name="atom">  30045.25396203 </i>
    <i name="e_fr_energy">   -358.42945110 </i>
    <i name="e_wo_entrp">   -358.45024337 </i>
    <i name="e_0_energy">   -358.43638186 </i>
   </energy>
  </scstep>
  <structure>
   <crystal>
    <varray name="basis" >
     <v>       6.91770351       0.03698333       0.00416524 </v>
     <v>       0.05466190      10.22344657       0.00564677 </v>
     <v>       0.00649478       0.00540733      10.27136427 </v>
    </varray>
    <i name="volume">    726.39810575 </i>
    <varray name="rec_basis" >
     <v>       0.14456083      -0.00077288      -0.00009100 </v>
     <v>      -0.00052292       0.09781720      -0.00005116 </v>
     <v>      -0.00005833      -0.00005346       0.09735812 </v>
    </varray>
   </crystal>
   <varray name="positions" >
    <v>       0.25969000       0.18013300       0.17280700 </v>
    <v>       0.03509700       0.00338200       0.33090600 </v>
    <v>       0.02556800       0.99506700       0.67642600 </v>
    <v>       0.25754900       0.18568100       0.82535000 </v>
    <v>       0.50239500       0.34367600       0.34251500 </v>
    <v>       0.75587400       0.49971800       0.49999200 </v>
    <v>       0.48762500       0.33751000       0.64514000 </v>
    <v>       0.50294500       0.65972100       0.34780200 </v>
    <v>       0.74648300       0.17139500       0.81967400 </v>
    <v>       0.01561000       0.00138900       0.99398000 </v>
    <v>       0.23208800       0.17514100       0.50065700 </v>
    <v>       0.25843000       0.50059300       0.16710400 </v>
    <v>       0.49177700       0.99914200       0.99181200 </v>
    <v>       0.74607600       0.16196700       0.17880300 </v>
    <v>       0.46922500       0.99142500       0.33858000 </v>
    <v>       0.74152400       0.48539000       0.81833500 </v>
    <v>       0.52700400       0.67523800       0.99588500 </v>
    <v>       0.49460000       0.67406400       0.65866100 </v>
    <v>       0.99634600       0.33032700       0.00686400 </v>
    <v>       0.25685900       0.49440400       0.83404800 </v>
    <v>       0.97083300       0.66380100       0.99207000 </v>
    <v>       0.23872900       0.81243700       0.17162100 </v>
    <v>       0.76297300       0.16891500       0.50047900 </v>
    <v>       0.47711600       0.99392300       0.67251100 </v>
    <v>       0.76611100       0.83706600       0.18752000 </v>
    <v>       0.77013700       0.84026000       0.49794300 </v>
    <v>       0.99406800       0.34106800       0.32515300 </v>
    <v>       0.23972900       0.50140600       0.49744900 </v>
    <v>       0.00854600       0.34103800       0.66349900 </v>
    <v>       0.99652100       0.65441100       0.34400200 </v>
    <v>       0.22690000       0.82702200       0.49942700 </v>
    <v>       0.23489600       0.81833100       0.83211600 </v>
    <v>       0.49878200       0.32208800       0.00881800 </v>
    <v>       0.74075400       0.49536000       0.18171600 </v>
    <v>       0.76852000       0.84640000       0.81302400 </v>
    <v>       0.00262700       0.67111000       0.66730800 </v>
   </varray>
  </structure>
  <varray name="forces" >
   <v>      -0.00263672       0.01044498      -0.01331691 </v>
   <v>      -0.00313367      -0.00773835       0.00651722 </v>
   <v>       0.04428213      -0.05163297      -0.03296441 </v>
   <v>      -0.04319275       0.01439422      -0.00047348 </v>
   <v>       0.00355357       0.00793402      -0.00495530 </v>
   <v>      -0.00259366       0.00532062       0.00127236 </v>
   <v>      -0.03147313       0.06085458      -0.02550324 </v>
   <v>       0.00255356      -0.00078517       0.00305212 </v>
   <v>       0.02312104      -0.03138569       0.10138987 </v>
   <v>       0.02128192      -0.01032466       0.00041787 </v>
   <v>       0.00334391      -0.00131120       0.01359715 </v>
   <v>      -0.00447149      -0.00530614      -0.00408148 </v>
   <v>      -0.01593412      -0.02518360       0.01176210 </v>
   <v>      -0.00728107       0.00746462       0.04826394 </v>
   <v>       0.00871226      -0.00102449      -0.00118905 </v>
   <v>      -0.00433746       0.08221200       0.00713628 </v>
   <v>       0.00242372       0.00143042      -0.00113964 </v>
   <v>       0.00342819      -0.00810199      -0.00099393 </v>
   <v>       0.02866763       0.02268301       0.03176737 </v>
   <v>      -0.00686825      -0.01906992      -0.00007597 </v>
   <v>      -0.00119729       0.00743170      -0.00011887 </v>
   <v>      -0.00606685       0.00294770      -0.00685169 </v>
   <v>       0.00749601       0.00823858      -0.11148931 </v>
   <v>      -0.02687122      -0.02599181      -0.02374120 </v>
   <v>       0.00193933       0.00397219      -0.01167237 </v>
   <v>       0.00857045       0.00939135       0.00741904 </v>
   <v>       0.00060658      -0.01224915      -0.00244239 </v>
   <v>      -0.00449332      -0.01005026       0.01442004 </v>
   <v>       0.02856892       0.03720052      -0.03930196 </v>
   <v>       0.00230121      -0.00406856      -0.00404804 </v>
   <v>      -0.01507040       0.00071266       0.00937062 </v>
   <v>      -0.00921411       0.01874968       0.00421637 </v>
   <v>      -0.02662753       0.01988123       0.02711598 </v>
   <v>      -0.00297358      -0.00052466       0.00053111 </v>
   <v>       0.02983225      -0.10952097       0.00033414 </v>
   <v>      -0.00624609       0.00300549      -0.00422432 </v>
  </varray>
  <varray name="stress" >
   <v>       1.30475725      -0.05452038      -0.04881013 </v>
   <v>      -0.05452036       1.28854935      -0.01716234 </v>
   <v>      -0.04881018      -0.01716233       0.76311695 </v>
  </varray>
  <energy>
   <i name="e_fr_energy">   -358.42945110 </i>
   <i name="e_wo_entrp">   -358.43638186 </i>
   <i name="e_0_energy">      0.02079227 </i>
  </energy>
  <time name="totalsc">   22.95   24.80</time>
 </calculation>
 <calculation>
  <scstep>
   <time name="dav">    1.15    1.16</time>
   <time name="total">    1.33    1.48</time>
   <energy>
    <i name="alphaZ">   1684.05635987 </i>
    <i name="ewald"> -23300.17885437 </i>
    <i name="hartreedc">  -7190.01003370 </i>
    <i name="XCdc">    105.23717679 </i>
    <i name="pawpsdc">  37776.09472055 </i>
    <i name="pawaedc"> -36305.69836077 </i>
    <i name="eentropy">      0.02082954 </i>
    <i name="bandstr">  -3173.20722296 </i>
    <i name="atom">  30045.25396203 </i>
    <i name="e_fr_energy">   -358.43142301 </i>
    <i name="e_wo_entrp">   -358.45225256 </i>
    <i name="e_0_energy">   -358.43836620 </i>
   </energy>
  </scstep>
  <scstep>
   <time name="diag">    0.09    0.09</time>
   <time name="diis">    0.79    0.80</time>
   <time name="orth">    0.02    0.02</time>
   <time name="total">    0.97    1.00</time>
   <energy>
    <i name="e_fr_energy">   -358.43116553 </i>
    <i name="e_wo_entrp">   -358.45223434 </i>
    <i name="e_0_energy">   -358.43818846 </i>
   </energy>
  </scstep>
  <scstep>
   <time name="diag">    0.10    0.10</time>
   <time name="diis">    0.84    0.91</time>
   <time name="orth">    0.02    0.02</time>
   <time name="total">    1.02    1.13</time>
   <energy>
    <i name="e_fr_energy">   -358.43087996 </i>
    <i name="e_wo_entrp">   -358.45177584 </i>
    <i name="e_0_energy">   -358.43784525 </i>
   </energy>
  </scstep>
  <scstep>
   <time name="diag">    0.09    0.09</time>
   <time name="diis">    0.85    0.91</time>
   <time name="orth">    0.01    0.02</time>
   <time name="total">    1.02    1.12</time>
   <energy>
    <i name="e_fr_energy">   -358.43073757 </i>
    <i name="e_wo_entrp">   -358.45169185 </i>
    <i name="e_0_energy">   -358.43772233 </i>
   </energy>
  </scstep>
  <scstep>
   <time name="diag">    0.09    0.09</time>
   <time name="diis">    0.70    0.71</time>
   <time name="orth">    0.01    0.01</time>
   <time name="total">    0.87    0.91</time>
   <energy>
    <i name="e_fr_energy">   -358.43070515 </i>
    <i name="e_wo_entrp">   -358.45166758 </i>
    <i name="e_0_energy">   -358.43769263 </i>
   </energy>
  </scstep>
  <scstep>
   <time name="diag">    0.09    0.09</time>
   <time name="diis">    0.49    0.50</time>
   <time name="orth">    0.01    0.01</time>
   <time name="total">    0.63    0.66</time>
   <energy>
    <i name="alphaZ">   1684.05635987 </i>
    <i name="ewald"> -23300.17885437 </i>
    <i name="hartreedc">  -7193.18727644 </i>
    <i name="XCdc">    105.37944098 </i>
    <i name="pawpsdc">  37743.98438232 </i>
    <i name="pawaedc"> -36273.47527394 </i>
    <i name="eentropy">      0.02096522 </i>
    <i name="bandstr">  -3170.28440507 </i>
    <i name="atom">  30045.25396203 </i>
    <i name="e_fr_energy">   -358.43069940 </i>
    <i name="e_wo_entrp">   -358.45166462 </i>
    <i name="e_0_energy">   -358.43768781 </i>
   </energy>
  </scstep>
  <structure>
   <crystal>
    <varray name="basis" >
     <v>       6.91934825       0.03692326       0.00410416 </v>
     <v>       0.05457326      10.22584712       0.00561509 </v>
     <v>       0.00640489       0.00537640      10.27279287 </v>
    </varray>
    <i name="volume">    726.84258523 </i>
    <varray name="rec_basis" >
     <v>       0.14452645      -0.00077126      -0.00008971 </v>
     <v>      -0.00052182       0.09779422      -0.00005086 </v>
     <v>      -0.00005746      -0.00005315       0.09734457 </v>
    </varray>
   </crystal>
   <varray name="positions" >
    <v>       0.25968438       0.18014782       0.17278823 </v>
    <v>       0.03509052       0.00337106       0.33091519 </v>
    <v>       0.02566127       0.99499359       0.67637955 </v>
    <v>       0.25745847       0.18570170       0.82534936 </v>
    <v>       0.50240235       0.34368721       0.34250801 </v>
    <v>       0.75586851       0.49972555       0.49999379 </v>
    <v>       0.48755850       0.33759641       0.64510404 </v>
    <v>       0.50295035       0.65971987       0.34780630 </v>
    <v>       0.74653159       0.17135032       0.81981687 </v>
    <v>       0.01565464       0.00137422       0.99398058 </v>
    <v>       0.23209499       0.17513911       0.50067616 </v>
    <v>       0.25842071       0.50058553       0.16709826 </v>
    <v>       0.49174393       0.99910646       0.99182861 </v>
    <v>       0.74606062       0.16197759       0.17887101 </v>
    <v>       0.46924324       0.99142348       0.33857832 </v>
    <v>       0.74151400       0.48550641       0.81834500 </v>
    <v>       0.52700906       0.67524001       0.99588339 </v>
    <v>       0.49460726       0.67405250       0.65865960 </v>
    <v>       0.99640568       0.33035887       0.00690872 </v>
    <v>       0.25684484       0.49437705       0.83404791 </v>
    <v>       0.97083041       0.66381153       0.99206983 </v>
    <v>       0.23871628       0.81244122       0.17161135 </v>
    <v>       0.76298874       0.16892669       0.50032189 </v>
    <v>       0.47706010       0.99388642       0.67247759 </v>
    <v>       0.76611503       0.83707162       0.18750355 </v>
    <v>       0.77015482       0.84027322       0.49795344 </v>
    <v>       0.99406941       0.34105066       0.32514957 </v>
    <v>       0.23971969       0.50139180       0.49746933 </v>
    <v>       0.00860541       0.34109048       0.66344357 </v>
    <v>       0.99652587       0.65440523       0.34399630 </v>
    <v>       0.22686845       0.82702312       0.49944022 </v>
    <v>       0.23487651       0.81835761       0.83212193 </v>
    <v>       0.49872603       0.32211633       0.00885621 </v>
    <v>       0.74074778       0.49535928       0.18171675 </v>
    <v>       0.76858364       0.84624473       0.81302453 </v>
    <v>       0.00261390       0.67111431       0.66730205 </v>
   </varray>
  </structure>
  <varray name="forces" >
   <v>      -0.00180733       0.00959380      -0.01091882 </v>
   <v>       0.00079945      -0.00609392       0.00482716 </v>
   <v>       0.03733573      -0.04730298      -0.02648500 </v>
   <v>      -0.03822633       0.01274789      -0.00257071 </v>
   <v>       0.00389800       0.00742305      -0.00457170 </v>
   <v>      -0.00269148       0.00409552      -0.00023497 </v>
   <v>      -0.02610471       0.05540276      -0.02312588 </v>
   <v>       0.00297336      -0.00169438       0.00330911 </v>
   <v>       0.02042323      -0.02819044       0.09110950 </v>
   <v>       0.02061552      -0.00815986      -0.00037561 </v>
   <v>       0.00295989      -0.00102456       0.01103338 </v>
   <v>      -0.00272315      -0.00437994      -0.00218647 </v>
   <v>      -0.01522840      -0.02217089       0.01085728 </v>
   <v>      -0.00679523       0.00732153       0.04244843 </v>
   <v>       0.00550590      -0.00100292      -0.00226882 </v>
   <v>      -0.00332289       0.07256968       0.00460500 </v>
   <v>       0.00118688       0.00166333      -0.00151669 </v>
   <v>       0.00227775      -0.00760878      -0.00036470 </v>
   <v>       0.02534256       0.01990290       0.03048516 </v>
   <v>      -0.00614897      -0.01715813       0.00005624 </v>
   <v>       0.00051221       0.00633285       0.00037566 </v>
   <v>      -0.00628126       0.00088325      -0.00567991 </v>
   <v>       0.00600568       0.00888605      -0.09870689 </v>
   <v>      -0.02192498      -0.02414026      -0.01712853 </v>
   <v>       0.00251058       0.00343943      -0.00884841 </v>
   <v>       0.00882646       0.00870400       0.00686840 </v>
   <v>       0.00051942      -0.00956969      -0.00422398 </v>
   <v>      -0.00448082      -0.00745003       0.01094820 </v>
   <v>       0.02386837       0.03484279      -0.03511465 </v>
   <v>       0.00070107      -0.00593538      -0.00351552 </v>
   <v>      -0.01420623      -0.00033008       0.00622643 </v>
   <v>      -0.00876380       0.01674551       0.00365142 </v>
   <v>      -0.02472675       0.01765101       0.02557235 </v>
   <v>      -0.00422904       0.00067499       0.00124423 </v>
   <v>       0.02756601      -0.09836993      -0.00361535 </v>
   <v>      -0.00616669       0.00170183      -0.00216532 </v>
  </varray>
  <varray name="stress" >
   <v>       0.59520306      -0.04272237      -0.02388767 </v>
   <v>      -0.04272237       0.58407492      -0.02159015 </v>
   <v>      -0.02388772      -0.02159014       0.05647611 </v>
  </varray>
  <energy>
   <i name="e_fr_energy">   -358.43069940 </i>
   <i name="e_wo_entrp">   -358.43768781 </i>
   <i name="e_0_energy">      0.02096522 </i>
  </energy>
  <time name="totalsc">    7.62    8.22</time>
 </calculation>
 <calculation>
  <scstep>
   <time name="dav">    1.09    1.09</time>
   <time name="total">    1.22    1.37</time>
   <energy>
    <i name="alphaZ">   1680.97006615 </i>
    <i name="ewald"> -23284.00466787 </i>
    <i name="hartreedc">  -7190.62034649 </i>
    <i name="XCdc">    104.74436716 </i>
    <i name="pawpsdc">  37746.45396848 </i>
    <i name="pawaedc"> -36275.97196758 </i>
    <i name="eentropy">      0.02104725 </i>
    <i name="bandstr">  -3185.28543838 </i>
    <i name="atom">  30045.25396203 </i>
    <i name="e_fr_energy">   -358.43900923 </i>
    <i name="e_wo_entrp">   -358.46005648 </i>
    <i name="e_0_energy">   -358.44602498 </i>
   </energy>
  </scstep>
  <scstep>
   <time name="diag">    0.09    0.09</time>
   <time name="diis">    0.78    0.79</time>
   <time name="orth">    0.01    0.01</time>
   <time name="total">    0.95    0.99</time>
   <energy>
    <i name="e_fr_energy">   -358.43641492 </i>
    <i name="e_wo_entrp">   -358.45817318 </i>
    <i name="e_0_energy">   -358.44366767 </i>
   </energy>
  </scstep>
  <scstep>
   <time name="diag">    0.09    0.09</time>
   <time name="diis">    0.83    0.83</time>
   <time name="orth">    0.01    0.01</time>
   <time name="total">    1.00    1.03</time>
   <energy>
    <i name="e_fr_energy">   -358.43376677 </i>
    <i name="e_wo_entrp">   -358.45500847 </i>
    <i name="e_0_energy">   -358.44084733 </i>
   </energy>
  </scstep>
  <scstep>
   <time name="diag">    0.09    0.09</time>
   <time name="diis">    0.84    0.84</time>
   <time name="orth">    0.01    0.02</time>
   <time name="total">    1.01    1.05</time>
   <energy>
    <i name="e_fr_energy">   -358.43253799 </i>
    <i name="e_wo_entrp">   -358.45396019 </i>
    <i name="e_0_energy">   -358.43967872 </i>
   </energy>
  </scstep>
  <scstep>
   <time name="diag">    0.09    0.09</time>
   <time name="diis">    0.83    0.83</time>
   <time name="orth">    0.01    0.01</time>
   <time name="total">    0.99    1.03</time>
   <energy>
    <i name="e_fr_energy">   -358.43227576 </i>
    <i name="e_wo_entrp">   -358.45371884 </i>
    <i name="e_0_energy">   -358.43942345 </i>
   </energy>
  </scstep>
  <scstep>
   <time name="diag">    0.09    0.09</time>
   <time name="diis">    0.75    0.92</time>
   <time name="orth">    0.02    0.02</time>
   <time name="total">    0.93    1.16</time>
   <energy>
    <i name="e_fr_energy">   -358.43228485 </i>
    <i name="e_wo_entrp">   -358.45373235 </i>
    <i name="e_0_energy">   -358.43943402 </i>
   </energy>
  </scstep>
  <scstep>
   <time name="diag">    0.12    0.12</time>
   <time name="diis">    0.71    0.72</time>
   <time name="orth">    0.02    0.02</time>
   <time name="total">    0.91    0.97</time>
   <energy>
    <i name="e_fr_energy">   -358.43226753 </i>
    <i name="e_wo_entrp">   -358.45370457 </i>
    <i name="e_0_energy">   -358.43941321 </i>
   </energy>
  </scstep>
  <scstep>
   <time name="diag">    0.12    0.12</time>
   <time name="diis">    0.63    0.64</time>
   <time name="orth">    0.01    0.01</time>
   <time name="total">    0.85    0.90</time>
   <energy>
    <i name="e_fr_energy">   -358.43227000 </i>
    <i name="e_wo_entrp">   -358.45371759 </i>
    <i name="e_0_energy">   -358.43941920 </i>
   </energy>
  </scstep>
  <scstep>
   <time name="diag">    0.14    0.14</time>
   <time name="diis">    0.51    0.51</time>
   <time name="orth">    0.01    0.01</time>
   <time name="total">    0.71    0.74</time>
   <energy>
    <i name="alphaZ">   1680.97006615 </i>
    <i name="ewald"> -23284.00466787 </i>
    <i name="hartreedc">  -7199.63464779 </i>
    <i name="XCdc">    105.14947022 </i>
    <i name="pawpsdc">  37661.44958504 </i>
    <i name="pawaedc"> -36191.02117647 </i>
    <i name="eentropy">      0.02144234 </i>
    <i name="bandstr">  -3176.61630446 </i>
    <i name="atom">  30045.25396203 </i>
    <i name="e_fr_energy">   -358.43227080 </i>
    <i name="e_wo_entrp">   -358.45371314 </i>
    <i name="e_0_energy">   -358.43941824 </i>
   </energy>
  </scstep>
  <structure>
   <crystal>
    <varray name="basis" >
     <v>       6.92428249       0.03674305       0.00392092 </v>
     <v>       0.05430732      10.23304877       0.00552004 </v>
     <v>       0.00613522       0.00528363      10.27707867 </v>
    </varray>
    <i name="volume">    728.17708235 </i>
    <varray name="rec_basis" >
     <v>       0.14442341      -0.00076642      -0.00008582 </v>
     <v>      -0.00051854       0.09772537      -0.00004993 </v>
     <v>      -0.00005482      -0.00005220       0.09730398 </v>
    </varray>
   </crystal>
   <varray name="positions" >
    <v>       0.25966754       0.18019226       0.17273193 </v>
    <v>       0.03507109       0.00333826       0.33094276 </v>
    <v>       0.02594100       0.99477343       0.67624024 </v>
    <v>       0.25718695       0.18576380       0.82534743 </v>
    <v>       0.50242441       0.34372083       0.34248704 </v>
    <v>       0.75585205       0.49974820       0.49999916 </v>
    <v>       0.48735907       0.33785557       0.64499619 </v>
    <v>       0.50296639       0.65971647       0.34781919 </v>
    <v>       0.74667733       0.17121630       0.82024541 </v>
    <v>       0.01578853       0.00132990       0.99398232 </v>
    <v>       0.23211597       0.17513344       0.50073362 </v>
    <v>       0.25839284       0.50056311       0.16708103 </v>
    <v>       0.49164474       0.99899986       0.99187842 </v>
    <v>       0.74601449       0.16200934       0.17907500 </v>
    <v>       0.46929795       0.99141894       0.33857327 </v>
    <v>       0.74148400       0.48585557       0.81837498 </v>
    <v>       0.52702422       0.67524603       0.99587856 </v>
    <v>       0.49462905       0.67401803       0.65865541 </v>
    <v>       0.99658469       0.33045447       0.00704286 </v>
    <v>       0.25680238       0.49429624       0.83404765 </v>
    <v>       0.97082265       0.66384311       0.99206931 </v>
    <v>       0.23867814       0.81245389       0.17158240 </v>
    <v>       0.76303593       0.16896175       0.49985064 </v>
    <v>       0.47689245       0.99377672       0.67237737 </v>
    <v>       0.76612711       0.83708847       0.18745420 </v>
    <v>       0.77020825       0.84031289       0.49798475 </v>
    <v>       0.99407364       0.34099864       0.32513927 </v>
    <v>       0.23969178       0.50134919       0.49753031 </v>
    <v>       0.00878359       0.34124787       0.66327730 </v>
    <v>       0.99654046       0.65438791       0.34397919 </v>
    <v>       0.22677382       0.82702646       0.49947986 </v>
    <v>       0.23481804       0.81843742       0.83213973 </v>
    <v>       0.49855817       0.32220129       0.00897084 </v>
    <v>       0.74072914       0.49535712       0.18171900 </v>
    <v>       0.76877451       0.84577902       0.81302612 </v>
    <v>       0.00257462       0.67112722       0.66728421 </v>
   </varray>
  </structure>
  <varray name="forces" >
   <v>       0.00241545       0.00510747      -0.00142938 </v>
   <v>       0.01397927      -0.00549171       0.00276139 </v>
   <v>       0.01885765      -0.03596597      -0.00930614 </v>
   <v>      -0.02332602       0.00928632      -0.01282312 </v>
   <v>       0.00483392       0.00717487      -0.00149751 </v>
   <v>      -0.00210613       0.00016869      -0.00400026 </v>
   <v>      -0.01187379       0.03927667      -0.01888059 </v>
   <v>       0.00262469      -0.00241122       0.00369824 </v>
   <v>       0.01269850      -0.01824153       0.05655817 </v>
   <v>       0.01849355      -0.00419179      -0.00176804 </v>
   <v>       0.00309334       0.00094363       0.00775791 </v>
   <v>       0.00108857      -0.00057827       0.00514686 </v>
   <v>      -0.01322186      -0.01327554       0.00738538 </v>
   <v>      -0.00573107       0.00726030       0.02700164 </v>
   <v>      -0.00530278      -0.00372812      -0.00297738 </v>
   <v>       0.00103147       0.04237133      -0.00655225 </v>
   <v>      -0.00228450       0.00337690      -0.00002827 </v>
   <v>      -0.00323993      -0.00509987      -0.00266035 </v>
   <v>       0.01408542       0.01245113       0.02706464 </v>
   <v>      -0.00354089      -0.01301342      -0.00379768 </v>
   <v>       0.00390359       0.00593067       0.00470462 </v>
   <v>      -0.00619182      -0.00496035       0.00204771 </v>
   <v>       0.00151531       0.01251107      -0.06161808 </v>
   <v>      -0.00955338      -0.01945541      -0.00062360 </v>
   <v>       0.00374111       0.00002520       0.00132503 </v>
   <v>       0.00916315       0.00588926       0.00297303 </v>
   <v>      -0.00022781      -0.00322475      -0.00804592 </v>
   <v>      -0.00295820      -0.00158717       0.00300418 </v>
   <v>       0.00853405       0.02620049      -0.02385813 </v>
   <v>      -0.00403019      -0.00547389      -0.00070152 </v>
   <v>      -0.00927655      -0.00177095      -0.00329502 </v>
   <v>      -0.00796782       0.01157803       0.00002598 </v>
   <v>      -0.02067334       0.00803148       0.02132041 </v>
   <v>      -0.00627405       0.00611867       0.00650959 </v>
   <v>       0.02182532      -0.06539805      -0.01733105 </v>
   <v>      -0.00410422       0.00016584       0.00190948 </v>
  </varray>
  <varray name="stress" >
   <v>      -1.74602498       0.00811490       0.07600152 </v>
   <v>       0.00811488      -1.81978248       0.00372023 </v>
   <v>       0.07600155       0.00372016      -2.17104529 </v>
  </varray>
  <energy>
   <i name="e_fr_energy">   -358.43227080 </i>
   <i name="e_wo_entrp">   -358.43941824 </i>
   <i name="e_0_energy">      0.02144234 </i>
  </energy>
  <time name="totalsc">   10.31   11.05</time>
 </calculation>
 <calculation>
  <scstep>
   <time name="dav">    1.10    1.11</time>
   <time name="total">    1.34    1.48</time>
   <energy>
    <i name="alphaZ">   1681.75380814 </i>
    <i name="ewald"> -23286.66045003 </i>
    <i name="hartreedc">  -7201.58757080 </i>
    <i name="XCdc">    105.30871242 </i>
    <i name="pawpsdc">  37661.60832341 </i>
    <i name="pawaedc"> -36191.30834945 </i>
    <i name="eentropy">      0.02153940 </i>
    <i name="bandstr">  -3172.82358082 </i>
    <i name="atom">  30045.25396203 </i>
    <i name="e_fr_energy">   -358.43360571 </i>
    <i name="e_wo_entrp">   -358.45514510 </i>
    <i name="e_0_energy">   -358.44078550 </i>
   </energy>
  </scstep>
  <scstep>
   <time name="diag">    0.10    0.10</time>
   <time name="diis">    0.73    0.73</time>
   <time name="orth">    0.01    0.01</time>
   <time name="total">    0.91    0.93</time>
   <energy>
    <i name="e_fr_energy">   -358.43360637 </i>
    <i name="e_wo_entrp">   -358.45509755 </i>
    <i name="e_0_energy">   -358.44077010 </i>
   </energy>
  </scstep>
  <scstep>
   <time name="diag">    0.09    0.09</time>
   <time name="diis">    0.82    0.86</time>
   <time name="orth">    0.01    0.01</time>
   <time name="total">    1.01    1.08</time>
   <energy>
    <i name="e_fr_energy">   -358.43346974 </i>
    <i name="e_wo_entrp">   -358.45496783 </i>
    <i name="e_0_energy">   -358.44063577 </i>
   </energy>
  </scstep>
  <scstep>
   <time name="diag">    0.09    0.09</time>
   <time name="diis">    0.93    0.95</time>
   <time name="orth">    0.02    0.02</time>
   <time name="total">    1.12    1.17</time>
   <energy>
    <i name="e_fr_energy">   -358.43338728 </i>
    <i name="e_wo_entrp">   -358.45493320 </i>
    <i name="e_0_energy">   -358.44056925 </i>
   </energy>
  </scstep>
  <scstep>
   <time name="diag">    0.12    0.12</time>
   <time name="diis">    0.62    0.80</time>
   <time name="orth">    0.01    0.01</time>
   <time name="total">    0.82    1.03</time>
   <energy>
    <i name="e_fr_energy">   -358.43337075 </i>
    <i name="e_wo_entrp">   -358.45487889 </i>
    <i name="e_0_energy">   -358.44054013 </i>
   </energy>
  </scstep>
  <scstep>
   <time name="diag">    0.09    0.09</time>
   <time name="diis">    0.41    0.42</time>
   <time name="orth">    0.02    0.02</time>
   <time name="total">    0.55    0.58</time>
   <energy>
    <i name="alphaZ">   1681.75380814 </i>
    <i name="ewald"> -23286.66045003 </i>
    <i name="hartreedc">  -7199.13394445 </i>
    <i name="XCdc">    105.19748565 </i>
    <i name="pawpsdc">  37684.15049949 </i>
    <i name="pawaedc"> -36214.05158167 </i>
    <i name="eentropy">      0.02152256 </i>
    <i name="bandstr">  -3174.96467531 </i>
    <i name="atom">  30045.25396203 </i>
    <i name="e_fr_energy">   -358.43337360 </i>
    <i name="e_wo_entrp">   -358.45489616 </i>
    <i name="e_0_energy">   -358.44054778 </i>
   </energy>
  </scstep>
  <structure>
   <crystal>
    <varray name="basis" >
     <v>       6.92357845       0.03669441       0.00395836 </v>
     <v>       0.05423627      10.23186070       0.00550029 </v>
     <v>       0.00619168       0.00526422      10.27452609 </v>
    </varray>
    <i name="volume">    727.83773247 </i>
    <varray name="rec_basis" >
     <v>       0.14443809      -0.00076558      -0.00008665 </v>
     <v>      -0.00051797       0.09773671      -0.00004976 </v>
     <v>      -0.00005537      -0.00005203       0.09732815 </v>
    </varray>
   </crystal>
   <varray name="positions" >
    <v>       0.25966766       0.18021027       0.17271550 </v>
    <v>       0.03509238       0.00332267       0.33095341 </v>
    <v>       0.02604939       0.99467044       0.67619231 </v>
    <v>       0.25707258       0.18579189       0.82533070 </v>
    <v>       0.50243914       0.34373864       0.34247969 </v>
    <v>       0.75584383       0.49975431       0.49999549 </v>
    <v>       0.48728464       0.33797286       0.64494427 </v>
    <v>       0.50297550       0.65971250       0.34782722 </v>
    <v>       0.74673914       0.17115821       0.82042826 </v>
    <v>       0.01585807       0.00131295       0.99398052 </v>
    <v>       0.23212721       0.17513314       0.50075836 </v>
    <v>       0.25838766       0.50055654       0.16708308 </v>
    <v>       0.49159427       0.99895541       0.99190071 </v>
    <v>       0.74599165       0.16202683       0.17916213 </v>
    <v>       0.46930222       0.99141306       0.33856820 </v>
    <v>       0.74147774       0.48600005       0.81837443 </v>
    <v>       0.52702383       0.67525190       0.99587728 </v>
    <v>       0.49462867       0.67400262       0.65865096 </v>
    <v>       0.99665746       0.33049499       0.00711193 </v>
    <v>       0.25678484       0.49425875       0.83404279 </v>
    <v>       0.97082791       0.66385882       0.99207513 </v>
    <v>       0.23865665       0.81245091       0.17157749 </v>
    <v>       0.76305097       0.16898678       0.49965030 </v>
    <v>       0.47683118       0.99372358       0.67235059 </v>
    <v>       0.76613727       0.83709284       0.18744307 </v>
    <v>       0.77023928       0.84033061       0.49799663 </v>
    <v>       0.99407434       0.34098105       0.32512641 </v>
    <v>       0.23967899       0.50133614       0.49754995 </v>
    <v>       0.00884562       0.34132199       0.66320391 </v>
    <v>       0.99653672       0.65437648       0.34397387 </v>
    <v>       0.22673185       0.82702514       0.49948598 </v>
    <v>       0.23478778       0.81847291       0.83214439 </v>
    <v>       0.49847566       0.32223367       0.00902760 </v>
    <v>       0.74071244       0.49536438       0.18172783 </v>
    <v>       0.76886572       0.84557487       0.81300461 </v>
    <v>       0.00255672       0.67113080       0.66728199 </v>
   </varray>
  </structure>
  <varray name="forces" >
   <v>       0.00304626      -0.00014697      -0.00017400 </v>
   <v>       0.01314791      -0.00343379       0.00073180 </v>
   <v>       0.00997979      -0.02626081      -0.00560945 </v>
   <v>      -0.01807845       0.00528690      -0.01284491 </v>
   <v>       0.00364770       0.00308270      -0.00197914 </v>
   <v>      -0.00141280      -0.00115564      -0.00234023 </v>
   <v>      -0.00387113       0.03084656      -0.01330848 </v>
   <v>       0.00190143       0.00090858       0.00144465 </v>
   <v>       0.01015444      -0.01350797       0.04450374 </v>
   <v>       0.01535439      -0.00177842      -0.00053409 </v>
   <v>       0.00456760       0.00019932       0.00600027 </v>
   <v>       0.00121948       0.00236066       0.00489770 </v>
   <v>      -0.01018062      -0.01094697       0.00764621 </v>
   <v>      -0.00491361       0.00414986       0.01803114 </v>
   <v>      -0.00432747      -0.00341226      -0.00311557 </v>
   <v>       0.00262692       0.03199848      -0.00727804 </v>
   <v>      -0.00475798       0.00296247       0.00065334 </v>
   <v>      -0.00459783      -0.00435239      -0.00184954 </v>
   <v>       0.00773395       0.01027201       0.02379321 </v>
   <v>      -0.00258409      -0.00892806      -0.00294851 </v>
   <v>       0.00620033       0.00358174       0.00702687 </v>
   <v>      -0.00377674      -0.00523471       0.00147088 </v>
   <v>      -0.00129337       0.01071767      -0.04570671 </v>
   <v>      -0.00235352      -0.01523694       0.00336900 </v>
   <v>       0.00159537       0.00013261       0.00119764 </v>
   <v>       0.00517172       0.00638927       0.00100342 </v>
   <v>       0.00114308      -0.00246094      -0.00889497 </v>
   <v>      -0.00403359       0.00168473       0.00147133 </v>
   <v>       0.00028295       0.02173013      -0.01906212 </v>
   <v>      -0.00476244      -0.00458519      -0.00279057 </v>
   <v>      -0.00348656      -0.00377399      -0.00528789 </v>
   <v>      -0.00272564       0.00916096       0.00178302 </v>
   <v>      -0.01572447       0.00768644       0.01895242 </v>
   <v>      -0.00568181       0.00940032       0.00323811 </v>
   <v>       0.01428652      -0.05446149      -0.01715952 </v>
   <v>      -0.00349771      -0.00287485       0.00366899 </v>
  </varray>
  <varray name="stress" >
   <v>      -1.48500721       0.02550876       0.09805539 </v>
   <v>       0.02550875      -1.55939203       0.00114988 </v>
   <v>       0.09805535       0.00114987      -1.84010403 </v>
  </varray>
  <energy>
   <i name="e_fr_energy">   -358.43337360 </i>
   <i name="e_wo_entrp">   -358.44054778 </i>
   <i name="e_0_energy">      0.02152256 </i>
  </energy>
  <time name="totalsc">    7.53    8.17</time>
 </calculation>
 <calculation>
  <scstep>
   <time name="dav">    1.05    1.06</time>
   <time name="total">    1.22    1.44</time>
   <energy>
    <i name="alphaZ">   1684.10809330 </i>
    <i name="ewald"> -23294.56238873 </i>
    <i name="hartreedc">  -7205.37421639 </i>
    <i name="XCdc">    105.68982180 </i>
    <i name="pawpsdc">  37682.19436444 </i>
    <i name="pawaedc"> -36212.09014884 </i>
    <i name="eentropy">      0.02178984 </i>
    <i name="bandstr">  -3163.67784942 </i>
    <i name="atom">  30045.25396203 </i>
    <i name="e_fr_energy">   -358.43657195 </i>
    <i name="e_wo_entrp">   -358.45836179 </i>
    <i name="e_0_energy">   -358.44383523 </i>
   </energy>
  </scstep>
  <scstep>
   <time name="diag">    0.09    0.09</time>
   <time name="diis">    0.77    0.77</time>
   <time name="orth">    0.01    0.01</time>
   <time name="total">    0.94    0.98</time>
   <energy>
    <i name="e_fr_energy">   -358.43679990 </i>
    <i name="e_wo_entrp">   -358.45841840 </i>
    <i name="e_0_energy">   -358.44400607 </i>
   </energy>
  </scstep>
  <scstep>
   <time name="diag">    0.09    0.09</time>
   <time name="diis">    0.82    0.83</time>
   <time name="orth">    0.01    0.01</time>
   <time name="total">    0.99    1.06</time>
   <energy>
    <i name="e_fr_energy">   -358.43544657 </i>
    <i name="e_wo_entrp">   -358.45711897 </i>
    <i name="e_0_energy">   -358.44267070 </i>
   </energy>
  </scstep>
  <scstep>
   <time name="diag">    0.09    0.09</time>
   <time name="diis">    0.83    0.85</time>
   <time name="orth">    0.02    0.02</time>
   <time name="total">    1.00    1.08</time>
   <energy>
    <i name="e_fr_energy">   -358.43474328 </i>
    <i name="e_wo_entrp">   -358.45652510 </i>
    <i name="e_0_energy">   -358.44200389 </i>
   </energy>
  </scstep>
  <scstep>
   <time name="diag">    0.09    0.09</time>
   <time name="diis">    0.85    0.86</time>
   <time name="orth">    0.01    0.01</time>
   <time name="total">    1.02    1.05</time>
   <energy>
    <i name="e_fr_energy">   -358.43461601 </i>
    <i name="e_wo_entrp">   -358.45630837 </i>
    <i name="e_0_energy">   -358.44184680 </i>
   </energy>
  </scstep>
  <scstep>
   <time name="diag">    0.09    0.09</time>
   <time name="diis">    0.81    0.82</time>
   <time name="orth">    0.01    0.01</time>
   <time name="total">    0.98    1.02</time>
   <energy>
    <i name="e_fr_energy">   -358.43463770 </i>
    <i name="e_wo_entrp">   -358.45636019 </i>
    <i name="e_0_energy">   -358.44187853 </i>
   </energy>
  </scstep>
  <scstep>
   <time name="diag">    0.16    0.16</time>
   <time name="diis">    0.62    0.79</time>
   <time name="orth">    0.02    0.02</time>
   <time name="total">    0.87    1.08</time>
   <energy>
    <i name="e_fr_energy">   -358.43466135 </i>
    <i name="e_wo_entrp">   -358.45639134 </i>
    <i name="e_0_energy">   -358.44190468 </i>
   </energy>
  </scstep>
  <scstep>
   <time name="diag">    0.09    0.09</time>
   <time name="diis">    0.53    0.54</time>
   <time name="orth">    0.01    0.01</time>
   <time name="total">    0.70    0.74</time>
   <energy>
    <i name="e_fr_energy">   -358.43467483 </i>
    <i name="e_wo_entrp">   -358.45639417 </i>
    <i name="e_0_energy">   -358.44191461 </i>
   </energy>
  </scstep>
  <scstep>
   <time name="diag">    0.09    0.09</time>
   <time name="diis">    0.58    0.58</time>
   <time name="orth">    0.01    0.01</time>
   <time name="total">    0.78    0.82</time>
   <energy>
    <i name="alphaZ">   1684.10809330 </i>
    <i name="ewald"> -23294.56238873 </i>
    <i name="hartreedc">  -7198.64717072 </i>
    <i name="XCdc">    105.38354204 </i>
    <i name="pawpsdc">  37745.76192760 </i>
    <i name="pawaedc"> -36275.63353007 </i>
    <i name="eentropy">      0.02172621 </i>
    <i name="bandstr">  -3170.12084562 </i>
    <i name="atom">  30045.25396203 </i>
    <i name="e_fr_energy">   -358.43468395 </i>
    <i name="e_wo_entrp">   -358.45641016 </i>
    <i name="e_0_energy">   -358.44192602 </i>
   </energy>
  </scstep>
  <structure>
   <crystal>
    <varray name="basis" >
     <v>       6.92146631       0.03654850       0.00407069 </v>
     <v>       0.05402311      10.22829647       0.00544105 </v>
     <v>       0.00636107       0.00520598      10.26686834 </v>
    </varray>
    <i name="volume">    726.82025765 </i>
    <varray name="rec_basis" >
     <v>       0.14448214      -0.00076307      -0.00008913 </v>
     <v>      -0.00051625       0.09777074      -0.00004926 </v>
     <v>      -0.00005701      -0.00005151       0.09740075 </v>
    </varray>
   </crystal>
   <varray name="positions" >
    <v>       0.25966802       0.18026430       0.17266621 </v>
    <v>       0.03515624       0.00327589       0.33098535 </v>
    <v>       0.02637458       0.99436144       0.67604848 </v>
    <v>       0.25672945       0.18587616       0.82528050 </v>
    <v>       0.50248336       0.34379210       0.34245764 </v>
    <v>       0.75581915       0.49977263       0.49998448 </v>
    <v>       0.48706133       0.33832476       0.64478848 </v>
    <v>       0.50300285       0.65970059       0.34785132 </v>
    <v>       0.74692456       0.17098392       0.82097694 </v>
    <v>       0.01606672       0.00126208       0.99397512 </v>
    <v>       0.23216092       0.17513225       0.50083258 </v>
    <v>       0.25837211       0.50053685       0.16708922 </v>
    <v>       0.49144286       0.99882202       0.99196763 </v>
    <v>       0.74592312       0.16207932       0.17942360 </v>
    <v>       0.46931502       0.99139541       0.33855298 </v>
    <v>       0.74145898       0.48643354       0.81837280 </v>
    <v>       0.52702265       0.67526952       0.99587341 </v>
    <v>       0.49462752       0.67395639       0.65863761 </v>
    <v>       0.99687578       0.33061659       0.00731920 </v>
    <v>       0.25673222       0.49414625       0.83402819 </v>
    <v>       0.97084369       0.66390595       0.99209258 </v>
    <v>       0.23859219       0.81244196       0.17156274 </v>
    <v>       0.76309608       0.16906190       0.49904911 </v>
    <v>       0.47664737       0.99356413       0.67227024 </v>
    <v>       0.76616777       0.83710598       0.18740967 </v>
    <v>       0.77033237       0.84038377       0.49803229 </v>
    <v>       0.99407647       0.34092827       0.32508783 </v>
    <v>       0.23964061       0.50129697       0.49760886 </v>
    <v>       0.00903175       0.34154437       0.66298369 </v>
    <v>       0.99652552       0.65434219       0.34395790 </v>
    <v>       0.22660594       0.82702118       0.49950435 </v>
    <v>       0.23469700       0.81857938       0.83215834 </v>
    <v>       0.49822810       0.32233083       0.00919792 </v>
    <v>       0.74066234       0.49538616       0.18175433 </v>
    <v>       0.76913937       0.84496237       0.81294008 </v>
    <v>       0.00250298       0.67114157       0.66727536 </v>
   </varray>
  </structure>
  <varray name="forces" >
   <v>       0.00458715      -0.01232466       0.00370693 </v>
   <v>       0.01057324       0.00215764      -0.00422816 </v>
   <v>      -0.01842197       0.00331490       0.00420084 </v>
   <v>      -0.00317745      -0.00705230      -0.01372580 </v>
   <v>       0.00060212      -0.00786766      -0.00340172 </v>
   <v>       0.00022405      -0.00357679       0.00094312 </v>
   <v>       0.01905797       0.00704735       0.00163141 </v>
   <v>       0.00088603       0.00963100      -0.00412641 </v>
   <v>       0.00279455      -0.00247070       0.00920714 </v>
   <v>       0.00669490       0.00564787       0.00272201 </v>
   <v>       0.00875825      -0.00198435       0.00144085 </v>
   <v>       0.00113024       0.01102818       0.00469675 </v>
   <v>      -0.00165937      -0.00340494       0.00691546 </v>
   <v>      -0.00242371      -0.00283219      -0.00690763 </v>
   <v>      -0.00190081      -0.00348425      -0.00302501 </v>
   <v>       0.00778598       0.00125477      -0.00969237 </v>
   <v>      -0.01086753       0.00232000       0.00275357 </v>
   <v>      -0.00766892      -0.00225734      -0.00106387 </v>
   <v>      -0.01006068       0.00490793       0.01425721 </v>
   <v>      -0.00086417       0.00273195      -0.00020919 </v>
   <v>       0.01352212      -0.00440126       0.01437028 </v>
   <v>       0.00153173      -0.00938569       0.00158754 </v>
   <v>      -0.00945318       0.00527524       0.00125118 </v>
   <v>       0.01995778      -0.00240987       0.01510473 </v>
   <v>      -0.00309037      -0.00158253       0.00389940 </v>
   <v>      -0.00598007       0.00600934      -0.00376980 </v>
   <v>       0.00501496      -0.00088395      -0.00975938 </v>
   <v>      -0.00553065       0.01132383      -0.00399367 </v>
   <v>      -0.02262736       0.00813752      -0.00455004 </v>
   <v>      -0.00847966       0.00069739      -0.00902243 </v>
   <v>       0.01441198      -0.00902979      -0.01070638 </v>
   <v>       0.01051696       0.00211133       0.00574944 </v>
   <v>      -0.00081524       0.00538821       0.00902854 </v>
   <v>      -0.00391768       0.01862210      -0.00612720 </v>
   <v>      -0.00763536      -0.01903813      -0.01797732 </v>
   <v>      -0.00347583      -0.01362014       0.00881998 </v>
  </varray>
  <varray name="stress" >
   <v>       0.35402692       0.07300831       0.13999722 </v>
   <v>       0.07300840       0.35408875      -0.02516004 </v>
   <v>       0.13999722      -0.02516007       0.30979377 </v>
  </varray>
  <energy>
   <i name="e_fr_energy">   -358.43468395 </i>
   <i name="e_wo_entrp">   -358.44192602 </i>
   <i name="e_0_energy">      0.02172621 </i>
  </energy>
  <time name="totalsc">   10.28   11.35</time>
 </calculation>
 <calculation>
  <scstep>
   <time name="dav">    1.17    1.19</time>
   <time name="total">    1.28    1.45</time>
   <energy>
    <i name="alphaZ">   1684.02330345 </i>
    <i name="ewald"> -23294.27980693 </i>
    <i name="hartreedc">  -7198.48181808 </i>
    <i name="XCdc">    105.36829184 </i>
    <i name="pawpsdc">  37746.16688567 </i>
    <i name="pawaedc"> -36275.95793004 </i>
    <i name="eentropy">      0.02171423 </i>
    <i name="bandstr">  -3170.54930933 </i>
    <i name="atom">  30045.25396203 </i>
    <i name="e_fr_energy">   -358.43470716 </i>
    <i name="e_wo_entrp">   -358.45642140 </i>
    <i name="e_0_energy">   -358.44194524 </i>
   </energy>
  </scstep>
  <scstep>
   <time name="diag">    0.09    0.09</time>
   <time name="diis">    0.74    0.74</time>
   <time name="orth">    0.01    0.01</time>
   <time name="total">    0.88    0.91</time>
   <energy>
    <i name="alphaZ">   1684.02330345 </i>
    <i name="ewald"> -23294.27980693 </i>
    <i name="hartreedc">  -7198.75684964 </i>
    <i name="XCdc">    105.37994502 </i>
    <i name="pawpsdc">  37744.13871641 </i>
    <i name="pawaedc"> -36273.88864268 </i>
    <i name="eentropy">      0.02172402 </i>
    <i name="bandstr">  -3170.32706409 </i>
    <i name="atom">  30045.25396203 </i>
    <i name="e_fr_energy">   -358.43471241 </i>
    <i name="e_wo_entrp">   -358.45643644 </i>
    <i name="e_0_energy">   -358.44195375 </i>
   </energy>
  </scstep>
  <structure>
   <crystal>
    <varray name="basis" >
     <v>       6.92154231       0.03655375       0.00406665 </v>
     <v>       0.05403078      10.22842471       0.00544318 </v>
     <v>       0.00635498       0.00520808      10.26714388 </v>
    </varray>
    <i name="volume">    726.85685274 </i>
    <varray name="rec_basis" >
     <v>       0.14448055      -0.00076316      -0.00008904 </v>
     <v>      -0.00051631       0.09776952      -0.00004927 </v>
     <v>      -0.00005695      -0.00005153       0.09739813 </v>
    </varray>
   </crystal>
   <varray name="positions" >
    <v>       0.25966801       0.18026236       0.17266798 </v>
    <v>       0.03515394       0.00327758       0.33098420 </v>
    <v>       0.02636288       0.99437256       0.67605366 </v>
    <v>       0.25674180       0.18587313       0.82528231 </v>
    <v>       0.50248177       0.34379018       0.34245844 </v>
    <v>       0.75582004       0.49977197       0.49998488 </v>
    <v>       0.48706936       0.33831209       0.64479409 </v>
    <v>       0.50300186       0.65970102       0.34785045 </v>
    <v>       0.74691789       0.17099019       0.82095718 </v>
    <v>       0.01605921       0.00126391       0.99397532 </v>
    <v>       0.23215971       0.17513228       0.50082991 </v>
    <v>       0.25837267       0.50053756       0.16708900 </v>
    <v>       0.49144831       0.99882682       0.99196522 </v>
    <v>       0.74592559       0.16207743       0.17941419 </v>
    <v>       0.46931456       0.99139604       0.33855352 </v>
    <v>       0.74145965       0.48641794       0.81837286 </v>
    <v>       0.52702269       0.67526889       0.99587355 </v>
    <v>       0.49462756       0.67395805       0.65863809 </v>
    <v>       0.99686793       0.33061221       0.00731173 </v>
    <v>       0.25673412       0.49415030       0.83402871 </v>
    <v>       0.97084312       0.66390425       0.99209196 </v>
    <v>       0.23859451       0.81244229       0.17156327 </v>
    <v>       0.76309445       0.16905920       0.49907076 </v>
    <v>       0.47665399       0.99356987       0.67227313 </v>
    <v>       0.76616667       0.83710550       0.18741087 </v>
    <v>       0.77032902       0.84038186       0.49803100 </v>
    <v>       0.99407639       0.34093017       0.32508921 </v>
    <v>       0.23964199       0.50129838       0.49760674 </v>
    <v>       0.00902505       0.34153637       0.66299162 </v>
    <v>       0.99652592       0.65434343       0.34395848 </v>
    <v>       0.22661047       0.82702133       0.49950369 </v>
    <v>       0.23470026       0.81857555       0.83215784 </v>
    <v>       0.49823701       0.32232733       0.00919178 </v>
    <v>       0.74066414       0.49538537       0.18175337 </v>
    <v>       0.76912952       0.84498442       0.81294240 </v>
    <v>       0.00250492       0.67114118       0.66727560 </v>
   </varray>
  </structure>
  <varray name="forces" >
   <v>       0.00384989      -0.01186104       0.00379458 </v>
   <v>       0.01025061       0.00183875      -0.00438377 </v>
   <v>      -0.01677699       0.00217155       0.00311856 </v>
   <v>      -0.00428248      -0.00642465      -0.01354822 </v>
   <v>       0.00084699      -0.00751148      -0.00354410 </v>
   <v>      -0.00090191      -0.00315437       0.00048193 </v>
   <v>       0.01784674       0.00893283       0.00036246 </v>
   <v>       0.00138760       0.00947145      -0.00409996 </v>
   <v>       0.00342368      -0.00353344       0.01105203 </v>
   <v>       0.00766228       0.00541001       0.00353456 </v>
   <v>       0.00922724      -0.00223051       0.00156786 </v>
   <v>       0.00122911       0.01108889       0.00470389 </v>
   <v>      -0.00230254      -0.00386528       0.00727154 </v>
   <v>      -0.00240081      -0.00240785      -0.00486930 </v>
   <v>      -0.00191814      -0.00362201      -0.00326616 </v>
   <v>       0.00736521       0.00296574      -0.00946986 </v>
   <v>      -0.01090801       0.00261498       0.00329390 </v>
   <v>      -0.00756808      -0.00258126      -0.00148878 </v>
   <v>      -0.00811639       0.00571135       0.01504935 </v>
   <v>      -0.00119735       0.00248940       0.00051140 </v>
   <v>       0.01379124      -0.00430669       0.01467078 </v>
   <v>       0.00118595      -0.00923356       0.00168959 </v>
   <v>      -0.00927419       0.00524825      -0.00189261 </v>
   <v>       0.01890490      -0.00258923       0.01417165 </v>
   <v>      -0.00258481      -0.00155077       0.00407621 </v>
   <v>      -0.00556670       0.00622662      -0.00400912 </v>
   <v>       0.00511827      -0.00207682      -0.01068382 </v>
   <v>      -0.00480503       0.01051237      -0.00310762 </v>
   <v>      -0.02014446       0.01169335      -0.00738332 </v>
   <v>      -0.00852151       0.00062212      -0.00955275 </v>
   <v>       0.01279387      -0.00862172      -0.01094293 </v>
   <v>       0.00949618       0.00341058       0.00628631 </v>
   <v>      -0.00391586       0.00653218       0.01173672 </v>
   <v>      -0.00480262       0.01878205      -0.00526132 </v>
   <v>      -0.00473871      -0.02669236      -0.01847531 </v>
   <v>      -0.00365317      -0.01345941       0.00860568 </v>
  </varray>
  <varray name="stress" >
   <v>       0.44850469       0.07658839       0.13131459 </v>
   <v>       0.07658843       0.48262381      -0.01029182 </v>
   <v>       0.13131464      -0.01029181       0.45807213 </v>
  </varray>
  <energy>
   <i name="e_fr_energy">   -358.43471241 </i>
   <i name="e_wo_entrp">   -358.44195375 </i>
   <i name="e_0_energy">      0.02172402 </i>
  </energy>
  <time name="totalsc">    3.84    4.15</time>
 </calculation>
 <calculation>
  <scstep>
   <time name="dav">    1.12    1.17</time>
   <time name="total">    1.26    1.50</time>
   <energy>
    <i name="alphaZ">   1683.72365795 </i>
    <i name="ewald"> -23292.56166623 </i>
    <i name="hartreedc">  -7198.64843229 </i>
    <i name="XCdc">    105.31859041 </i>
    <i name="pawpsdc">  37743.69602451 </i>
    <i name="pawaedc"> -36273.42750398 </i>
    <i name="eentropy">      0.02169715 </i>
    <i name="bandstr">  -3171.81119959 </i>
    <i name="atom">  30045.25396203 </i>
    <i name="e_fr_energy">   -358.43487005 </i>
    <i name="e_wo_entrp">   -358.45656720 </i>
    <i name="e_0_energy">   -358.44210244 </i>
   </energy>
  </scstep>
  <scstep>
   <time name="diag">    0.09    0.12</time>
   <time name="diis">    0.75    0.75</time>
   <time name="orth">    0.01    0.02</time>
   <time name="total">    0.93    1.04</time>
   <energy>
    <i name="e_fr_energy">   -358.43496937 </i>
    <i name="e_wo_entrp">   -358.45676439 </i>
    <i name="e_0_energy">   -358.44223438 </i>
   </energy>
  </scstep>
  <scstep>
   <time name="diag">    0.09    0.09</time>
   <time name="diis">    0.75    0.76</time>
   <time name="orth">    0.01    0.01</time>
   <time name="total">    0.92    0.96</time>
   <energy>
    <i name="e_fr_energy">   -358.43492292 </i>
    <i name="e_wo_entrp">   -358.45664908 </i>
    <i name="e_0_energy">   -358.44216497 </i>
   </energy>
  </scstep>
  <scstep>
   <time name="diag">    0.09    0.09</time>
   <time name="diis">    0.71    0.72</time>
   <time name="orth">    0.02    0.02</time>
   <time name="total">    0.88    0.92</time>
   <energy>
    <i name="e_fr_energy">   -358.43490499 </i>
    <i name="e_wo_entrp">   -358.45664934 </i>
    <i name="e_0_energy">   -358.44215310 </i>
[...]
       <r>    7.4936    1.0000 </r>
       <r>    7.5068    1.0001 </r>
       <r>    7.5601    1.0004 </r>
       <r>    7.5855    1.0009 </r>
       <r>    7.6271    1.0030 </r>
       <r>    7.6444    1.0046 </r>
       <r>    7.6722    1.0086 </r>
       <r>    7.7003    1.0149 </r>
       <r>    7.7513    1.0299 </r>
       <r>    7.7940    1.0348 </r>
       <r>    7.8023    1.0330 </r>
       <r>    7.8244    1.0206 </r>
       <r>    7.8707    0.9423 </r>
       <r>    7.9055    0.8234 </r>
       <r>    7.9501    0.6033 </r>
       <r>    7.9572    0.5641 </r>
       <r>    7.9992    0.3311 </r>
       <r>    8.0359    0.1592 </r>
       <r>    8.0792    0.0279 </r>
       <r>    8.0993   -0.0061 </r>
       <r>    8.1308   -0.0317 </r>
       <r>    8.1580   -0.0353 </r>
       <r>    8.1906   -0.0285 </r>
       <r>    8.2443   -0.0130 </r>
       <r>    8.2926   -0.0046 </r>
       <r>    8.3130   -0.0027 </r>
       <r>    8.3756   -0.0004 </r>
       <r>    8.4193   -0.0001 </r>
       <r>    8.4534   -0.0000 </r>
       <r>    8.4973   -0.0000 </r>
       <r>    8.5548   -0.0000 </r>
       <r>    8.6221   -0.0000 </r>
       <r>    8.6652   -0.0000 </r>
       <r>    8.7350   -0.0000 </r>
       <r>    8.8197   -0.0000 </r>
       <r>    8.8691   -0.0000 </r>
       <r>    8.9691   -0.0000 </r>
       <r>    9.0909   -0.0000 </r>
       <r>    9.1981   -0.0000 </r>
       <r>    9.2654   -0.0000 </r>
       <r>    9.8095   -0.0000 </r>
       <r>    9.8391   -0.0000 </r>
       <r>    9.8978   -0.0000 </r>
       <r>    9.9499   -0.0000 </r>
       <r>    9.9706   -0.0000 </r>
       <r>   10.0781   -0.0000 </r>
       <r>   10.1214   -0.0000 </r>
       <r>   10.2785   -0.0000 </r>
       <r>   10.3738   -0.0000 </r>
      </set>
     </set>
    </set>
   </array>
  </eigenvalues>
  <separator name="orbital magnetization" >
   <v name="MAGDIPOLOUT">      0.00000000      0.00000000      0.00000000</v>
  </separator>
  <dos>
   <i name="efermi">      7.96860547 </i>
   <total>
    <array>
     <dimension dim="1">gridpoints</dimension>
     <dimension dim="2">spin</dimension>
     <field>energy</field>
     <field>total</field>
     <field>integrated</field>
     <set>
      <set comment="spin 1">
       <r>   -49.1354     0.0000     0.0000 </r>
       <r>   -48.9276     0.0000     0.0000 </r>
       <r>   -48.7198     0.0000     0.0000 </r>
       <r>   -48.5120     0.0000     0.0000 </r>
       <r>   -48.3041     0.0000     0.0000 </r>
       <r>   -48.0963     0.0000     0.0000 </r>
       <r>   -47.8885     0.0000     0.0000 </r>
       <r>   -47.6807    -0.0000    -0.0000 </r>
       <r>   -47.4729    -0.0000    -0.0000 </r>
       <r>   -47.2651    -0.0000    -0.0000 </r>
       <r>   -47.0573    -0.0000    -0.0000 </r>
       <r>   -46.8495    -0.0000    -0.0000 </r>
       <r>   -46.6417    -0.0597    -0.0124 </r>
       <r>   -46.4339    -1.7329    -0.3725 </r>
       <r>   -46.2260    38.9208     7.7156 </r>
       <r>   -46.0182    59.2155    20.0211 </r>
       <r>   -45.8104     0.1401    20.0503 </r>
       <r>   -45.6026    -0.2415    20.0001 </r>
       <r>   -45.3948    -0.0003    20.0000 </r>
       <r>   -45.1870    -0.0000    20.0000 </r>
       <r>   -44.9792    -0.0000    20.0000 </r>
       <r>   -44.7714     0.0000    20.0000 </r>
       <r>   -44.5636     0.0000    20.0000 </r>
       <r>   -44.3558     0.0000    20.0000 </r>
       <r>   -44.1479     0.0000    20.0000 </r>
       <r>   -43.9401     0.0000    20.0000 </r>
       <r>   -43.7323     0.0000    20.0000 </r>
       <r>   -43.5245     0.0000    20.0000 </r>
       <r>   -43.3167     0.0000    20.0000 </r>
       <r>   -43.1089     0.0000    20.0000 </r>
       <r>   -42.9011     0.0000    20.0000 </r>
       <r>   -42.6933     0.0000    20.0000 </r>
       <r>   -42.4855     0.0000    20.0000 </r>
       <r>   -42.2777     0.0000    20.0000 </r>
       <r>   -42.0698     0.0000    20.0000 </r>
       <r>   -41.8620     0.0000    20.0000 </r>
       <r>   -41.6542    -0.0000    20.0000 </r>
       <r>   -41.4464    -0.0000    20.0000 </r>
       <r>   -41.2386    -0.0000    20.0000 </r>
       <r>   -41.0308    -0.0000    20.0000 </r>
       <r>   -40.8230    -0.0006    19.9999 </r>
       <r>   -40.6152    -0.2383    19.9504 </r>
       <r>   -40.4074     1.1623    20.1919 </r>
       <r>   -40.1996    41.9603    28.9117 </r>
       <r>   -39.9917    47.7816    38.8411 </r>
       <r>   -39.7839     6.0556    40.0996 </r>
       <r>   -39.5761    -0.4712    40.0016 </r>
       <r>   -39.3683    -0.0079    40.0000 </r>
       <r>   -39.1605    -0.0000    40.0000 </r>
       <r>   -38.9527    -0.0000    40.0000 </r>
       <r>   -38.7449     0.0000    40.0000 </r>
       <r>   -38.5371     0.0000    40.0000 </r>
       <r>   -38.3293     0.0000    40.0000 </r>
       <r>   -38.1215     0.0000    40.0000 </r>
       <r>   -37.9136     0.0000    40.0000 </r>
       <r>   -37.7058     0.0000    40.0000 </r>
       <r>   -37.4980     0.0000    40.0000 </r>
       <r>   -37.2902     0.0000    40.0000 </r>
       <r>   -37.0824     0.0000    40.0000 </r>
       <r>   -36.8746     0.0000    40.0000 </r>
       <r>   -36.6668     0.0000    40.0000 </r>
       <r>   -36.4590     0.0000    40.0000 </r>
       <r>   -36.2512     0.0000    40.0000 </r>
       <r>   -36.0434     0.0000    40.0000 </r>
       <r>   -35.8356     0.0000    40.0000 </r>
       <r>   -35.6277     0.0000    40.0000 </r>
       <r>   -35.4199     0.0000    40.0000 </r>
       <r>   -35.2121     0.0000    40.0000 </r>
       <r>   -35.0043     0.0000    40.0000 </r>
       <r>   -34.7965     0.0000    40.0000 </r>
       <r>   -34.5887     0.0000    40.0000 </r>
       <r>   -34.3809     0.0000    40.0000 </r>
       <r>   -34.1731     0.0000    40.0000 </r>
       <r>   -33.9653     0.0000    40.0000 </r>
       <r>   -33.7575     0.0000    40.0000 </r>
       <r>   -33.5496     0.0000    40.0000 </r>
       <r>   -33.3418     0.0000    40.0000 </r>
       <r>   -33.1340     0.0000    40.0000 </r>
       <r>   -32.9262     0.0000    40.0000 </r>
       <r>   -32.7184     0.0000    40.0000 </r>
       <r>   -32.5106     0.0000    40.0000 </r>
       <r>   -32.3028     0.0000    40.0000 </r>
       <r>   -32.0950     0.0000    40.0000 </r>
       <r>   -31.8872     0.0000    40.0000 </r>
       <r>   -31.6794     0.0000    40.0000 </r>
       <r>   -31.4715     0.0000    40.0000 </r>
       <r>   -31.2637     0.0000    40.0000 </r>
       <r>   -31.0559     0.0000    40.0000 </r>
       <r>   -30.8481     0.0000    40.0000 </r>
       <r>   -30.6403     0.0000    40.0000 </r>
       <r>   -30.4325     0.0000    40.0000 </r>
       <r>   -30.2247     0.0000    40.0000 </r>
       <r>   -30.0169     0.0000    40.0000 </r>
       <r>   -29.8091     0.0000    40.0000 </r>
       <r>   -29.6013     0.0000    40.0000 </r>
       <r>   -29.3934     0.0000    40.0000 </r>
       <r>   -29.1856     0.0000    40.0000 </r>
       <r>   -28.9778     0.0000    40.0000 </r>
       <r>   -28.7700     0.0000    40.0000 </r>
       <r>   -28.5622     0.0000    40.0000 </r>
       <r>   -28.3544     0.0000    40.0000 </r>
       <r>   -28.1466     0.0000    40.0000 </r>
       <r>   -27.9388     0.0000    40.0000 </r>
       <r>   -27.7310     0.0000    40.0000 </r>
       <r>   -27.5232     0.0000    40.0000 </r>
       <r>   -27.3153     0.0000    40.0000 </r>
       <r>   -27.1075     0.0000    40.0000 </r>
       <r>   -26.8997     0.0000    40.0000 </r>
       <r>   -26.6919     0.0000    40.0000 </r>
       <r>   -26.4841     0.0000    40.0000 </r>
       <r>   -26.2763     0.0000    40.0000 </r>
       <r>   -26.0685     0.0000    40.0000 </r>
       <r>   -25.8607     0.0000    40.0000 </r>
       <r>   -25.6529     0.0000    40.0000 </r>
       <r>   -25.4451     0.0000    40.0000 </r>
       <r>   -25.2372     0.0000    40.0000 </r>
       <r>   -25.0294     0.0000    40.0000 </r>
       <r>   -24.8216     0.0000    40.0000 </r>
       <r>   -24.6138     0.0000    40.0000 </r>
       <r>   -24.4060     0.0000    40.0000 </r>
       <r>   -24.1982     0.0000    40.0000 </r>
       <r>   -23.9904    -0.0000    40.0000 </r>
       <r>   -23.7826    -0.0000    40.0000 </r>
       <r>   -23.5748    -0.0000    40.0000 </r>
       <r>   -23.3670    -0.0000    40.0000 </r>
       <r>   -23.1591    -0.0053    39.9989 </r>
       <r>   -22.9513    -0.7057    39.8523 </r>
       <r>   -22.7435     9.3473    41.7947 </r>
       <r>   -22.5357    44.0036    50.9391 </r>
       <r>   -22.3279    90.0507    69.6525 </r>
       <r>   -22.1201    94.2608    89.2409 </r>
       <r>   -21.9123    49.5585    99.5396 </r>
       <r>   -21.7045     2.5747   100.0746 </r>
       <r>   -21.4967    -0.3585   100.0001 </r>
       <r>   -21.2889    -0.0007   100.0000 </r>
       <r>   -21.0811    -0.0000   100.0000 </r>
       <r>   -20.8732    -0.0000   100.0000 </r>
       <r>   -20.6654     0.0000   100.0000 </r>
       <r>   -20.4576     0.0000   100.0000 </r>
       <r>   -20.2498     0.0000   100.0000 </r>
       <r>   -20.0420    -0.0000   100.0000 </r>
       <r>   -19.8342    -0.0000   100.0000 </r>
       <r>   -19.6264    -0.0000   100.0000 </r>
       <r>   -19.4186    -0.0000   100.0000 </r>
       <r>   -19.2108    -0.0000   100.0000 </r>
       <r>   -19.0030    -0.0426    99.9911 </r>
       <r>   -18.7951    -0.7620    99.8328 </r>
       <r>   -18.5873    18.3231   103.6405 </r>
       <r>   -18.3795    76.5703   119.5525 </r>
       <r>   -18.1717   105.0250   141.3778 </r>
       <r>   -17.9639    83.6894   158.7693 </r>
       <r>   -17.7561     6.6298   160.1470 </r>
       <r>   -17.5483    -0.7024   160.0010 </r>
       <r>   -17.3405    -0.0049   160.0000 </r>
       <r>   -17.1327    -0.0000   160.0000 </r>
       <r>   -16.9249    -0.0000   160.0000 </r>
       <r>   -16.7170     0.0000   160.0000 </r>
       <r>   -16.5092     0.0000   160.0000 </r>
       <r>   -16.3014     0.0000   160.0000 </r>
       <r>   -16.0936     0.0000   160.0000 </r>
       <r>   -15.8858     0.0000   160.0000 </r>
       <r>   -15.6780     0.0000   160.0000 </r>
       <r>   -15.4702     0.0000   160.0000 </r>
       <r>   -15.2624     0.0000   160.0000 </r>
       <r>   -15.0546     0.0000   160.0000 </r>
       <r>   -14.8468     0.0000   160.0000 </r>
       <r>   -14.6389     0.0000   160.0000 </r>
       <r>   -14.4311     0.0000   160.0000 </r>
       <r>   -14.2233     0.0000   160.0000 </r>
       <r>   -14.0155     0.0000   160.0000 </r>
       <r>   -13.8077     0.0000   160.0000 </r>
       <r>   -13.5999     0.0000   160.0000 </r>
       <r>   -13.3921     0.0000   160.0000 </r>
       <r>   -13.1843     0.0000   160.0000 </r>
       <r>   -12.9765     0.0000   160.0000 </r>
       <r>   -12.7687     0.0000   160.0000 </r>
       <r>   -12.5608     0.0000   160.0000 </r>
       <r>   -12.3530     0.0000   160.0000 </r>
       <r>   -12.1452     0.0000   160.0000 </r>
       <r>   -11.9374     0.0000   160.0000 </r>
       <r>   -11.7296     0.0000   160.0000 </r>
       <r>   -11.5218     0.0000   160.0000 </r>
       <r>   -11.3140     0.0000   160.0000 </r>
       <r>   -11.1062     0.0000   160.0000 </r>
       <r>   -10.8984     0.0000   160.0000 </r>
       <r>   -10.6906     0.0000   160.0000 </r>
       <r>   -10.4827     0.0000   160.0000 </r>
       <r>   -10.2749     0.0000   160.0000 </r>
       <r>   -10.0671     0.0000   160.0000 </r>
       <r>    -9.8593     0.0000   160.0000 </r>
       <r>    -9.6515     0.0000   160.0000 </r>
       <r>    -9.4437     0.0000   160.0000 </r>
       <r>    -9.2359     0.0000   160.0000 </r>
       <r>    -9.0281     0.0000   160.0000 </r>
       <r>    -8.8203     0.0000   160.0000 </r>
       <r>    -8.6125     0.0000   160.0000 </r>
       <r>    -8.4046     0.0000   160.0000 </r>
       <r>    -8.1968     0.0000   160.0000 </r>
       <r>    -7.9890     0.0000   160.0000 </r>
       <r>    -7.7812     0.0000   160.0000 </r>
       <r>    -7.5734     0.0000   160.0000 </r>
       <r>    -7.3656     0.0000   160.0000 </r>
       <r>    -7.1578     0.0000   160.0000 </r>
       <r>    -6.9500     0.0000   160.0000 </r>
       <r>    -6.7422     0.0000   160.0000 </r>
       <r>    -6.5344     0.0000   160.0000 </r>
       <r>    -6.3266     0.0000   160.0000 </r>
       <r>    -6.1187     0.0000   160.0000 </r>
       <r>    -5.9109     0.0000   160.0000 </r>
       <r>    -5.7031     0.0000   160.0000 </r>
       <r>    -5.4953     0.0000   160.0000 </r>
       <r>    -5.2875     0.0000   160.0000 </r>
       <r>    -5.0797     0.0000   160.0000 </r>
       <r>    -4.8719     0.0000   160.0000 </r>
       <r>    -4.6641     0.0000   160.0000 </r>
       <r>    -4.4563     0.0000   160.0000 </r>
       <r>    -4.2485     0.0000   160.0000 </r>
       <r>    -4.0406     0.0000   160.0000 </r>
       <r>    -3.8328     0.0000   160.0000 </r>
       <r>    -3.6250     0.0000   160.0000 </r>
       <r>    -3.4172     0.0000   160.0000 </r>
       <r>    -3.2094     0.0000   160.0000 </r>
       <r>    -3.0016     0.0000   160.0000 </r>
       <r>    -2.7938     0.0000   160.0000 </r>
       <r>    -2.5860     0.0000   160.0000 </r>
       <r>    -2.3782     0.0000   160.0000 </r>
       <r>    -2.1704     0.0000   160.0000 </r>
       <r>    -1.9625     0.0000   160.0000 </r>
       <r>    -1.7547     0.0000   160.0000 </r>
       <r>    -1.5469     0.0000   160.0000 </r>
       <r>    -1.3391     0.0000   160.0000 </r>
       <r>    -1.1313     0.0000   160.0000 </r>
       <r>    -0.9235     0.0000   160.0000 </r>
       <r>    -0.7157     0.0000   160.0000 </r>
       <r>    -0.5079     0.0000   160.0000 </r>
       <r>    -0.3001     0.0000   160.0000 </r>
       <r>    -0.0923     0.0000   160.0000 </r>
       <r>     0.1156    -0.0000   160.0000 </r>
       <r>     0.3234    -0.0000   160.0000 </r>
       <r>     0.5312    -0.0000   160.0000 </r>
       <r>     0.7390    -0.0000   160.0000 </r>
       <r>     0.9468    -0.0001   160.0000 </r>
       <r>     1.1546    -0.0102   159.9979 </r>
       <r>     1.3624     0.1268   160.0242 </r>
       <r>     1.5702     0.6652   160.1625 </r>
       <r>     1.7780     1.4477   160.4633 </r>
       <r>     1.9858     1.8540   160.8486 </r>
       <r>     2.1937     2.8857   161.4483 </r>
       <r>     2.4015     4.5004   162.3835 </r>
       <r>     2.6093     2.2523   162.8515 </r>
       <r>     2.8171     4.7204   163.8325 </r>
       <r>     3.0249     4.1970   164.7047 </r>
       <r>     3.2327     3.5510   165.4426 </r>
       <r>     3.4405     7.0983   166.9177 </r>
       <r>     3.6483     7.1311   168.3996 </r>
       <r>     3.8561     8.2879   170.1219 </r>
       <r>     4.0639     8.3725   171.8618 </r>
       <r>     4.2718    12.3461   174.4274 </r>
       <r>     4.4796    16.5647   177.8697 </r>
       <r>     4.6874    21.1993   182.2752 </r>
       <r>     4.8952    25.7453   187.6253 </r>
       <r>     5.1030    32.2957   194.3366 </r>
       <r>     5.3108    36.3501   201.8905 </r>
       <r>     5.5186    42.5850   210.7401 </r>
       <r>     5.7264    39.9580   219.0438 </r>
       <r>     5.9342    35.8990   226.5039 </r>
       <r>     6.1420    34.7343   233.7221 </r>
       <r>     6.3499    28.2830   239.5996 </r>
       <r>     6.5577    21.2191   244.0091 </r>
       <r>     6.7655    55.7915   255.6031 </r>
       <r>     6.9733    60.0865   268.0897 </r>
       <r>     7.1811    57.2691   279.9908 </r>
       <r>     7.3889    51.5199   290.6971 </r>
       <r>     7.5967    54.5652   302.0363 </r>
       <r>     7.8045    56.4108   313.7590 </r>
       <r>     8.0123    49.2097   323.9853 </r>
       <r>     8.2201    47.9109   333.9417 </r>
       <r>     8.4279    50.4393   344.4234 </r>
       <r>     8.6358    40.9176   352.9265 </r>
       <r>     8.8436    31.9790   359.5721 </r>
       <r>     9.0514    25.4858   364.8683 </r>
       <r>     9.2592    19.8492   368.9931 </r>
       <r>     9.4670    13.7665   371.8540 </r>
       <r>     9.6748    18.5284   375.7043 </r>
       <r>     9.8826    29.9010   381.9180 </r>
       <r>    10.0904    27.9894   387.7345 </r>
       <r>    10.2982    17.1632   391.3012 </r>
       <r>    10.5060     3.5890   392.0470 </r>
       <r>    10.7139    -0.2212   392.0011 </r>
       <r>    10.9217    -0.0051   392.0000 </r>
       <r>    11.1295    -0.0000   392.0000 </r>
       <r>    11.3373    -0.0000   392.0000 </r>
       <r>    11.5451     0.0000   392.0000 </r>
       <r>    11.7529     0.0000   392.0000 </r>
       <r>    11.9607     0.0000   392.0000 </r>
       <r>    12.1685     0.0000   392.0000 </r>
       <r>    12.3763     0.0000   392.0000 </r>
       <r>    12.5841     0.0000   392.0000 </r>
       <r>    12.7920     0.0000   392.0000 </r>
       <r>    12.9998     0.0000   392.0000 </r>
       <r>    13.2076     0.0000   392.0000 </r>
      </set>
     </set>
    </array>
   </total>
  </dos>
 </calculation>
 <structure name="finalpos" >
  <crystal>
   <varray name="basis" >
    <v>       6.92206081       0.03753116       0.00610312 </v>
    <v>       0.05547327      10.22992908       0.00476960 </v>
    <v>       0.00938087       0.00451829      10.26612056 </v>
   </varray>
   <i name="volume">    726.94438595 </i>
   <varray name="rec_basis" >
    <v>       0.14447001      -0.00078335      -0.00013167 </v>
    <v>      -0.00052999       0.09775528      -0.00004254 </v>
    <v>      -0.00008564      -0.00004495       0.09740788 </v>
   </varray>
  </crystal>
  <varray name="positions" >
   <v>       0.25978412       0.18007298       0.17274065 </v>
   <v>       0.03551250       0.00330897       0.33093744 </v>
   <v>       0.02601853       0.99426539       0.67608198 </v>
   <v>       0.25649093       0.18580457       0.82497695 </v>
   <v>       0.50246727       0.34369656       0.34237082 </v>
   <v>       0.75580020       0.49968064       0.49993884 </v>
   <v>       0.48750547       0.33860414       0.64468799 </v>
   <v>       0.50306218       0.65991204       0.34780518 </v>
   <v>       0.74705027       0.17094690       0.82137993 </v>
   <v>       0.01635213       0.00132130       0.99396195 </v>
   <v>       0.23245401       0.17513619       0.50099564 </v>
   <v>       0.25842311       0.50070269       0.16721042 </v>
   <v>       0.49135500       0.99869283       0.99208414 </v>
   <v>       0.74583930       0.16203248       0.17935399 </v>
   <v>       0.46924263       0.99128819       0.33848011 </v>
   <v>       0.74169011       0.48660977       0.81822039 </v>
   <v>       0.52678944       0.67534306       0.99588038 </v>
   <v>       0.49437294       0.67389743       0.65856502 </v>
   <v>       0.99670870       0.33079360       0.00769402 </v>
   <v>       0.25665061       0.49406433       0.83403032 </v>
   <v>       0.97119162       0.66383386       0.99232713 </v>
   <v>       0.23858385       0.81228269       0.17161824 </v>
   <v>       0.76291392       0.16918007       0.49888241 </v>
   <v>       0.47714975       0.99342781       0.67259635 </v>
   <v>       0.76615881       0.83711529       0.18751023 </v>
   <v>       0.77028077       0.84051352       0.49799195 </v>
   <v>       0.99422003       0.34086423       0.32485407 </v>
   <v>       0.23943832       0.50146558       0.49754833 </v>
   <v>       0.00845886       0.34177566       0.66275768 </v>
   <v>       0.99622207       0.65436959       0.34377980 </v>
   <v>       0.22688958       0.82689585       0.49933835 </v>
   <v>       0.23489036       0.81869854       0.83227021 </v>
   <v>       0.49804578       0.32246382       0.00943938 </v>
   <v>       0.74047201       0.49573468       0.18169545 </v>
   <v>       0.76908457       0.84428394       0.81258296 </v>
   <v>       0.00243724       0.67091979       0.66740829 </v>
  </varray>
 </structure>
</modeling>
