       N       E                     dE             d eps       ncg     rms          rms(c)
DAV:   1     0.184315450862E+04    0.18432E+04   -0.10918E+05  5312   0.105E+03
DAV:   2    -0.614251542856E+02   -0.19046E+04   -0.18300E+04  5248   0.368E+02
DAV:   3    -0.331830583363E+03   -0.27041E+03   -0.25646E+03  8536   0.109E+02
DAV:   4    -0.367029288833E+03   -0.35199E+02   -0.33579E+02  8384   0.326E+01
DAV:   5    -0.370594863683E+03   -0.35656E+01   -0.34763E+01  7640   0.101E+01    0.667E+01
RMM:   6    -0.360814920419E+03    0.97799E+01   -0.26273E+01  7252   0.981E+00    0.318E+01
RMM:   7    -0.364323325880E+03   -0.35084E+01   -0.32529E+01  7520   0.822E+00    0.140E+01
RMM:   8    -0.356572693862E+03    0.77506E+01   -0.93694E+00  7465   0.438E+00    0.469E+00
RMM:   9    -0.355966821651E+03    0.60587E+00   -0.32831E+00  7546   0.220E+00    0.280E+00
RMM:  10    -0.355983664195E+03   -0.16843E-01   -0.77000E-01  7571   0.116E+00    0.185E+00
RMM:  11    -0.355954367960E+03    0.29296E-01   -0.19389E-01  7398   0.620E-01    0.103E+00
RMM:  12    -0.355948598776E+03    0.57692E-02   -0.98879E-02  7556   0.483E-01    0.479E-01
RMM:  13    -0.355945383063E+03    0.32157E-02   -0.30066E-02  7532   0.241E-01    0.260E-01
RMM:  14    -0.355945841866E+03   -0.45880E-03   -0.13296E-02  7603   0.134E-01    0.159E-01
RMM:  15    -0.355946231783E+03   -0.38992E-03   -0.65238E-03  7472   0.799E-02    0.855E-02
RMM:  16    -0.355946357430E+03   -0.12565E-03   -0.27620E-03  7134   0.491E-02    0.517E-02
RMM:  17    -0.355946375901E+03   -0.18471E-04   -0.12011E-03  6234   0.326E-02    0.234E-02
RMM:  18    -0.355946415929E+03   -0.40027E-04   -0.58350E-04  5801   0.238E-02    0.117E-02
RMM:  19    -0.355946434822E+03   -0.18893E-04   -0.26285E-04  5292   0.163E-02    0.645E-03
RMM:  20    -0.355946441281E+03   -0.64597E-05   -0.11171E-04  4440   0.121E-02    0.358E-03
RMM:  21    -0.355946444373E+03   -0.30917E-05   -0.56798E-05  4095   0.105E-02
   1 F= -.35594644E+03 E0= -.35595628E+03  d E =-.355946E+03
       N       E                     dE             d eps       ncg     rms          rms(c)
DAV:   1    -0.356011829269E+03   -0.65388E-01   -0.27918E+00  5792   0.517E+00    0.191E+00
RMM:   2    -0.355996772812E+03    0.15056E-01   -0.26082E-01  6565   0.129E+00    0.568E-01
RMM:   3    -0.355991756578E+03    0.50162E-02   -0.50592E-02  7500   0.457E-01    0.418E-01
RMM:   4    -0.355986581179E+03    0.51754E-02   -0.12068E-02  7630   0.210E-01    0.244E-01
RMM:   5    -0.355986215796E+03    0.36538E-03   -0.38724E-03  7641   0.107E-01    0.191E-01
RMM:   6    -0.355986214841E+03    0.95563E-06   -0.16331E-03  7784   0.682E-02    0.110E-01
RMM:   7    -0.355986214756E+03    0.85169E-07   -0.77431E-04  7180   0.475E-02    0.484E-02
RMM:   8    -0.355986241975E+03   -0.27219E-04   -0.35974E-04  6537   0.288E-02    0.391E-02
RMM:   9    -0.355986254453E+03   -0.12479E-04   -0.14064E-04  5385   0.211E-02    0.316E-02
RMM:  10    -0.355986262002E+03   -0.75486E-05   -0.64028E-05  4843   0.149E-02
   2 F= -.35598626E+03 E0= -.35599626E+03  d E =-.398176E-01
       N       E                     dE             d eps       ncg     rms          rms(c)
DAV:   1    -0.356233022497E+03   -0.24677E+00   -0.23339E+01  5352   0.150E+01    0.536E+00
RMM:   2    -0.356106720202E+03    0.12630E+00   -0.21118E+00  6532   0.371E+00    0.163E+00
RMM:   3    -0.356063894763E+03    0.42825E-01   -0.42111E-01  7542   0.131E+00    0.121E+00
RMM:   4    -0.356021143071E+03    0.42752E-01   -0.10093E-01  7645   0.610E-01    0.701E-01
RMM:   5    -0.356018015997E+03    0.31271E-02   -0.31883E-02  7646   0.308E-01    0.548E-01
RMM:   6    -0.356018250806E+03   -0.23481E-03   -0.13562E-02  7847   0.195E-01    0.317E-01
RMM:   7    -0.356018474382E+03   -0.22358E-03   -0.66935E-03  8102   0.137E-01    0.137E-01
RMM:   8    -0.356018801590E+03   -0.32721E-03   -0.31485E-03  8166   0.783E-02    0.115E-01
RMM:   9    -0.356018938472E+03   -0.13688E-03   -0.10207E-03  7367   0.518E-02    0.946E-02
RMM:  10    -0.356019059130E+03   -0.12066E-03   -0.42958E-04  6987   0.322E-02    0.641E-02
RMM:  11    -0.356019128401E+03   -0.69271E-04   -0.30924E-04  6503   0.295E-02    0.196E-02
RMM:  12    -0.356019130697E+03   -0.22957E-05   -0.20130E-04  5961   0.237E-02    0.900E-03
RMM:  13    -0.356019134113E+03   -0.34156E-05   -0.82054E-05  5032   0.160E-02
   3 F= -.35601913E+03 E0= -.35602949E+03  d E =-.726897E-01
       N       E                     dE             d eps       ncg     rms          rms(c)
DAV:   1    -0.356033053063E+03   -0.13922E-01   -0.11341E+00  5488   0.327E+00    0.120E+00
RMM:   2    -0.356026339902E+03    0.67132E-02   -0.10449E-01  6606   0.816E-01    0.363E-01
RMM:   3    -0.356024212493E+03    0.21274E-02   -0.20352E-02  7549   0.288E-01    0.266E-01
RMM:   4    -0.356022160699E+03    0.20518E-02   -0.49444E-03  7635   0.134E-01    0.155E-01
RMM:   5    -0.356022037827E+03    0.12287E-03   -0.15571E-03  7581   0.698E-02    0.121E-01
RMM:   6    -0.356022088517E+03   -0.50690E-04   -0.66033E-04  7407   0.436E-02    0.709E-02
RMM:   7    -0.356022131717E+03   -0.43200E-04   -0.29362E-04  6635   0.305E-02    0.314E-02
RMM:   8    -0.356022159777E+03   -0.28060E-04   -0.15291E-04  5638   0.202E-02    0.251E-02
RMM:   9    -0.356022173578E+03   -0.13801E-04   -0.48032E-05  4436   0.146E-02    0.189E-02
RMM:  10    -0.356022190405E+03   -0.16827E-04   -0.27769E-05  3857   0.116E-02    0.107E-02
RMM:  11    -0.356022200053E+03   -0.96486E-05   -0.15409E-05  3452   0.112E-02
   4 F= -.35602220E+03 E0= -.35603249E+03  d E =-.757557E-01
       N       E                     dE             d eps       ncg     rms          rms(c)
DAV:   1    -0.356052603395E+03   -0.30413E-01   -0.33747E+00  5088   0.498E+00    0.101E+00
RMM:   2    -0.356060462848E+03   -0.78595E-02   -0.19395E-01  7079   0.107E+00    0.408E-01
RMM:   3    -0.356055975696E+03    0.44872E-02   -0.24934E-02  7291   0.299E-01    0.312E-01
RMM:   4    -0.356054149937E+03    0.18258E-02   -0.54751E-03  7632   0.133E-01    0.176E-01
RMM:   5    -0.356054027249E+03    0.12269E-03   -0.20675E-03  7580   0.806E-02    0.122E-01
RMM:   6    -0.356054065404E+03   -0.38155E-04   -0.92053E-04  7678   0.488E-02    0.772E-02
RMM:   7    -0.356054094584E+03   -0.29180E-04   -0.37846E-04  6820   0.312E-02    0.419E-02
RMM:   8    -0.356054115719E+03   -0.21134E-04   -0.16099E-04  6233   0.191E-02    0.268E-02
RMM:   9    -0.356054132549E+03   -0.16830E-04   -0.72055E-05  4735   0.150E-02    0.154E-02
RMM:  10    -0.356054141242E+03   -0.86929E-05   -0.29590E-05  4071   0.121E-02
   5 F= -.35605414E+03 E0= -.35606432E+03  d E =-.319412E-01
       N       E                     dE             d eps       ncg     rms          rms(c)
DAV:   1    -0.356079013457E+03   -0.24881E-01   -0.22559E+01  5072   0.129E+01    0.268E+00
RMM:   2    -0.356133824073E+03   -0.54811E-01   -0.13225E+00  7162   0.285E+00    0.107E+00
RMM:   3    -0.356101295126E+03    0.32529E-01   -0.17032E-01  7418   0.776E-01    0.798E-01
RMM:   4    -0.356089246250E+03    0.12049E-01   -0.39150E-02  7658   0.351E-01    0.447E-01
RMM:   5    -0.356088279328E+03    0.96692E-03   -0.13984E-02  7584   0.208E-01    0.316E-01
RMM:   6    -0.356088507855E+03   -0.22853E-03   -0.62562E-03  7711   0.126E-01    0.199E-01
RMM:   7    -0.356088636596E+03   -0.12874E-03   -0.26091E-03  8127   0.818E-02    0.105E-01
RMM:   8    -0.356088741347E+03   -0.10475E-03   -0.11661E-03  7492   0.457E-02    0.705E-02
RMM:   9    -0.356088804209E+03   -0.62862E-04   -0.39774E-04  6365   0.322E-02    0.431E-02
RMM:  10    -0.356088851813E+03   -0.47604E-04   -0.21627E-04  6098   0.235E-02    0.231E-02
RMM:  11    -0.356088865945E+03   -0.14132E-04   -0.91909E-05  5298   0.164E-02    0.111E-02
RMM:  12    -0.356088871796E+03   -0.58514E-05   -0.42652E-05  4454   0.125E-02
   6 F= -.35608887E+03 E0= -.35609866E+03  d E =-.666717E-01
       N       E                     dE             d eps       ncg     rms          rms(c)
DAV:   1    -0.356095609218E+03   -0.67433E-02   -0.60944E-01  5152   0.216E+00    0.175E-01
RMM:   2    -0.356096954770E+03   -0.13456E-02   -0.16442E-02  7168   0.353E-01    0.109E-01
RMM:   3    -0.356096547963E+03    0.40681E-03   -0.23297E-03  7333   0.995E-02    0.710E-02
RMM:   4    -0.356096512768E+03    0.35195E-04   -0.59041E-04  8401   0.360E-02    0.426E-02
RMM:   5    -0.356096504471E+03    0.82973E-05   -0.22581E-04  6590   0.231E-02    0.220E-02
RMM:   6    -0.356096507224E+03   -0.27524E-05   -0.90307E-05  4843   0.155E-02
   7 F= -.35609651E+03 E0= -.35610639E+03  d E =-.763543E-02
       N       E                     dE             d eps       ncg     rms          rms(c)
DAV:   1    -0.356104295279E+03   -0.77908E-02   -0.54838E+00  4928   0.649E+00    0.527E-01
RMM:   2    -0.356116458457E+03   -0.12163E-01   -0.14861E-01  7175   0.106E+00    0.329E-01
RMM:   3    -0.356112884102E+03    0.35744E-02   -0.21304E-02  7366   0.298E-01    0.215E-01
RMM:   4    -0.356112567747E+03    0.31635E-03   -0.53425E-03  8552   0.108E-01    0.130E-01
RMM:   5    -0.356112507278E+03    0.60469E-04   -0.21344E-03  8202   0.698E-02    0.685E-02
RMM:   6    -0.356112520325E+03   -0.13047E-04   -0.79263E-04  8318   0.419E-02    0.321E-02
RMM:   7    -0.356112519127E+03    0.11977E-05   -0.30051E-04  6263   0.220E-02    0.200E-02
RMM:   8    -0.356112526845E+03   -0.77173E-05   -0.12512E-04  5479   0.188E-02    0.107E-02
RMM:   9    -0.356112530983E+03   -0.41387E-05   -0.56782E-05  4429   0.135E-02
   8 F= -.35611253E+03 E0= -.35612271E+03  d E =-.236592E-01
       N       E                     dE             d eps       ncg     rms          rms(c)
DAV:   1    -0.356080806983E+03    0.31720E-01   -0.21916E+01  4928   0.130E+01    0.107E+00
RMM:   2    -0.356129399052E+03   -0.48592E-01   -0.59820E-01  7160   0.215E+00    0.661E-01
RMM:   3    -0.356115574659E+03    0.13824E-01   -0.85774E-02  7426   0.603E-01    0.436E-01
RMM:   4    -0.356114184637E+03    0.13900E-02   -0.20948E-02  8602   0.213E-01    0.269E-01
RMM:   5    -0.356113982937E+03    0.20170E-03   -0.83178E-03  8393   0.140E-01    0.145E-01
RMM:   6    -0.356113986975E+03   -0.40380E-05   -0.31659E-03  8521   0.864E-02    0.648E-02
RMM:   7    -0.356113990173E+03   -0.31977E-05   -0.13433E-03  8379   0.453E-02    0.396E-02
RMM:   8    -0.356114016849E+03   -0.26676E-04   -0.47956E-04  7480   0.296E-02    0.224E-02
RMM:   9    -0.356114031794E+03   -0.14945E-04   -0.19847E-04  6670   0.220E-02    0.100E-02
RMM:  10    -0.356114041985E+03   -0.10191E-04   -0.12259E-04  5374   0.164E-02    0.506E-03
RMM:  11    -0.356114044129E+03   -0.21435E-05   -0.37057E-05  4428   0.128E-02
   9 F= -.35611404E+03 E0= -.35612487E+03  d E =-.251723E-01
       N       E                     dE             d eps       ncg     rms          rms(c)
DAV:   1    -0.356111341569E+03    0.27004E-02   -0.48257E+00  4928   0.609E+00    0.489E-01
RMM:   2    -0.356121821702E+03   -0.10480E-01   -0.12859E-01  7075   0.991E-01    0.301E-01
RMM:   3    -0.356118765805E+03    0.30559E-02   -0.17861E-02  7388   0.280E-01    0.199E-01
RMM:   4    -0.356118441029E+03    0.32478E-03   -0.42823E-03  8512   0.994E-02    0.116E-01
RMM:   5    -0.356118377819E+03    0.63210E-04   -0.17393E-03  8147   0.637E-02    0.622E-02
RMM:   6    -0.356118381742E+03   -0.39231E-05   -0.62217E-04  8107   0.375E-02    0.297E-02
RMM:   7    -0.356118378103E+03    0.36394E-05   -0.22569E-04  5833   0.194E-02    0.186E-02
RMM:   8    -0.356118383213E+03   -0.51100E-05   -0.95789E-05  4947   0.169E-02
  10 F= -.35611838E+03 E0= -.35612891E+03  d E =-.295114E-01
       N       E                     dE             d eps       ncg     rms          rms(c)
DAV:   1    -0.356121473208E+03   -0.30951E-02   -0.19265E+00  4928   0.408E+00    0.447E-01
RMM:   2    -0.356125816392E+03   -0.43432E-02   -0.66523E-02  7342   0.723E-01    0.208E-01
RMM:   3    -0.356125223222E+03    0.59317E-03   -0.72238E-03  7429   0.187E-01    0.145E-01
RMM:   4    -0.356124956366E+03    0.26686E-03   -0.17822E-03  7766   0.688E-02    0.924E-02
RMM:   5    -0.356124927180E+03    0.29186E-04   -0.77037E-04  7689   0.469E-02    0.574E-02
RMM:   6    -0.356124892492E+03    0.34688E-04   -0.29659E-04  7293   0.290E-02    0.338E-02
RMM:   7    -0.356124889175E+03    0.33172E-05   -0.93366E-05  5039   0.161E-02
  11 F= -.35612489E+03 E0= -.35613569E+03  d E =-.650596E-02
       N       E                     dE             d eps       ncg     rms          rms(c)
DAV:   1    -0.356110331169E+03    0.14561E-01   -0.11290E+01  4928   0.987E+00    0.107E+00
RMM:   2    -0.356136658793E+03   -0.26328E-01   -0.39605E-01  7357   0.176E+00    0.509E-01
RMM:   3    -0.356133248373E+03    0.34104E-02   -0.44269E-02  7540   0.455E-01    0.356E-01
RMM:   4    -0.356131804076E+03    0.14443E-02   -0.10972E-02  7770   0.169E-01    0.229E-01
RMM:   5    -0.356131653726E+03    0.15035E-03   -0.47211E-03  7740   0.116E-01    0.142E-01
RMM:   6    -0.356131477438E+03    0.17629E-03   -0.18889E-03  8117   0.717E-02    0.831E-02
RMM:   7    -0.356131501384E+03   -0.23945E-04   -0.75943E-04  7805   0.388E-02    0.462E-02
RMM:   8    -0.356131510383E+03   -0.89997E-05   -0.28866E-04  6519   0.243E-02    0.285E-02
RMM:   9    -0.356131518045E+03   -0.76620E-05   -0.16429E-04  5865   0.203E-02    0.183E-02
RMM:  10    -0.356131517126E+03    0.91965E-06   -0.68568E-05  5115   0.160E-02
  12 F= -.35613152E+03 E0= -.35614301E+03  d E =-.131339E-01
       N       E                     dE             d eps       ncg     rms          rms(c)
DAV:   1    -0.356136951302E+03   -0.54333E-02   -0.95164E-01  5344   0.296E+00    0.634E-01
RMM:   2    -0.356136389923E+03    0.56138E-03   -0.48761E-02  7175   0.582E-01    0.223E-01
RMM:   3    -0.356135722633E+03    0.66729E-03   -0.76371E-03  7520   0.176E-01    0.160E-01
RMM:   4    -0.356135121678E+03    0.60095E-03   -0.21768E-03  7630   0.831E-02    0.935E-02
RMM:   5    -0.356135086241E+03    0.35437E-04   -0.71942E-04  7560   0.491E-02    0.700E-02
RMM:   6    -0.356135106848E+03   -0.20607E-04   -0.30096E-04  6978   0.275E-02    0.420E-02
RMM:   7    -0.356135126354E+03   -0.19506E-04   -0.11674E-04  5901   0.211E-02    0.193E-02
RMM:   8    -0.356135139647E+03   -0.13293E-04   -0.62615E-05  4751   0.144E-02    0.124E-02
RMM:   9    -0.356135146315E+03   -0.66676E-05   -0.22402E-05  3793   0.110E-02
  13 F= -.35613515E+03 E0= -.35614671E+03  d E =-.362919E-02
       N       E                     dE             d eps       ncg     rms          rms(c)
DAV:   1    -0.356142222950E+03   -0.70833E-02   -0.26930E+00  5152   0.498E+00    0.107E+00
RMM:   2    -0.356140656953E+03    0.15660E-02   -0.13641E-01  7113   0.977E-01    0.367E-01
RMM:   3    -0.356138778444E+03    0.18785E-02   -0.20929E-02  7489   0.299E-01    0.262E-01
RMM:   4    -0.356137149589E+03    0.16289E-02   -0.59326E-03  7632   0.137E-01    0.153E-01
RMM:   5    -0.356137061270E+03    0.88319E-04   -0.19188E-03  7615   0.804E-02    0.116E-01
RMM:   6    -0.356137116707E+03   -0.55438E-04   -0.81459E-04  7873   0.452E-02    0.706E-02
RMM:   7    -0.356137165872E+03   -0.49164E-04   -0.33962E-04  6718   0.328E-02    0.329E-02
RMM:   8    -0.356137197641E+03   -0.31770E-04   -0.15902E-04  5534   0.209E-02    0.239E-02
RMM:   9    -0.356137215430E+03   -0.17789E-04   -0.76773E-05  4878   0.168E-02    0.175E-02
RMM:  10    -0.356137229763E+03   -0.14333E-04   -0.35716E-05  4158   0.126E-02    0.914E-03
RMM:  11    -0.356137237642E+03   -0.78792E-05   -0.18874E-05  3636   0.115E-02
  14 F= -.35613724E+03 E0= -.35614894E+03  d E =-.572052E-02
       N       E                     dE             d eps       ncg     rms          rms(c)
DAV:   1    -0.356138815699E+03   -0.15859E-02   -0.76810E-01  5120   0.251E+00    0.190E-01
RMM:   2    -0.356140255851E+03   -0.14402E-02   -0.21657E-02  7327   0.421E-01    0.101E-01
RMM:   3    -0.356140161414E+03    0.94436E-04   -0.26980E-03  7295   0.114E-01    0.740E-02
RMM:   4    -0.356140087339E+03    0.74076E-04   -0.73301E-04  8443   0.436E-02    0.395E-02
RMM:   5    -0.356140090237E+03   -0.28978E-05   -0.27201E-04  6645   0.269E-02    0.212E-02
RMM:   6    -0.356140088833E+03    0.14042E-05   -0.11700E-04  5172   0.168E-02    0.116E-02
RMM:   7    -0.356140090320E+03   -0.14871E-05   -0.44749E-05  4281   0.131E-02
  15 F= -.35614009E+03 E0= -.35615185E+03  d E =-.285268E-02
       N       E                     dE             d eps       ncg     rms          rms(c)
DAV:   1    -0.356134262236E+03    0.58266E-02   -0.69116E+00  4928   0.753E+00    0.568E-01
RMM:   2    -0.356147291512E+03   -0.13029E-01   -0.19531E-01  7297   0.126E+00    0.304E-01
RMM:   3    -0.356146454610E+03    0.83690E-03   -0.24505E-02  7376   0.344E-01    0.221E-01
RMM:   4    -0.356145773138E+03    0.68147E-03   -0.62143E-03  8480   0.128E-01    0.119E-01
RMM:   5    -0.356145821123E+03   -0.47985E-04   -0.26518E-03  8186   0.809E-02    0.643E-02
RMM:   6    -0.356145798711E+03    0.22412E-04   -0.95990E-04  8369   0.457E-02    0.354E-02
RMM:   7    -0.356145821557E+03   -0.22846E-04   -0.40842E-04  7334   0.248E-02    0.236E-02
RMM:   8    -0.356145823613E+03   -0.20562E-05   -0.11664E-04  5767   0.182E-02    0.124E-02
RMM:   9    -0.356145826205E+03   -0.25925E-05   -0.57793E-05  4772   0.145E-02
  16 F= -.35614583E+03 E0= -.35615772E+03  d E =-.858856E-02
       N       E                     dE             d eps       ncg     rms          rms(c)
DAV:   1    -0.356097306055E+03    0.48518E-01   -0.27634E+01  4928   0.151E+01    0.114E+00
RMM:   2    -0.356150284163E+03   -0.52978E-01   -0.78681E-01  7299   0.253E+00    0.613E-01
RMM:   3    -0.356146952629E+03    0.33315E-02   -0.98253E-02  7485   0.689E-01    0.445E-01
RMM:   4    -0.356144280294E+03    0.26723E-02   -0.24520E-02  8493   0.254E-01    0.244E-01
RMM:   5    -0.356144419974E+03   -0.13968E-03   -0.10489E-02  8399   0.163E-01    0.129E-01
RMM:   6    -0.356144324889E+03    0.95085E-04   -0.38195E-03  8743   0.913E-02    0.714E-02
RMM:   7    -0.356144423625E+03   -0.98736E-04   -0.16377E-03  8308   0.488E-02    0.480E-02
RMM:   8    -0.356144435185E+03   -0.11561E-04   -0.48709E-04  7577   0.321E-02    0.255E-02
RMM:   9    -0.356144452487E+03   -0.17301E-04   -0.24663E-04  7314   0.240E-02    0.107E-02
RMM:  10    -0.356144460693E+03   -0.82065E-05   -0.11775E-04  5721   0.166E-02    0.539E-03
RMM:  11    -0.356144463406E+03   -0.27127E-05   -0.49977E-05  4627   0.131E-02
  17 F= -.35614446E+03 E0= -.35615646E+03  d E =-.722576E-02
       N       E                     dE             d eps       ncg     rms          rms(c)
DAV:   1    -0.356131363063E+03    0.13098E-01   -0.98519E+00  4928   0.899E+00    0.674E-01
RMM:   2    -0.356149567279E+03   -0.18204E-01   -0.27477E-01  7235   0.151E+00    0.354E-01
RMM:   3    -0.356148315644E+03    0.12516E-02   -0.33761E-02  7377   0.409E-01    0.260E-01
RMM:   4    -0.356147259870E+03    0.10558E-02   -0.84257E-03  8476   0.152E-01    0.137E-01
RMM:   5    -0.356147346221E+03   -0.86351E-04   -0.36063E-03  8285   0.944E-02    0.756E-02
RMM:   6    -0.356147318957E+03    0.27264E-04   -0.12678E-03  8664   0.543E-02    0.415E-02
RMM:   7    -0.356147350104E+03   -0.31147E-04   -0.50910E-04  7659   0.286E-02    0.275E-02
RMM:   8    -0.356147356855E+03   -0.67505E-05   -0.14431E-04  6589   0.202E-02    0.146E-02
RMM:   9    -0.356147364190E+03   -0.73351E-05   -0.74114E-05  5051   0.158E-02
  18 F= -.35614736E+03 E0= -.35615934E+03  d E =-.101265E-01
       N       E                     dE             d eps       ncg     rms          rms(c)
DAV:   1    -0.356152093459E+03   -0.47366E-02   -0.70122E-01  5280   0.252E+00    0.581E-01
RMM:   2    -0.356151426850E+03    0.66661E-03   -0.36168E-02  7329   0.501E-01    0.213E-01
RMM:   3    -0.356150758814E+03    0.66804E-03   -0.64154E-03  7533   0.151E-01    0.151E-01
RMM:   4    -0.356150155202E+03    0.60361E-03   -0.17344E-03  7632   0.788E-02    0.822E-02
RMM:   5    -0.356150091993E+03    0.63209E-04   -0.58998E-04  7493   0.456E-02    0.622E-02
RMM:   6    -0.356150078626E+03    0.13367E-04   -0.23714E-04  6848   0.247E-02    0.382E-02
RMM:   7    -0.356150068813E+03    0.98126E-05   -0.88832E-05  5217   0.188E-02
  19 F= -.35615007E+03 E0= -.35616211E+03  d E =-.270462E-02
       N       E                     dE             d eps       ncg     rms          rms(c)
DAV:   1    -0.356154361227E+03   -0.42826E-02   -0.12169E+00  5152   0.332E+00    0.758E-01
RMM:   2    -0.356153217599E+03    0.11436E-02   -0.62631E-02  7330   0.660E-01    0.277E-01
RMM:   3    -0.356152058505E+03    0.11591E-02   -0.10937E-02  7511   0.198E-01    0.196E-01
RMM:   4    -0.356151059656E+03    0.99885E-03   -0.30368E-03  7638   0.103E-01    0.107E-01
RMM:   5    -0.356150968612E+03    0.91043E-04   -0.10489E-03  7562   0.593E-02    0.819E-02
RMM:   6    -0.356150961900E+03    0.67123E-05   -0.43331E-04  7207   0.327E-02    0.516E-02
RMM:   7    -0.356150955596E+03    0.63036E-05   -0.16752E-04  5868   0.245E-02    0.255E-02
RMM:   8    -0.356150958597E+03   -0.30005E-05   -0.10920E-04  5616   0.181E-02    0.177E-02
RMM:   9    -0.356150957514E+03    0.10830E-05   -0.34134E-05  4140   0.128E-02
  20 F= -.35615096E+03 E0= -.35616310E+03  d E =-.359332E-02
       N       E                     dE             d eps       ncg     rms          rms(c)
DAV:   1    -0.356151928130E+03   -0.96953E-03   -0.13611E-01  5264   0.107E+00    0.129E-01
RMM:   2    -0.356152156759E+03   -0.22863E-03   -0.47223E-03  7372   0.191E-01    0.589E-02
RMM:   3    -0.356152119480E+03    0.37279E-04   -0.58618E-04  7306   0.513E-02    0.392E-02
RMM:   4    -0.356152104890E+03    0.14590E-04   -0.16793E-04  6459   0.209E-02    0.261E-02
RMM:   5    -0.356152101803E+03    0.30872E-05   -0.54849E-05  4209   0.127E-02
  21 F= -.35615210E+03 E0= -.35616425E+03  d E =-.114429E-02
       N       E                     dE             d eps       ncg     rms          rms(c)
DAV:   1    -0.356152955263E+03   -0.85037E-03   -0.12218E+00  5024   0.320E+00    0.373E-01
RMM:   2    -0.356155016758E+03   -0.20615E-02   -0.40898E-02  7380   0.567E-01    0.167E-01
RMM:   3    -0.356154686043E+03    0.33071E-03   -0.46987E-03  7409   0.148E-01    0.109E-01
RMM:   4    -0.356154578483E+03    0.10756E-03   -0.13188E-03  8055   0.586E-02    0.732E-02
RMM:   5    -0.356154569029E+03    0.94539E-05   -0.51760E-04  8051   0.376E-02    0.476E-02
RMM:   6    -0.356154572176E+03   -0.31467E-05   -0.20867E-04  6841   0.226E-02    0.289E-02
RMM:   7    -0.356154581995E+03   -0.98190E-05   -0.72143E-05  4603   0.160E-02
  22 F= -.35615458E+03 E0= -.35616676E+03  d E =-.362448E-02
       N       E                     dE             d eps       ncg     rms          rms(c)
DAV:   1    -0.356148721977E+03    0.58502E-02   -0.48885E+00  5040   0.641E+00    0.754E-01
RMM:   2    -0.356156860626E+03   -0.81386E-02   -0.16327E-01  7385   0.113E+00    0.331E-01
RMM:   3    -0.356155550328E+03    0.13103E-02   -0.18397E-02  7446   0.293E-01    0.213E-01
RMM:   4    -0.356155125275E+03    0.42505E-03   -0.52456E-03  8087   0.116E-01    0.141E-01
RMM:   5    -0.356155077251E+03    0.48024E-04   -0.19749E-03  8307   0.742E-02    0.920E-02
RMM:   6    -0.356155086440E+03   -0.91893E-05   -0.82701E-04  8414   0.441E-02    0.564E-02
RMM:   7    -0.356155116531E+03   -0.30091E-04   -0.30653E-04  6963   0.279E-02    0.274E-02
RMM:   8    -0.356155137587E+03   -0.21056E-04   -0.15212E-04  6138   0.198E-02    0.161E-02
RMM:   9    -0.356155147854E+03   -0.10267E-04   -0.69227E-05  4970   0.152E-02    0.109E-02
RMM:  10    -0.356155152500E+03   -0.46464E-05   -0.25305E-05  3713   0.132E-02
  23 F= -.35615515E+03 E0= -.35616737E+03  d E =-.419499E-02
       N       E                     dE             d eps       ncg     rms          rms(c)
DAV:   1    -0.356154576817E+03    0.57104E-03   -0.84473E-01  4936   0.267E+00    0.310E-01
RMM:   2    -0.356156046411E+03   -0.14696E-02   -0.28073E-02  7368   0.472E-01    0.139E-01
RMM:   3    -0.356155795960E+03    0.25045E-03   -0.30099E-03  7396   0.120E-01    0.912E-02
RMM:   4    -0.356155700296E+03    0.95664E-04   -0.78020E-04  7662   0.463E-02    0.617E-02
RMM:   5    -0.356155673141E+03    0.27155E-04   -0.29918E-04  7503   0.295E-02    0.395E-02
RMM:   6    -0.356155659330E+03    0.13811E-04   -0.12034E-04  6430   0.180E-02    0.234E-02
RMM:   7    -0.356155654851E+03    0.44786E-05   -0.40286E-05  3788   0.125E-02
  24 F= -.35615565E+03 E0= -.35616786E+03  d E =-.469734E-02
       N       E                     dE             d eps       ncg     rms          rms(c)
DAV:   1    -0.356156803197E+03   -0.11439E-02   -0.54437E-02  5152   0.720E-01    0.188E-01
RMM:   2    -0.356156611291E+03    0.19191E-03   -0.31880E-03  7366   0.147E-01    0.730E-02
RMM:   3    -0.356156552652E+03    0.58639E-04   -0.71867E-04  7458   0.483E-02    0.533E-02
RMM:   4    -0.356156475026E+03    0.77626E-04   -0.19382E-04  7151   0.275E-02    0.302E-02
RMM:   5    -0.356156467740E+03    0.72860E-05   -0.66525E-05  4798   0.140E-02
  25 F= -.35615647E+03 E0= -.35616865E+03  d E =-.812888E-03
       N       E                     dE             d eps       ncg     rms          rms(c)
DAV:   1    -0.356160574375E+03   -0.40993E-02   -0.48854E-01  4976   0.216E+00    0.557E-01
RMM:   2    -0.356158790953E+03    0.17834E-02   -0.27786E-02  7356   0.433E-01    0.213E-01
RMM:   3    -0.356158202506E+03    0.58845E-03   -0.60859E-03  7460   0.138E-01    0.154E-01
RMM:   4    -0.356157554752E+03    0.64775E-03   -0.16900E-03  7416   0.805E-02    0.880E-02
RMM:   5    -0.356157506803E+03    0.47950E-04   -0.68664E-04  7595   0.412E-02    0.668E-02
RMM:   6    -0.356157518487E+03   -0.11684E-04   -0.25742E-04  6597   0.261E-02    0.380E-02
RMM:   7    -0.356157531164E+03   -0.12677E-04   -0.11993E-04  5374   0.191E-02    0.158E-02
RMM:   8    -0.356157540787E+03   -0.96232E-05   -0.70290E-05  5419   0.160E-02
  26 F= -.35615754E+03 E0= -.35616965E+03  d E =-.188594E-02
       N       E                     dE             d eps       ncg     rms          rms(c)
DAV:   1    -0.356158889615E+03   -0.13585E-02   -0.11489E-01  5120   0.104E+00    0.270E-01
RMM:   2    -0.356158589499E+03    0.30012E-03   -0.66649E-03  7342   0.217E-01    0.983E-02
RMM:   3    -0.356158475886E+03    0.11361E-03   -0.13272E-03  7447   0.676E-02    0.722E-02
RMM:   4    -0.356158332645E+03    0.14324E-03   -0.35732E-04  7345   0.354E-02    0.420E-02
RMM:   5    -0.356158315603E+03    0.17043E-04   -0.12899E-04  6266   0.190E-02    0.315E-02
RMM:   6    -0.356158308660E+03    0.69426E-05   -0.53537E-05  4262   0.134E-02
  27 F= -.35615831E+03 E0= -.35617041E+03  d E =-.767873E-03
       N       E                     dE             d eps       ncg     rms          rms(c)
DAV:   1    -0.356160338935E+03   -0.20233E-02   -0.33992E-01  4976   0.179E+00    0.453E-01
RMM:   2    -0.356159384635E+03    0.95430E-03   -0.18916E-02  7321   0.368E-01    0.160E-01
RMM:   3    -0.356159040947E+03    0.34369E-03   -0.35900E-03  7429   0.114E-01    0.117E-01
RMM:   4    -0.356158651511E+03    0.38944E-03   -0.97806E-04  7487   0.592E-02    0.685E-02
RMM:   5    -0.356158614608E+03    0.36903E-04   -0.37833E-04  7570   0.314E-02    0.523E-02
RMM:   6    -0.356158606197E+03    0.84115E-05   -0.14710E-04  6225   0.203E-02    0.312E-02
RMM:   7    -0.356158597998E+03    0.81987E-05   -0.76637E-05  4906   0.159E-02
  28 F= -.35615860E+03 E0= -.35617068E+03  d E =-.105721E-02
       N       E                     dE             d eps       ncg     rms          rms(c)
DAV:   1    -0.356158679515E+03   -0.73318E-04   -0.85754E-03  5472   0.283E-01    0.779E-02
RMM:   2    -0.356158650276E+03    0.29239E-04   -0.50720E-04  7224   0.603E-02    0.304E-02
RMM:   3    -0.356158641084E+03    0.91923E-05   -0.10860E-04  5963   0.199E-02    0.219E-02
RMM:   4    -0.356158627526E+03    0.13558E-04   -0.25947E-05  3004   0.128E-02    0.133E-02
RMM:   5    -0.356158625987E+03    0.15387E-05   -0.89661E-06  2743   0.994E-03
  29 F= -.35615863E+03 E0= -.35617071E+03  d E =-.108520E-02
       N       E                     dE             d eps       ncg     rms          rms(c)
DAV:   1    -0.356158857219E+03   -0.22969E-03   -0.60332E-02  5136   0.753E-01    0.190E-01
RMM:   2    -0.356158684417E+03    0.17280E-03   -0.33494E-03  7319   0.155E-01    0.675E-02
RMM:   3    -0.356158626956E+03    0.57461E-04   -0.62562E-04  7399   0.480E-02    0.497E-02
RMM:   4    -0.356158561235E+03    0.65720E-04   -0.16740E-04  7158   0.247E-02    0.293E-02
RMM:   5    -0.356158557625E+03    0.36101E-05   -0.56840E-05  4705   0.133E-02
  30 F= -.35615856E+03 E0= -.35617065E+03  d E =-.101684E-02
       N       E                     dE             d eps       ncg     rms          rms(c)
DAV:   1    -0.356158782516E+03   -0.22128E-03   -0.27702E-02  5376   0.509E-01    0.137E-01
RMM:   2    -0.356158709714E+03    0.72802E-04   -0.15575E-03  7224   0.107E-01    0.493E-02
RMM:   3    -0.356158686098E+03    0.23616E-04   -0.31187E-04  7386   0.356E-02    0.347E-02
RMM:   4    -0.356158648784E+03    0.37314E-04   -0.82086E-05  6510   0.179E-02    0.179E-02
RMM:   5    -0.356158643004E+03    0.57792E-05   -0.19266E-05  2744   0.105E-02
  31 F= -.35615864E+03 E0= -.35617073E+03  d E =-.110222E-02
       N       E                     dE             d eps       ncg     rms          rms(c)
DAV:   1    -0.356158647157E+03    0.16266E-05   -0.72097E-04  5176   0.839E-02    0.200E-02
RMM:   2    -0.356158644562E+03    0.25946E-05   -0.47749E-05  5296   0.178E-02
  32 F= -.35615864E+03 E0= -.35617073E+03  d E =-.110378E-02
       N       E                     dE             d eps       ncg     rms          rms(c)
DAV:   1    -0.356158826256E+03   -0.17910E-03   -0.34529E-02  5128   0.537E-01    0.440E-02
RMM:   2    -0.356158903566E+03   -0.77310E-04   -0.10974E-03  7138   0.933E-02    0.224E-02
RMM:   3    -0.356158895128E+03    0.84381E-05   -0.10605E-04  5188   0.250E-02    0.167E-02
RMM:   4    -0.356158893165E+03    0.19628E-05   -0.43212E-05  4415   0.118E-02
  33 F= -.35615889E+03 E0= -.35617100E+03  d E =-.248603E-03
       N       E                     dE             d eps       ncg     rms          rms(c)
DAV:   1    -0.356158886481E+03    0.86467E-05   -0.30923E-01  4960   0.161E+00    0.129E-01
RMM:   2    -0.356159555661E+03   -0.66918E-03   -0.97075E-03  7307   0.279E-01    0.661E-02
RMM:   3    -0.356159520388E+03    0.35273E-04   -0.11431E-03  7218   0.749E-02    0.483E-02
RMM:   4    -0.356159500174E+03    0.20213E-04   -0.31299E-04  7674   0.280E-02    0.296E-02
RMM:   5    -0.356159497253E+03    0.29215E-05   -0.10238E-04  5125   0.177E-02    0.151E-02
RMM:   6    -0.356159498279E+03   -0.10265E-05   -0.44968E-05  4280   0.127E-02
  34 F= -.35615950E+03 E0= -.35617166E+03  d E =-.853717E-03
       N       E                     dE             d eps       ncg     rms          rms(c)
DAV:   1    -0.356157535647E+03    0.19616E-02   -0.12381E+00  4928   0.322E+00    0.257E-01
RMM:   2    -0.356160202688E+03   -0.26670E-02   -0.38742E-02  7292   0.556E-01    0.129E-01
RMM:   3    -0.356160042867E+03    0.15982E-03   -0.44891E-03  7343   0.146E-01    0.933E-02
RMM:   4    -0.356159965485E+03    0.77382E-04   -0.11470E-03  8518   0.533E-02    0.575E-02
RMM:   5    -0.356159958602E+03    0.68829E-05   -0.45091E-04  7399   0.343E-02    0.309E-02
RMM:   6    -0.356159959831E+03   -0.12286E-05   -0.17947E-04  6323   0.221E-02    0.159E-02
RMM:   7    -0.356159964830E+03   -0.49986E-05   -0.62293E-05  4777   0.146E-02
  35 F= -.35615996E+03 E0= -.35617224E+03  d E =-.132027E-02
       N       E                     dE             d eps       ncg     rms          rms(c)
DAV:   1    -0.356160045978E+03   -0.86147E-04   -0.12409E-01  5280   0.102E+00    0.103E-01
RMM:   2    -0.356160330243E+03   -0.28426E-03   -0.41576E-03  7237   0.177E-01    0.471E-02
RMM:   3    -0.356160302726E+03    0.27516E-04   -0.47771E-04  7275   0.474E-02    0.333E-02
RMM:   4    -0.356160294408E+03    0.83178E-05   -0.12615E-04  6144   0.181E-02    0.227E-02
RMM:   5    -0.356160290816E+03    0.35921E-05   -0.37962E-05  3707   0.109E-02
  36 F= -.35616029E+03 E0= -.35617255E+03  d E =-.325987E-03
       N       E                     dE             d eps       ncg     rms          rms(c)
DAV:   1    -0.356158733236E+03    0.15612E-02   -0.10203E+00  5128   0.292E+00    0.286E-01
RMM:   2    -0.356161030509E+03   -0.22973E-02   -0.33510E-02  7277   0.506E-01    0.134E-01
RMM:   3    -0.356160805670E+03    0.22484E-03   -0.36217E-03  7374   0.132E-01    0.933E-02
RMM:   4    -0.356160738808E+03    0.66862E-04   -0.89341E-04  8309   0.494E-02    0.651E-02
RMM:   5    -0.356160725185E+03    0.13624E-04   -0.34862E-04  7653   0.318E-02    0.402E-02
RMM:   6    -0.356160708355E+03    0.16830E-04   -0.15612E-04  6899   0.211E-02    0.225E-02
RMM:   7    -0.356160704597E+03    0.37576E-05   -0.38763E-05  4236   0.134E-02
  37 F= -.35616070E+03 E0= -.35617292E+03  d E =-.739767E-03
       N       E                     dE             d eps       ncg     rms          rms(c)
DAV:   1    -0.356161475384E+03   -0.76703E-03   -0.19819E-01  5200   0.133E+00    0.299E-01
RMM:   2    -0.356161242263E+03    0.23312E-03   -0.95149E-03  7343   0.260E-01    0.108E-01
RMM:   3    -0.356161123516E+03    0.11875E-03   -0.17113E-03  7553   0.798E-02    0.749E-02
RMM:   4    -0.356160988255E+03    0.13526E-03   -0.50545E-04  7637   0.404E-02    0.429E-02
RMM:   5    -0.356160984361E+03    0.38941E-05   -0.16569E-04  6612   0.231E-02    0.325E-02
RMM:   6    -0.356160991676E+03   -0.73155E-05   -0.65799E-05  4702   0.134E-02
  38 F= -.35616099E+03 E0= -.35617316E+03  d E =-.287079E-03
       N       E                     dE             d eps       ncg     rms          rms(c)
DAV:   1    -0.356161098643E+03   -0.11428E-03   -0.42652E-02  5376   0.615E-01    0.135E-01
RMM:   2    -0.356161043986E+03    0.54657E-04   -0.20287E-03  7334   0.121E-01    0.478E-02
RMM:   3    -0.356161020432E+03    0.23554E-04   -0.35854E-04  7431   0.373E-02    0.339E-02
RMM:   4    -0.356160996696E+03    0.23736E-04   -0.10867E-04  6557   0.189E-02    0.207E-02
RMM:   5    -0.356160998584E+03   -0.18881E-05   -0.32085E-05  3432   0.114E-02
  39 F= -.35616100E+03 E0= -.35617315E+03  d E =-.293987E-03
       N       E                     dE             d eps       ncg     rms          rms(c)
DAV:   1    -0.356161025916E+03   -0.29220E-04   -0.35529E-03  5584   0.177E-01    0.451E-02
RMM:   2    -0.356161028312E+03   -0.23966E-05   -0.17844E-04  7165   0.348E-02    0.173E-02
RMM:   3    -0.356161027491E+03    0.82181E-06   -0.29728E-05  3547   0.111E-02
  40 F= -.35616103E+03 E0= -.35617319E+03  d E =-.322893E-03
       N       E                     dE             d eps       ncg     rms          rms(c)
DAV:   1    -0.356161046622E+03   -0.18310E-04   -0.54511E-03  5264   0.219E-01    0.501E-02
RMM:   2    -0.356161040038E+03    0.65847E-05   -0.28434E-04  7345   0.443E-02    0.188E-02
RMM:   3    -0.356161033222E+03    0.68160E-05   -0.44686E-05  5262   0.131E-02
  41 F= -.35616103E+03 E0= -.35617321E+03  d E =-.328625E-03
       N       E                     dE             d eps       ncg     rms          rms(c)
DAV:   1    -0.356160947769E+03    0.92268E-04   -0.12879E-01  4976   0.101E+00    0.784E-02
RMM:   2    -0.356161201385E+03   -0.25362E-03   -0.34805E-03  7191   0.165E-01    0.377E-02
RMM:   3    -0.356161171177E+03    0.30209E-04   -0.35446E-04  6977   0.461E-02    0.278E-02
RMM:   4    -0.356161165960E+03    0.52167E-05   -0.93804E-05  5542   0.156E-02
  42 F= -.35616117E+03 E0= -.35617331E+03  d E =-.132738E-03
       N       E                     dE             d eps       ncg     rms          rms(c)
DAV:   1    -0.356161094651E+03    0.76526E-04   -0.57223E-02  4992   0.672E-01    0.557E-02
RMM:   2    -0.356161214658E+03   -0.12001E-03   -0.16261E-03  7270   0.110E-01    0.314E-02
RMM:   3    -0.356161203472E+03    0.11186E-04   -0.19317E-04  5913   0.311E-02    0.241E-02
RMM:   4    -0.356161201046E+03    0.24257E-05   -0.74916E-05  4892   0.143E-02
  43 F= -.35616120E+03 E0= -.35617332E+03  d E =-.167825E-03
       N       E                     dE             d eps       ncg     rms          rms(c)
DAV:   1    -0.356161275247E+03   -0.71775E-04   -0.10197E-02  5152   0.304E-01    0.582E-02
RMM:   2    -0.356161276999E+03   -0.17517E-05   -0.48494E-04  7380   0.591E-02    0.229E-02
RMM:   3    -0.356161269532E+03    0.74672E-05   -0.72129E-05  6339   0.167E-02
  44 F= -.35616127E+03 E0= -.35617342E+03  d E =-.684854E-04
