  32  32   0   0
  0.3466792E+02  0.1035204E-08  0.1035204E-08  0.1035204E-08  0.1500000E-15
  1.000000000000000E-004
  CAR 
 AuPt                                    
     14.90785898     -4.93188590  301      5.71326310      1.00000000
     -4.932  0.0000E+00  0.0000E+00
     -4.866  0.0000E+00  0.0000E+00
     -4.800  0.0000E+00  0.0000E+00
     -4.733  0.0000E+00  0.0000E+00
     -4.667 -0.2992E-31 -0.1979E-32
     -4.601 -0.3322E-28 -0.2199E-29
     -4.535 -0.2494E-25 -0.1651E-26
     -4.469 -0.1264E-22 -0.8375E-24
     -4.403 -0.4324E-20 -0.2868E-21
     -4.337 -0.9978E-18 -0.6627E-19
     -4.271 -0.1502E-15 -0.9996E-17
     -4.204 -0.1563E-13 -0.1044E-14
     -4.138 -0.1091E-11 -0.7317E-13
     -4.072 -0.5089E-10 -0.3439E-11
     -4.006 -0.1581E-08 -0.1080E-09
     -3.940 -0.3248E-07 -0.2256E-08
     -3.874 -0.4363E-06 -0.3111E-07
     -3.808 -0.3758E-05 -0.2796E-06
     -3.742 -0.1990E-04 -0.1596E-05
     -3.675 -0.5800E-04 -0.5432E-05
     -3.609 -0.4939E-04 -0.8698E-05
     -3.543  0.2272E-03  0.6331E-05
     -3.477  0.8396E-03  0.6185E-04
     -3.411  0.1216E-02  0.1423E-03
     -3.345  0.7409E-03  0.1913E-03
     -3.279  0.1666E-03  0.2023E-03
     -3.212  0.1502E-02  0.3016E-03
     -3.146  0.5195E-02  0.6451E-03
     -3.080  0.7683E-02  0.1153E-02
     -3.014  0.5621E-02  0.1525E-02
     -2.948  0.2405E-02  0.1684E-02
     -2.882  0.4731E-02  0.1997E-02
     -2.816  0.1216E-01  0.2801E-02
     -2.750  0.1554E-01  0.3829E-02
     -2.683  0.1039E-01  0.4516E-02
     -2.617  0.4750E-02  0.4830E-02
     -2.551  0.6028E-02  0.5229E-02
     -2.485  0.9759E-02  0.5874E-02
     -2.419  0.8434E-02  0.6432E-02
     -2.353  0.3553E-02  0.6667E-02
     -2.287  0.1773E-02  0.6784E-02
     -2.220  0.4360E-02  0.7073E-02
     -2.154  0.6286E-02  0.7488E-02
     -2.088  0.5232E-02  0.7835E-02
     -2.022  0.7768E-02  0.8348E-02
     -1.956  0.1891E-01  0.9599E-02
     -1.890  0.2942E-01  0.1154E-01
     -1.824  0.2994E-01  0.1352E-01
     -1.758  0.2833E-01  0.1540E-01
     -1.691  0.3050E-01  0.1741E-01
     -1.625  0.2650E-01  0.1917E-01
     -1.559  0.1327E-01  0.2004E-01
     -1.493  0.1751E-02  0.2016E-01
     -1.427 -0.2684E-02  0.1998E-01
     -1.361 -0.3365E-02  0.1976E-01
     -1.295  0.5658E-03  0.1980E-01
     -1.228  0.1585E-01  0.2085E-01
     -1.162  0.3903E-01  0.2343E-01
     -1.096  0.5067E-01  0.2678E-01
     -1.030  0.4095E-01  0.2949E-01
     -0.964  0.2342E-01  0.3104E-01
     -0.898  0.1551E-01  0.3206E-01
     -0.832  0.2666E-01  0.3382E-01
     -0.766  0.5719E-01  0.3761E-01
     -0.699  0.9102E-01  0.4363E-01
     -0.633  0.1026E+00  0.5041E-01
     -0.567  0.8757E-01  0.5620E-01
     -0.501  0.7278E-01  0.6101E-01
     -0.435  0.8145E-01  0.6640E-01
     -0.369  0.1106E+00  0.7372E-01
     -0.303  0.1430E+00  0.8317E-01
     -0.236  0.1643E+00  0.9404E-01
     -0.170  0.1738E+00  0.1055E+00
     -0.104  0.1758E+00  0.1172E+00
     -0.038  0.1696E+00  0.1284E+00
      0.028  0.1603E+00  0.1390E+00
      0.094  0.1622E+00  0.1497E+00
      0.160  0.1809E+00  0.1617E+00
      0.226  0.2031E+00  0.1751E+00
      0.293  0.2091E+00  0.1889E+00
      0.359  0.1927E+00  0.2017E+00
      0.425  0.1622E+00  0.2124E+00
      0.491  0.1352E+00  0.2213E+00
      0.557  0.1294E+00  0.2299E+00
      0.623  0.1469E+00  0.2396E+00
      0.689  0.1738E+00  0.2511E+00
      0.756  0.1915E+00  0.2638E+00
      0.822  0.1861E+00  0.2761E+00
      0.888  0.1550E+00  0.2863E+00
      0.954  0.1163E+00  0.2940E+00
      1.020  0.1029E+00  0.3008E+00
      1.086  0.1297E+00  0.3094E+00
      1.152  0.1732E+00  0.3209E+00
      1.218  0.2001E+00  0.3341E+00
      1.285  0.2015E+00  0.3474E+00
      1.351  0.1912E+00  0.3601E+00
      1.417  0.1857E+00  0.3723E+00
      1.483  0.1911E+00  0.3850E+00
      1.549  0.2020E+00  0.3983E+00
      1.615  0.2095E+00  0.4122E+00
      1.681  0.2093E+00  0.4260E+00
      1.747  0.2042E+00  0.4395E+00
      1.814  0.2009E+00  0.4528E+00
      1.880  0.2037E+00  0.4663E+00
      1.946  0.2078E+00  0.4800E+00
      2.012  0.2069E+00  0.4937E+00
      2.078  0.2053E+00  0.5073E+00
      2.144  0.2113E+00  0.5213E+00
      2.210  0.2213E+00  0.5359E+00
      2.277  0.2233E+00  0.5507E+00
      2.343  0.2147E+00  0.5649E+00
      2.409  0.2044E+00  0.5784E+00
      2.475  0.2010E+00  0.5917E+00
      2.541  0.2050E+00  0.6052E+00
      2.607  0.2117E+00  0.6192E+00
      2.673  0.2166E+00  0.6336E+00
      2.739  0.2178E+00  0.6480E+00
      2.806  0.2150E+00  0.6622E+00
      2.872  0.2085E+00  0.6760E+00
      2.938  0.1979E+00  0.6891E+00
      3.004  0.1830E+00  0.7012E+00
      3.070  0.1712E+00  0.7125E+00
      3.136  0.1714E+00  0.7238E+00
      3.202  0.1780E+00  0.7356E+00
      3.269  0.1765E+00  0.7473E+00
      3.335  0.1620E+00  0.7580E+00
      3.401  0.1425E+00  0.7674E+00
      3.467  0.1294E+00  0.7760E+00
      3.533  0.1296E+00  0.7845E+00
      3.599  0.1398E+00  0.7938E+00
      3.665  0.1504E+00  0.8037E+00
      3.731  0.1579E+00  0.8142E+00
      3.798  0.1632E+00  0.8249E+00
      3.864  0.1645E+00  0.8358E+00
      3.930  0.1641E+00  0.8467E+00
      3.996  0.1641E+00  0.8575E+00
      4.062  0.1624E+00  0.8683E+00
      4.128  0.1593E+00  0.8788E+00
      4.194  0.1592E+00  0.8893E+00
      4.261  0.1627E+00  0.9001E+00
      4.327  0.1647E+00  0.9110E+00
      4.393  0.1615E+00  0.9217E+00
      4.459  0.1547E+00  0.9319E+00
      4.525  0.1485E+00  0.9417E+00
      4.591  0.1440E+00  0.9512E+00
      4.657  0.1379E+00  0.9604E+00
      4.723  0.1307E+00  0.9690E+00
      4.790  0.1285E+00  0.9775E+00
      4.856  0.1332E+00  0.9863E+00
      4.922  0.1423E+00  0.9957E+00
      4.988  0.1544E+00  0.1006E+01
      5.054  0.1677E+00  0.1017E+01
      5.120  0.1784E+00  0.1029E+01
      5.186  0.1842E+00  0.1041E+01
      5.253  0.1845E+00  0.1053E+01
      5.319  0.1794E+00  0.1065E+01
      5.385  0.1702E+00  0.1076E+01
      5.451  0.1568E+00  0.1087E+01
      5.517  0.1407E+00  0.1096E+01
      5.583  0.1287E+00  0.1105E+01
      5.649  0.1226E+00  0.1113E+01
      5.715  0.1153E+00  0.1120E+01
      5.782  0.1033E+00  0.1127E+01
      5.848  0.9174E-01  0.1133E+01
      5.914  0.8420E-01  0.1139E+01
      5.980  0.7437E-01  0.1144E+01
      6.046  0.5587E-01  0.1147E+01
      6.112  0.3320E-01  0.1150E+01
      6.178  0.1681E-01  0.1151E+01
      6.245  0.1213E-01  0.1151E+01
      6.311  0.1480E-01  0.1152E+01
      6.377  0.1713E-01  0.1154E+01
      6.443  0.1747E-01  0.1155E+01
      6.509  0.1770E-01  0.1156E+01
      6.575  0.1730E-01  0.1157E+01
      6.641  0.1599E-01  0.1158E+01
      6.707  0.1713E-01  0.1159E+01
      6.774  0.2400E-01  0.1161E+01
      6.840  0.3520E-01  0.1163E+01
      6.906  0.4659E-01  0.1166E+01
      6.972  0.5465E-01  0.1170E+01
      7.038  0.5661E-01  0.1174E+01
      7.104  0.5227E-01  0.1177E+01
      7.170  0.4612E-01  0.1180E+01
      7.236  0.4042E-01  0.1183E+01
      7.303  0.3178E-01  0.1185E+01
      7.369  0.2277E-01  0.1186E+01
      7.435  0.2156E-01  0.1188E+01
      7.501  0.2687E-01  0.1190E+01
      7.567  0.3002E-01  0.1192E+01
      7.633  0.2729E-01  0.1193E+01
      7.699  0.1931E-01  0.1195E+01
      7.766  0.8496E-02  0.1195E+01
      7.832  0.3297E-02  0.1195E+01
      7.898  0.1458E-01  0.1196E+01
      7.964  0.4073E-01  0.1199E+01
      8.030  0.6277E-01  0.1203E+01
      8.096  0.6704E-01  0.1208E+01
      8.162  0.6116E-01  0.1212E+01
      8.228  0.5579E-01  0.1215E+01
      8.295  0.5227E-01  0.1219E+01
      8.361  0.4707E-01  0.1222E+01
      8.427  0.3425E-01  0.1224E+01
      8.493  0.1535E-01  0.1225E+01
      8.559  0.1698E-02  0.1225E+01
      8.625 -0.2805E-03  0.1225E+01
      8.691  0.6575E-02  0.1226E+01
      8.758  0.1722E-01  0.1227E+01
      8.824  0.2614E-01  0.1229E+01
      8.890  0.2818E-01  0.1230E+01
      8.956  0.2335E-01  0.1232E+01
      9.022  0.1606E-01  0.1233E+01
      9.088  0.1118E-01  0.1234E+01
      9.154  0.1445E-01  0.1235E+01
      9.220  0.2701E-01  0.1237E+01
      9.287  0.4045E-01  0.1239E+01
      9.353  0.4657E-01  0.1242E+01
      9.419  0.4433E-01  0.1245E+01
      9.485  0.3463E-01  0.1248E+01
      9.551  0.2091E-01  0.1249E+01
      9.617  0.1185E-01  0.1250E+01
      9.683  0.1276E-01  0.1251E+01
      9.750  0.2091E-01  0.1252E+01
      9.816  0.3275E-01  0.1254E+01
      9.882  0.4754E-01  0.1257E+01
      9.948  0.5973E-01  0.1261E+01
     10.014  0.5888E-01  0.1265E+01
     10.080  0.4510E-01  0.1268E+01
     10.146  0.3092E-01  0.1270E+01
     10.212  0.2599E-01  0.1272E+01
     10.279  0.3016E-01  0.1274E+01
     10.345  0.3573E-01  0.1276E+01
     10.411  0.3379E-01  0.1278E+01
     10.477  0.2454E-01  0.1280E+01
     10.543  0.1581E-01  0.1281E+01
     10.609  0.1036E-01  0.1282E+01
     10.675  0.6411E-02  0.1282E+01
     10.742  0.7478E-02  0.1283E+01
     10.808  0.2022E-01  0.1284E+01
     10.874  0.4581E-01  0.1287E+01
     10.940  0.7600E-01  0.1292E+01
     11.006  0.9365E-01  0.1298E+01
     11.072  0.8499E-01  0.1304E+01
     11.138  0.5545E-01  0.1308E+01
     11.204  0.2383E-01  0.1309E+01
     11.271  0.4182E-02  0.1309E+01
     11.337 -0.1500E-02  0.1309E+01
     11.403  0.2565E-02  0.1309E+01
     11.469  0.1341E-01  0.1310E+01
     11.535  0.2898E-01  0.1312E+01
     11.601  0.4640E-01  0.1315E+01
     11.667  0.6274E-01  0.1320E+01
     11.733  0.7448E-01  0.1324E+01
     11.800  0.7910E-01  0.1330E+01
     11.866  0.7639E-01  0.1335E+01
     11.932  0.6703E-01  0.1339E+01
     11.998  0.5293E-01  0.1343E+01
     12.064  0.3544E-01  0.1345E+01
     12.130  0.1713E-01  0.1346E+01
     12.196  0.5120E-02  0.1346E+01
     12.263  0.2797E-02  0.1347E+01
     12.329  0.4765E-02  0.1347E+01
     12.395  0.5468E-02  0.1347E+01
     12.461  0.4497E-02  0.1348E+01
     12.527  0.3725E-02  0.1348E+01
     12.593  0.5971E-02  0.1348E+01
     12.659  0.1299E-01  0.1349E+01
     12.725  0.2000E-01  0.1350E+01
     12.792  0.1926E-01  0.1352E+01
     12.858  0.1178E-01  0.1353E+01
     12.924  0.6294E-02  0.1353E+01
     12.990  0.7354E-02  0.1353E+01
     13.056  0.1245E-01  0.1354E+01
     13.122  0.1762E-01  0.1355E+01
     13.188  0.2042E-01  0.1357E+01
     13.255  0.1942E-01  0.1358E+01
     13.321  0.1485E-01  0.1359E+01
     13.387  0.9207E-02  0.1360E+01
     13.453  0.4646E-02  0.1360E+01
     13.519  0.1577E-02  0.1360E+01
     13.585  0.1497E-04  0.1360E+01
     13.651 -0.3231E-03  0.1360E+01
     13.717 -0.1797E-03  0.1360E+01
     13.784 -0.5119E-04  0.1360E+01
     13.850 -0.8836E-05  0.1360E+01
     13.916 -0.9736E-06  0.1360E+01
     13.982 -0.7007E-07  0.1360E+01
     14.048 -0.3334E-08  0.1360E+01
     14.114 -0.1057E-09  0.1360E+01
     14.180 -0.2240E-11  0.1360E+01
     14.247 -0.3185E-13  0.1360E+01
     14.313 -0.3051E-15  0.1360E+01
     14.379 -0.1658E-17  0.1360E+01
     14.445  0.0000E+00  0.1360E+01
     14.511  0.0000E+00  0.1360E+01
     14.577  0.0000E+00  0.1360E+01
     14.643  0.0000E+00  0.1360E+01
     14.709  0.0000E+00  0.1360E+01
     14.776  0.0000E+00  0.1360E+01
     14.842  0.0000E+00  0.1360E+01
     14.908  0.0000E+00  0.1360E+01
