<?xml version="1.0" encoding="ISO-8859-1"?>
<modeling>
 <generator>
  <i name="program" type="string">vasp </i>
  <i name="version" type="string">5.4.1  </i>
  <i name="subversion" type="string">05Feb16 (build Jan 29 2020 16:04:39) complex                          parallel </i>
  <i name="platform" type="string">IFC91_ompi </i>
  <i name="date" type="string">2020 06 15 </i>
  <i name="time" type="string">07:39:42 </i>
 </generator>
 <incar>
  <i type="string" name="SYSTEM"> automatically generated by mexm</i>
  <i type="int" name="ISTART">     0</i>
  <i type="string" name="PREC">accurate               ! avoid wrap aro</i>
  <i type="string" name="ALGO"> Fast                   ! blocked Davids</i>
  <i type="int" name="ISPIN">     1</i>
  <i type="int" name="ICHARG">     2</i>
  <i type="int" name="NELM">    70</i>
  <i type="int" name="IBRION">     2</i>
  <i name="EDIFF">      0.00001000</i>
  <i name="EDIFFG">     -0.01000000</i>
  <i type="int" name="NSW">   300</i>
  <i type="int" name="ISIF">     3</i>
  <i type="int" name="ISYM">     1</i>
  <i name="ENCUT">    300.00000000</i>
  <i name="POTIM">      0.15000000</i>
  <i type="string" name="LREAL"> Auto                  ! unpublished met</i>
  <i type="int" name="ISMEAR">     1</i>
  <i name="SIGMA">      0.15000000</i>
  <i type="logical" name="LWAVE"> F  </i>
  <i type="logical" name="LCHARG"> F  </i>
  <i type="logical" name="LVTOT"> F  </i>
  <v type="int" name="KPOINT_BSE">    -1     0     0     0</v>
  <i type="int" name="NELM">    70</i>
 </incar>
 <kpoints>
  <generation param="Gamma">
   <v type="int" name="divisions">       3        3        3 </v>
   <v name="usershift">      0.00000000       0.00000000       0.00000000 </v>
   <v name="genvec1">      0.33333333       0.00000000       0.00000000 </v>
   <v name="genvec2">     -0.00000000       0.33333333       0.00000000 </v>
   <v name="genvec3">     -0.00000000       0.00000000       0.33333333 </v>
   <v name="shift">      0.00000000       0.00000000       0.00000000 </v>
  </generation>
  <varray name="kpointlist" >
   <v>       0.00000000       0.00000000       0.00000000 </v>
   <v>       0.33333333      -0.00000000      -0.00000000 </v>
   <v>      -0.00000000       0.33333333      -0.00000000 </v>
   <v>       0.33333333       0.33333333       0.00000000 </v>
   <v>      -0.33333333       0.33333333       0.00000000 </v>
   <v>      -0.00000000      -0.00000000       0.33333333 </v>
   <v>       0.33333333       0.00000000       0.33333333 </v>
   <v>      -0.33333333      -0.00000000       0.33333333 </v>
   <v>       0.00000000       0.33333333       0.33333333 </v>
   <v>       0.33333333       0.33333333       0.33333333 </v>
   <v>      -0.33333333       0.33333333       0.33333333 </v>
   <v>      -0.00000000      -0.33333333       0.33333333 </v>
   <v>       0.33333333      -0.33333333       0.33333333 </v>
   <v>      -0.33333333      -0.33333333       0.33333333 </v>
  </varray>
  <varray name="weights" >
   <v>       0.03703704 </v>
   <v>       0.07407407 </v>
   <v>       0.07407407 </v>
   <v>       0.07407407 </v>
   <v>       0.07407407 </v>
   <v>       0.07407407 </v>
   <v>       0.07407407 </v>
   <v>       0.07407407 </v>
   <v>       0.07407407 </v>
   <v>       0.07407407 </v>
   <v>       0.07407407 </v>
   <v>       0.07407407 </v>
   <v>       0.07407407 </v>
   <v>       0.07407407 </v>
  </varray>
 </kpoints>
 <parameters>
  <separator name="general" >
   <i type="string" name="SYSTEM">automatically generated by mexm</i>
   <i type="logical" name="LCOMPAT"> F  </i>
  </separator>
  <separator name="electronic" >
   <i type="string" name="PREC">accura</i>
   <i name="ENMAX">    300.00000000</i>
   <i name="ENAUG">    461.25700000</i>
   <i name="EDIFF">      0.00001000</i>
   <i type="int" name="IALGO">    68</i>
   <i type="int" name="IWAVPR">    11</i>
   <i type="int" name="NBANDS">   160</i>
   <i name="NELECT">    265.00000000</i>
   <i type="int" name="TURBO">     0</i>
   <i type="int" name="IRESTART">     0</i>
   <i type="int" name="NREBOOT">     0</i>
   <i type="int" name="NMIN">     0</i>
   <i name="EREF">      0.00000000</i>
   <separator name="electronic smearing" >
    <i type="int" name="ISMEAR">     1</i>
    <i name="SIGMA">      0.15000000</i>
    <i name="KSPACING">      0.50000000</i>
    <i type="logical" name="KGAMMA"> T  </i>
   </separator>
   <separator name="electronic projectors" >
    <i type="logical" name="LREAL"> T  </i>
    <v name="ROPT">     -0.00025000     -0.00025000     -0.00025000     -0.00025000</v>
    <i type="int" name="LMAXPAW">  -100</i>
    <i type="int" name="LMAXMIX">     2</i>
    <i type="logical" name="NLSPLINE"> F  </i>
   </separator>
   <separator name="electronic startup" >
    <i type="int" name="ISTART">     0</i>
    <i type="int" name="ICHARG">     2</i>
    <i type="int" name="INIWAV">     1</i>
   </separator>
   <separator name="electronic spin" >
    <i type="int" name="ISPIN">     1</i>
    <i type="logical" name="LNONCOLLINEAR"> F  </i>
    <v name="MAGMOM">      1.00000000      1.00000000      1.00000000      1.00000000      1.00000000      1.00000000      1.00000000      1.00000000      1.00000000      1.00000000      1.00000000      1.00000000      1.00000000      1.00000000      1.00000000      1.00000000      1.00000000      1.00000000      1.00000000      1.00000000
      1.00000000      1.00000000      1.00000000      1.00000000      1.00000000      1.00000000      1.00000000      1.00000000      1.00000000      1.00000000      1.00000000      1.00000000      1.00000000      1.00000000      1.00000000      1.00000000</v>
    <i name="NUPDOWN">     -1.00000000</i>
    <i type="logical" name="LSORBIT"> F  </i>
    <v name="SAXIS">      0.00000000      0.00000000      1.00000000</v>
    <i type="logical" name="LSPIRAL"> F  </i>
    <v name="QSPIRAL">      0.00000000      0.00000000      0.00000000</v>
    <i type="logical" name="LZEROZ"> F  </i>
   </separator>
   <separator name="electronic exchange-correlation" >
    <i type="logical" name="LASPH"> F  </i>
    <i type="logical" name="LMETAGGA"> F  </i>
   </separator>
   <separator name="electronic convergence" >
    <i type="int" name="NELM">    70</i>
    <i type="int" name="NELMDL">    -5</i>
    <i type="int" name="NELMIN">     2</i>
    <i name="ENINI">    300.00000000</i>
    <separator name="electronic convergence detail" >
     <i type="logical" name="LDIAG"> T  </i>
     <i type="logical" name="LSUBROT"> F  </i>
     <i name="WEIMIN">      0.00100000</i>
     <i name="EBREAK">      0.00000002</i>
     <i name="DEPER">      0.30000000</i>
     <i type="int" name="NRMM">     4</i>
     <i name="TIME">      0.40000000</i>
    </separator>
   </separator>
   <separator name="electronic mixer" >
    <i name="AMIX">      0.40000000</i>
    <i name="BMIX">      1.00000000</i>
    <i name="AMIN">      0.10000000</i>
    <i name="AMIX_MAG">      1.60000000</i>
    <i name="BMIX_MAG">      1.00000000</i>
    <separator name="electronic mixer details" >
     <i type="int" name="IMIX">     4</i>
     <i type="logical" name="MIXFIRST"> F  </i>
     <i type="int" name="MAXMIX">   -45</i>
     <i name="WC">    100.00000000</i>
     <i type="int" name="INIMIX">     1</i>
     <i type="int" name="MIXPRE">     1</i>
     <i type="int" name="MREMOVE">     5</i>
    </separator>
   </separator>
   <separator name="electronic dipolcorrection" >
    <i type="logical" name="LDIPOL"> F  </i>
    <i type="logical" name="LMONO"> F  </i>
    <i type="int" name="IDIPOL">     0</i>
    <i name="EPSILON">      1.00000000</i>
    <v name="DIPOL">   -100.00000000   -100.00000000   -100.00000000</v>
    <i name="EFIELD">      0.00000000</i>
   </separator>
  </separator>
  <separator name="grids" >
   <i type="int" name="NGX">    40</i>
   <i type="int" name="NGY">    60</i>
   <i type="int" name="NGZ">    60</i>
   <i type="int" name="NGXF">    80</i>
   <i type="int" name="NGYF">   120</i>
   <i type="int" name="NGZF">   120</i>
   <i type="logical" name="ADDGRID"> F  </i>
  </separator>
  <separator name="ionic" >
   <i type="int" name="NSW">   300</i>
   <i type="int" name="IBRION">     2</i>
   <i type="int" name="ISIF">     3</i>
   <i name="PSTRESS">      0.00000000</i>
   <i name="EDIFFG">     -0.01000000</i>
   <i type="int" name="NFREE">     1</i>
   <i name="POTIM">      0.15000000</i>
   <i name="SMASS">     -3.00000000</i>
   <i name="SCALEE">      1.00000000</i>
  </separator>
  <separator name="ionic md" >
   <i name="TEBEG">      0.00010000</i>
   <i name="TEEND">      0.00010000</i>
   <i type="int" name="NBLOCK">     1</i>
   <i type="int" name="KBLOCK">   300</i>
   <i type="int" name="NPACO">   256</i>
   <i name="APACO">     16.00000000</i>
  </separator>
  <separator name="symmetry" >
   <i type="int" name="ISYM">     1</i>
   <i name="SYMPREC">      0.00001000</i>
  </separator>
  <separator name="dos" >
   <i type="logical" name="LORBIT"> F  </i>
   <v name="RWIGS">     -1.00000000     -1.00000000     -1.00000000     -1.00000000</v>
   <i type="int" name="NEDOS">   301</i>
   <i name="EMIN">     10.00000000</i>
   <i name="EMAX">    -10.00000000</i>
   <i name="EFERMI">      0.00000000</i>
  </separator>
  <separator name="writing" >
   <i type="int" name="NWRITE">     2</i>
   <i type="logical" name="LWAVE"> F  </i>
   <i type="logical" name="LCHARG"> F  </i>
   <i type="logical" name="LPARD"> F  </i>
   <i type="logical" name="LVTOT"> F  </i>
   <i type="logical" name="LVHAR"> F  </i>
   <i type="logical" name="LELF"> F  </i>
   <i type="logical" name="LOPTICS"> F  </i>
   <v name="STM">      0.00000000      0.00000000      0.00000000      0.00000000      0.00000000      0.00000000      0.00000000</v>
  </separator>
  <separator name="performance" >
   <i type="int" name="NPAR">     4</i>
   <i type="int" name="NSIM">     4</i>
   <i type="int" name="NBLK">    -1</i>
   <i type="logical" name="LPLANE"> T  </i>
   <i type="logical" name="LSCALAPACK"> T  </i>
   <i type="logical" name="LSCAAWARE"> F  </i>
   <i type="logical" name="LSCALU"> F  </i>
   <i type="logical" name="LASYNC"> F  </i>
   <i type="logical" name="LORBITALREAL"> F  </i>
  </separator>
  <separator name="miscellaneous" >
   <i type="int" name="IDIOT">     3</i>
   <i type="logical" name="LMUSIC"> F  </i>
   <v name="POMASS">    180.94800000    178.49000000     92.91000000     91.22400000</v>
   <v name="DARWINR">      0.00000000      0.00000000      0.00000000      0.00000000</v>
   <v name="DARWINV">      1.00000000      1.00000000      1.00000000      1.00000000</v>
   <i type="logical" name="LCORR"> T  </i>
  </separator>
  <i type="logical" name="GGA_COMPAT"> T  </i>
  <i type="logical" name="LBERRY"> F  </i>
  <i type="int" name="ICORELEVEL">     0</i>
  <i type="logical" name="LDAU"> F  </i>
  <i type="int" name="I_CONSTRAINED_M">     0</i>
  <separator name="electronic exchange-correlation" >
   <i type="string" name="GGA">--</i>
   <i type="int" name="VOSKOWN">     0</i>
   <i type="logical" name="LHFCALC"> F  </i>
   <i type="string" name="PRECFOCK"></i>
   <i type="logical" name="LSYMGRAD"> F  </i>
   <i type="logical" name="LHFONE"> F  </i>
   <i type="logical" name="LRHFCALC"> F  </i>
   <i type="logical" name="LTHOMAS"> F  </i>
   <i type="logical" name="LMODELHF"> F  </i>
   <i name="ENCUT4O">     -1.00000000</i>
   <i type="int" name="EXXOEP">     0</i>
   <i type="int" name="FOURORBIT">     0</i>
   <i name="AEXX">      0.00000000</i>
   <i name="HFALPHA">      0.00000000</i>
   <i name="MCALPHA">      0.00000000</i>
   <i name="ALDAX">      1.00000000</i>
   <i name="AGGAX">      1.00000000</i>
   <i name="ALDAC">      1.00000000</i>
   <i name="AGGAC">      1.00000000</i>
   <i type="int" name="NKREDX">     1</i>
   <i type="int" name="NKREDY">     1</i>
   <i type="int" name="NKREDZ">     1</i>
   <i type="logical" name="SHIFTRED"> F  </i>
   <i type="logical" name="ODDONLY"> F  </i>
   <i type="logical" name="EVENONLY"> F  </i>
   <i type="int" name="LMAXFOCK">     0</i>
   <i type="int" name="NMAXFOCKAE">     0</i>
   <i type="logical" name="LFOCKAEDFT"> F  </i>
   <i name="HFSCREEN">      0.00000000</i>
   <i name="HFSCREENC">      0.00000000</i>
   <i type="int" name="NBANDSGWLOW">     0</i>
  </separator>
  <separator name="vdW DFT" >
   <i type="logical" name="LUSE_VDW"> F  </i>
   <i name="Zab_VDW">     -0.84910000</i>
   <i name="PARAM1">      0.12340000</i>
   <i name="PARAM2">      1.00000000</i>
   <i name="PARAM3">      0.00000000</i>
  </separator>
  <separator name="model GW" >
   <i type="int" name="MODEL_GW">     0</i>
   <i name="MODEL_EPS0">     12.07143583</i>
   <i name="MODEL_ALPHA">      1.00000000</i>
  </separator>
  <separator name="linear response parameters" >
   <i type="logical" name="LEPSILON"> F  </i>
   <i type="logical" name="LRPA"> F  </i>
   <i type="logical" name="LNABLA"> F  </i>
   <i type="logical" name="LVEL"> F  </i>
   <i type="int" name="KINTER">     0</i>
   <i name="CSHIFT">      0.10000000</i>
   <i name="OMEGAMAX">     -1.00000000</i>
   <i name="DEG_THRESHOLD">      0.00200000</i>
  </separator>
  <separator name="orbital magnetization" >
   <i type="logical" name="NUCIND"> F  </i>
   <v name="MAGPOS">      0.00000000      0.00000000      0.00000000</v>
   <i type="logical" name="LNICSALL"> T  </i>
   <i type="logical" name="ORBITALMAG"> F  </i>
   <i type="logical" name="LMAGBLOCH"> F  </i>
   <i type="logical" name="LCHIMAG"> F  </i>
   <i type="logical" name="LGAUGE"> T  </i>
   <i type="int" name="MAGATOM">     0</i>
   <v name="MAGDIPOL">      0.00000000      0.00000000      0.00000000</v>
   <v name="AVECCONST">      0.00000000      0.00000000      0.00000000</v>
  </separator>
  <separator name="response functions" >
   <i type="logical" name="LADDER"> F  </i>
   <i type="logical" name="LFXC"> F  </i>
   <i type="logical" name="LHARTREE"> T  </i>
   <i type="int" name="IBSE">     0</i>
   <v type="int" name="KPOINT">    -1     0     0     0</v>
   <i type="logical" name="LTCTE"> F  </i>
   <i type="logical" name="LTETE"> F  </i>
   <i type="logical" name="LTRIPLET"> F  </i>
   <i type="logical" name="LFXCEPS"> F  </i>
   <i type="logical" name="LFXHEG"> F  </i>
   <i type="int" name="NATURALO">     0</i>
   <i type="logical" name="L2ORDER"> F  </i>
   <i type="logical" name="LUSEW"> F  </i>
   <i name="ENCUTGW">     -2.00000000</i>
   <i name="ENCUTGWSOFT">     -2.00000000</i>
   <i name="ENCUTLF">     -1.00000000</i>
   <i type="int" name="LMAXMP2">    -1</i>
   <i name="SCISSOR">      0.00000000</i>
   <i type="int" name="NOMEGA">     0</i>
   <i type="int" name="NOMEGAR">     0</i>
   <i type="int" name="NBANDSGW">    -1</i>
   <i type="int" name="NBANDSO">    -1</i>
   <i type="int" name="NBANDSV">    -1</i>
   <i type="int" name="NELM">    70</i>
   <i type="int" name="NELMHF">     1</i>
   <i type="int" name="DIM">     3</i>
   <i type="int" name="ANTIRES">     0</i>
   <i name="OMEGAMAX">    -30.00000000</i>
   <i name="OMEGAMIN">    -30.00000000</i>
   <i name="OMEGATL">   -200.00000000</i>
   <i type="int" name="OMEGAGRID">     0</i>
   <i name="CSHIFT">     -0.10000000</i>
   <i type="logical" name="SELFENERGY"> F  </i>
   <i type="logical" name="LSPECTRAL"> F  </i>
   <i type="logical" name="LSPECTRALGW"> F  </i>
   <i type="logical" name="LSINGLES"> F  </i>
   <i type="logical" name="LFERMIGW"> F  </i>
   <i type="logical" name="ODDONLYGW"> F  </i>
   <i type="logical" name="EVENONLYGW"> F  </i>
   <i type="int" name="NKREDLFX">     1</i>
   <i type="int" name="NKREDLFY">     1</i>
   <i type="int" name="NKREDLFZ">     1</i>
   <i type="int" name="MAXMEM">  1800</i>
   <i type="int" name="TELESCOPE">     0</i>
   <i type="int" name="TAUPAR">     1</i>
   <i type="int" name="OMEGAPAR">    -1</i>
   <i name="LAMBDA">      1.00000000</i>
  </separator>
  <separator name="External order field" >
   <i name="OFIELD_KAPPA">      0.00000000</i>
   <v name="OFIELD_K">      0.00000000      0.00000000      0.00000000</v>
   <i name="OFIELD_Q6_NEAR">      0.00000000</i>
   <i name="OFIELD_Q6_FAR">      0.00000000</i>
   <i name="OFIELD_A">      0.00000000</i>
  </separator>
 </parameters>
 <atominfo>
  <atoms>      36 </atoms>
  <types>       4 </types>
  <array name="atoms" >
   <dimension dim="1">ion</dimension>
   <field type="string">element</field>
   <field type="int">atomtype</field>
   <set>
    <rc><c>Ta</c><c>   1</c></rc>
    <rc><c>Ta</c><c>   1</c></rc>
    <rc><c>Ta</c><c>   1</c></rc>
    <rc><c>Ta</c><c>   1</c></rc>
    <rc><c>Ta</c><c>   1</c></rc>
    <rc><c>Ta</c><c>   1</c></rc>
    <rc><c>Ta</c><c>   1</c></rc>
    <rc><c>Ta</c><c>   1</c></rc>
    <rc><c>Ta</c><c>   1</c></rc>
    <rc><c>Ta</c><c>   1</c></rc>
    <rc><c>Ta</c><c>   1</c></rc>
    <rc><c>Hf</c><c>   2</c></rc>
    <rc><c>Hf</c><c>   2</c></rc>
    <rc><c>Hf</c><c>   2</c></rc>
    <rc><c>Hf</c><c>   2</c></rc>
    <rc><c>Hf</c><c>   2</c></rc>
    <rc><c>Hf</c><c>   2</c></rc>
    <rc><c>Hf</c><c>   2</c></rc>
    <rc><c>Hf</c><c>   2</c></rc>
    <rc><c>Hf</c><c>   2</c></rc>
    <rc><c>Hf</c><c>   2</c></rc>
    <rc><c>Hf</c><c>   2</c></rc>
    <rc><c>Hf</c><c>   2</c></rc>
    <rc><c>Nb</c><c>   3</c></rc>
    <rc><c>Nb</c><c>   3</c></rc>
    <rc><c>Nb</c><c>   3</c></rc>
    <rc><c>Nb</c><c>   3</c></rc>
    <rc><c>Nb</c><c>   3</c></rc>
    <rc><c>Nb</c><c>   3</c></rc>
    <rc><c>Zr</c><c>   4</c></rc>
    <rc><c>Zr</c><c>   4</c></rc>
    <rc><c>Zr</c><c>   4</c></rc>
    <rc><c>Zr</c><c>   4</c></rc>
    <rc><c>Zr</c><c>   4</c></rc>
    <rc><c>Zr</c><c>   4</c></rc>
    <rc><c>Zr</c><c>   4</c></rc>
   </set>
  </array>
  <array name="atomtypes" >
   <dimension dim="1">type</dimension>
   <field type="int">atomspertype</field>
   <field type="string">element</field>
   <field>mass</field>
   <field>valence</field>
   <field type="string">pseudopotential</field>
   <set>
    <rc><c>  11</c><c>Ta</c><c>    180.94800000</c><c>      5.00000000</c><c>  PAW_PBE Ta 17Jan2003                  </c></rc>
    <rc><c>  12</c><c>Hf</c><c>    178.49000000</c><c>      4.00000000</c><c>  PAW_PBE Hf 20Jan2003                  </c></rc>
    <rc><c>   6</c><c>Nb</c><c>     92.91000000</c><c>     13.00000000</c><c>  PAW_PBE Nb_sv 25May2007               </c></rc>
    <rc><c>   7</c><c>Zr</c><c>     91.22400000</c><c>     12.00000000</c><c>  PAW_PBE Zr_sv 04Jan2005               </c></rc>
   </set>
  </array>
 </atominfo>
 <structure name="initialpos" >
  <crystal>
   <varray name="basis" >
    <v>       6.96000936      -0.02015776       0.01984849 </v>
    <v>      -0.02934623      10.20631671       0.00811099 </v>
    <v>       0.02957070       0.00763710      10.19621039 </v>
   </varray>
   <i name="volume">    724.28614963 </i>
   <varray name="rec_basis" >
    <v>       0.14368035       0.00041346      -0.00041701 </v>
    <v>       0.00028398       0.09797941      -0.00007421 </v>
    <v>      -0.00027992      -0.00007875       0.09807652 </v>
   </varray>
  </crystal>
  <varray name="positions" >
   <v>       0.25180700       0.17073000       0.51110500 </v>
   <v>       0.03647700       0.32768100       0.34507800 </v>
   <v>       0.01737400       0.33276800       0.66624400 </v>
   <v>       0.25812800       0.49716100       0.82947000 </v>
   <v>       0.25045000       0.82394200       0.15258200 </v>
   <v>       0.48402900       0.33483200       0.66580600 </v>
   <v>       0.48310100       0.32225900       0.99307100 </v>
   <v>       0.25313000       0.50111500       0.50670500 </v>
   <v>       0.48598700       0.66532100       0.31830700 </v>
   <v>       0.50578400       0.99865700       0.00409100 </v>
   <v>       0.49828700       0.65126100       0.67933100 </v>
   <v>       0.76261400       0.49337800       0.16970900 </v>
   <v>       0.25915600       0.83007300       0.83986400 </v>
   <v>       0.72041500       0.83259800       0.50302400 </v>
   <v>       0.74494700       0.48697800       0.83321000 </v>
   <v>       0.22628700       0.50680600       0.15627600 </v>
   <v>       0.01432200       0.68329600       0.34138900 </v>
   <v>       0.75115900       0.17675200       0.49613200 </v>
   <v>       0.46440000       0.33875600       0.33213500 </v>
   <v>       0.01542000       0.99930500       0.33303300 </v>
   <v>       0.75107600       0.18278400       0.17436700 </v>
   <v>       0.51777200       0.66932000       0.00490700 </v>
   <v>       0.50794900       0.01339200       0.68218400 </v>
   <v>       0.73717600       0.83543500       0.83177000 </v>
   <v>       0.25631600       0.16727000       0.15872100 </v>
   <v>       0.97638000       0.67952100       0.00085300 </v>
   <v>       0.73432100       0.17161500       0.82759600 </v>
   <v>       0.74642400       0.83260800       0.17159200 </v>
   <v>       0.26748700       0.16025600       0.82671200 </v>
   <v>       0.74692200       0.49564800       0.49661300 </v>
   <v>       0.99064500       0.99892100       0.00102400 </v>
   <v>       0.01812100       0.31486400       0.98168600 </v>
   <v>       0.99976400       0.66543800       0.66560400 </v>
   <v>       0.48532700       0.00151300       0.31706800 </v>
   <v>       0.99379300       0.00385400       0.66900700 </v>
   <v>       0.28724600       0.83390100       0.51373300 </v>
  </varray>
 </structure>
 <calculation>
  <scstep>
   <time name="dav">    1.00    1.01</time>
   <time name="total">    1.18    1.36</time>
   <energy>
    <i name="alphaZ">   1344.03603436 </i>
    <i name="ewald"> -15772.22589987 </i>
    <i name="hartreedc">  -5952.99442148 </i>
    <i name="XCdc">   -679.89541424 </i>
    <i name="pawpsdc">  17995.91559695 </i>
    <i name="pawaedc"> -16230.52290654 </i>
    <i name="eentropy">      0.00606992 </i>
    <i name="bandstr">     77.94250997 </i>
    <i name="atom">  20667.72186136 </i>
    <i name="e_fr_energy">   1449.98343042 </i>
    <i name="e_wo_entrp">   1449.97736050 </i>
    <i name="e_0_energy">   1449.98140711 </i>
   </energy>
  </scstep>
  <scstep>
   <time name="dav">    1.07    1.08</time>
   <time name="total">    1.07    1.16</time>
   <energy>
    <i name="e_fr_energy">   -139.15127960 </i>
    <i name="e_wo_entrp">   -139.16041851 </i>
    <i name="e_0_energy">   -139.15432590 </i>
   </energy>
  </scstep>
  <scstep>
   <time name="dav">    1.32    1.40</time>
   <time name="total">    1.32    1.42</time>
   <energy>
    <i name="e_fr_energy">   -353.73956589 </i>
    <i name="e_wo_entrp">   -353.72641243 </i>
    <i name="e_0_energy">   -353.73518140 </i>
   </energy>
  </scstep>
  <scstep>
   <time name="dav">    1.46    1.47</time>
   <time name="total">    1.46    1.49</time>
   <energy>
    <i name="e_fr_energy">   -379.10927397 </i>
    <i name="e_wo_entrp">   -379.10538896 </i>
    <i name="e_0_energy">   -379.10797897 </i>
   </energy>
  </scstep>
  <scstep>
   <time name="dav">    1.20    1.33</time>
   <time name="total">    1.26    1.43</time>
   <energy>
    <i name="e_fr_energy">   -381.67073526 </i>
    <i name="e_wo_entrp">   -381.67008720 </i>
    <i name="e_0_energy">   -381.67051924 </i>
   </energy>
  </scstep>
  <scstep>
   <time name="diag">    0.07    0.07</time>
   <time name="diis">    0.69    0.70</time>
   <time name="orth">    0.02    0.02</time>
   <time name="total">    0.86    0.88</time>
   <energy>
    <i name="e_fr_energy">   -371.47647830 </i>
    <i name="e_wo_entrp">   -371.46852600 </i>
    <i name="e_0_energy">   -371.47382754 </i>
   </energy>
  </scstep>
  <scstep>
   <time name="diag">    0.08    0.10</time>
   <time name="diis">    0.70    0.71</time>
   <time name="orth">    0.01    0.01</time>
   <time name="total">    0.85    0.91</time>
   <energy>
    <i name="e_fr_energy">   -371.46270473 </i>
    <i name="e_wo_entrp">   -371.48442520 </i>
    <i name="e_0_energy">   -371.46994489 </i>
   </energy>
  </scstep>
  <scstep>
   <time name="diag">    0.12    0.12</time>
   <time name="diis">    0.78    0.79</time>
   <time name="orth">    0.01    0.01</time>
   <time name="total">    0.98    1.01</time>
   <energy>
    <i name="e_fr_energy">   -367.13577045 </i>
    <i name="e_wo_entrp">   -367.14578154 </i>
    <i name="e_0_energy">   -367.13910748 </i>
   </energy>
  </scstep>
  <scstep>
   <time name="diag">    0.09    0.09</time>
   <time name="diis">    0.71    0.72</time>
   <time name="orth">    0.01    0.01</time>
   <time name="total">    0.88    0.91</time>
   <energy>
    <i name="e_fr_energy">   -366.89609613 </i>
    <i name="e_wo_entrp">   -366.90375200 </i>
    <i name="e_0_energy">   -366.89864809 </i>
   </energy>
  </scstep>
  <scstep>
   <time name="diag">    0.13    0.13</time>
   <time name="diis">    0.78    0.78</time>
   <time name="orth">    0.01    0.01</time>
   <time name="total">    1.03    1.05</time>
   <energy>
    <i name="e_fr_energy">   -366.88169582 </i>
    <i name="e_wo_entrp">   -366.89111412 </i>
    <i name="e_0_energy">   -366.88483525 </i>
   </energy>
  </scstep>
  <scstep>
   <time name="diag">    0.07    0.07</time>
   <time name="diis">    0.76    0.77</time>
   <time name="orth">    0.01    0.01</time>
   <time name="total">    0.91    0.94</time>
   <energy>
    <i name="e_fr_energy">   -366.86044300 </i>
    <i name="e_wo_entrp">   -366.87074625 </i>
    <i name="e_0_energy">   -366.86387741 </i>
   </energy>
  </scstep>
  <scstep>
   <time name="diag">    0.10    0.10</time>
   <time name="diis">    0.76    0.76</time>
   <time name="orth">    0.01    0.01</time>
   <time name="total">    0.93    0.95</time>
   <energy>
    <i name="e_fr_energy">   -366.85665247 </i>
    <i name="e_wo_entrp">   -366.86710761 </i>
    <i name="e_0_energy">   -366.86013751 </i>
   </energy>
  </scstep>
  <scstep>
   <time name="diag">    0.07    0.07</time>
   <time name="diis">    0.81    0.83</time>
   <time name="orth">    0.01    0.01</time>
   <time name="total">    0.96    1.00</time>
   <energy>
    <i name="e_fr_energy">   -366.85579403 </i>
    <i name="e_wo_entrp">   -366.86670746 </i>
    <i name="e_0_energy">   -366.85943184 </i>
   </energy>
  </scstep>
  <scstep>
   <time name="diag">    0.10    0.11</time>
   <time name="diis">    0.71    0.87</time>
   <time name="orth">    0.01    0.01</time>
   <time name="total">    0.92    1.11</time>
   <energy>
    <i name="e_fr_energy">   -366.85589950 </i>
    <i name="e_wo_entrp">   -366.86657745 </i>
    <i name="e_0_energy">   -366.85945882 </i>
   </energy>
  </scstep>
  <scstep>
   <time name="diag">    0.10    0.11</time>
   <time name="diis">    0.66    0.82</time>
   <time name="orth">    0.01    0.01</time>
   <time name="total">    0.85    1.03</time>
   <energy>
    <i name="e_fr_energy">   -366.85613576 </i>
    <i name="e_wo_entrp">   -366.86697280 </i>
    <i name="e_0_energy">   -366.85974810 </i>
   </energy>
  </scstep>
  <scstep>
   <time name="diag">    0.08    0.09</time>
   <time name="diis">    0.65    0.65</time>
   <time name="orth">    0.01    0.01</time>
   <time name="total">    0.81    0.83</time>
   <energy>
    <i name="e_fr_energy">   -366.85619621 </i>
    <i name="e_wo_entrp">   -366.86695888 </i>
    <i name="e_0_energy">   -366.85978377 </i>
   </energy>
  </scstep>
  <scstep>
   <time name="diag">    0.09    0.11</time>
   <time name="diis">    0.64    0.64</time>
   <time name="orth">    0.01    0.01</time>
   <time name="total">    0.80    0.89</time>
   <energy>
    <i name="e_fr_energy">   -366.85621046 </i>
    <i name="e_wo_entrp">   -366.86700608 </i>
    <i name="e_0_energy">   -366.85980900 </i>
   </energy>
  </scstep>
  <scstep>
   <time name="diag">    0.07    0.07</time>
   <time name="diis">    0.67    0.67</time>
   <time name="orth">    0.01    0.01</time>
   <time name="total">    0.81    0.85</time>
   <energy>
    <i name="e_fr_energy">   -366.85622609 </i>
    <i name="e_wo_entrp">   -366.86705718 </i>
    <i name="e_0_energy">   -366.85983645 </i>
   </energy>
  </scstep>
  <scstep>
   <time name="diag">    0.07    0.07</time>
   <time name="diis">    0.44    0.45</time>
   <time name="orth">    0.01    0.01</time>
   <time name="total">    0.61    0.64</time>
   <energy>
    <i name="e_fr_energy">   -366.85623654 </i>
    <i name="e_wo_entrp">   -366.86707288 </i>
    <i name="e_0_energy">   -366.85984865 </i>
   </energy>
  </scstep>
  <scstep>
   <time name="diag">    0.07    0.07</time>
   <time name="diis">    0.41    0.42</time>
   <time name="orth">    0.01    0.01</time>
   <time name="total">    0.53    0.55</time>
   <energy>
    <i name="alphaZ">   1344.03603436 </i>
    <i name="ewald"> -15772.22589987 </i>
    <i name="hartreedc">  -5766.81394169 </i>
    <i name="XCdc">   -674.58036674 </i>
    <i name="pawpsdc">  30558.22538588 </i>
    <i name="pawaedc"> -28783.26082203 </i>
    <i name="eentropy">      0.01083048 </i>
    <i name="bandstr">  -1939.96931966 </i>
    <i name="atom">  20667.72186136 </i>
    <i name="e_fr_energy">   -366.85623792 </i>
    <i name="e_wo_entrp">   -366.86706840 </i>
    <i name="e_0_energy">   -366.85984808 </i>
   </energy>
  </scstep>
  <structure>
   <crystal>
    <varray name="basis" >
     <v>       6.96000936      -0.02015776       0.01984849 </v>
     <v>      -0.02934623      10.20631671       0.00811099 </v>
     <v>       0.02957070       0.00763710      10.19621039 </v>
    </varray>
    <i name="volume">    724.28614963 </i>
    <varray name="rec_basis" >
     <v>       0.14368035       0.00041346      -0.00041701 </v>
     <v>       0.00028398       0.09797941      -0.00007421 </v>
     <v>      -0.00027992      -0.00007875       0.09807652 </v>
    </varray>
   </crystal>
   <varray name="positions" >
    <v>       0.25180700       0.17073000       0.51110500 </v>
    <v>       0.03647700       0.32768100       0.34507800 </v>
    <v>       0.01737400       0.33276800       0.66624400 </v>
    <v>       0.25812800       0.49716100       0.82947000 </v>
    <v>       0.25045000       0.82394200       0.15258200 </v>
    <v>       0.48402900       0.33483200       0.66580600 </v>
    <v>       0.48310100       0.32225900       0.99307100 </v>
    <v>       0.25313000       0.50111500       0.50670500 </v>
    <v>       0.48598700       0.66532100       0.31830700 </v>
    <v>       0.50578400       0.99865700       0.00409100 </v>
    <v>       0.49828700       0.65126100       0.67933100 </v>
    <v>       0.76261400       0.49337800       0.16970900 </v>
    <v>       0.25915600       0.83007300       0.83986400 </v>
    <v>       0.72041500       0.83259800       0.50302400 </v>
    <v>       0.74494700       0.48697800       0.83321000 </v>
    <v>       0.22628700       0.50680600       0.15627600 </v>
    <v>       0.01432200       0.68329600       0.34138900 </v>
    <v>       0.75115900       0.17675200       0.49613200 </v>
    <v>       0.46440000       0.33875600       0.33213500 </v>
    <v>       0.01542000       0.99930500       0.33303300 </v>
    <v>       0.75107600       0.18278400       0.17436700 </v>
    <v>       0.51777200       0.66932000       0.00490700 </v>
    <v>       0.50794900       0.01339200       0.68218400 </v>
    <v>       0.73717600       0.83543500       0.83177000 </v>
    <v>       0.25631600       0.16727000       0.15872100 </v>
    <v>       0.97638000       0.67952100       0.00085300 </v>
    <v>       0.73432100       0.17161500       0.82759600 </v>
    <v>       0.74642400       0.83260800       0.17159200 </v>
    <v>       0.26748700       0.16025600       0.82671200 </v>
    <v>       0.74692200       0.49564800       0.49661300 </v>
    <v>       0.99064500       0.99892100       0.00102400 </v>
    <v>       0.01812100       0.31486400       0.98168600 </v>
    <v>       0.99976400       0.66543800       0.66560400 </v>
    <v>       0.48532700       0.00151300       0.31706800 </v>
    <v>       0.99379300       0.00385400       0.66900700 </v>
    <v>       0.28724600       0.83390100       0.51373300 </v>
   </varray>
  </structure>
  <varray name="forces" >
   <v>      -0.28492555       0.27187214      -0.21994053 </v>
   <v>       0.00449776      -0.02946417       0.02441737 </v>
   <v>       0.03526469       0.00784014      -0.01524324 </v>
   <v>      -0.06810894       0.00400935      -0.00376665 </v>
   <v>      -0.05170981      -0.00480534      -0.01346022 </v>
   <v>       0.00507950      -0.20844329       0.01886363 </v>
   <v>       0.01659354      -0.03210457      -0.01356410 </v>
   <v>      -0.01358536       0.00375781       0.02705176 </v>
   <v>       0.01016530      -0.01460328       0.01632443 </v>
   <v>      -0.00734542      -0.01525988      -0.16179254 </v>
   <v>       0.00476243       0.01351579      -0.01943803 </v>
   <v>      -0.00550429      -0.01275824      -0.00189966 </v>
   <v>      -0.19589878      -0.23579939       0.22143780 </v>
   <v>       0.12978802      -0.26714038      -0.25980263 </v>
   <v>       0.03289438      -0.01787963       0.02684730 </v>
   <v>       0.00410888      -0.00411265      -0.00401980 </v>
   <v>       0.00553303       0.01735902       0.01625002 </v>
   <v>       0.16815959       0.21891374      -0.23027652 </v>
   <v>       0.01355581       0.00280061      -0.01163917 </v>
   <v>       0.00153931       0.00302823      -0.02159533 </v>
   <v>       0.01612717       0.00066749       0.01197444 </v>
   <v>       0.02185344      -0.00166101      -0.00243833 </v>
   <v>       0.13196490      -0.05357991      -0.17007968 </v>
   <v>       0.17954226      -0.37010168       0.21947240 </v>
   <v>      -0.05233544       0.04101371       0.00550123 </v>
   <v>       0.00389120       0.02657549      -0.04558349 </v>
   <v>       0.42279556       0.59441172       0.45587806 </v>
   <v>       0.00327948      -0.03207609       0.00674901 </v>
   <v>      -0.37921157       0.48703339       0.38571038 </v>
   <v>       0.01553867       0.00622488       0.00115395 </v>
   <v>       0.00023094      -0.02314514       0.02402432 </v>
   <v>      -0.03123552      -0.04393912      -0.02017446 </v>
   <v>       0.00685562       0.00777266      -0.01100701 </v>
   <v>      -0.01689116      -0.01462206       0.03494614 </v>
   <v>      -0.00974451      -0.01196163      -0.01703667 </v>
   <v>      -0.11752509      -0.31333871      -0.25384417 </v>
  </varray>
  <varray name="stress" >
   <v>       7.41674576      -0.25195289      -0.60407801 </v>
   <v>      -0.25195287       8.55247982       1.46282803 </v>
   <v>      -0.60407800       1.46282804       6.72654632 </v>
  </varray>
  <energy>
   <i name="e_fr_energy">   -366.85623792 </i>
   <i name="e_wo_entrp">   -366.85984808 </i>
   <i name="e_0_energy">      0.01083048 </i>
  </energy>
  <time name="totalsc">   20.60   22.01</time>
 </calculation>
 <calculation>
  <scstep>
   <time name="dav">    0.90    0.91</time>
   <time name="total">    1.03    1.11</time>
   <energy>
    <i name="alphaZ">   1338.50762184 </i>
    <i name="ewald"> -15751.54643481 </i>
    <i name="hartreedc">  -5757.91660839 </i>
    <i name="XCdc">   -675.53153430 </i>
    <i name="pawpsdc">  30558.17697471 </i>
    <i name="pawaedc"> -28783.21327593 </i>
    <i name="eentropy">      0.01114084 </i>
    <i name="bandstr">  -1963.12755656 </i>
    <i name="atom">  20667.72186136 </i>
    <i name="e_fr_energy">   -366.91781124 </i>
    <i name="e_wo_entrp">   -366.92895208 </i>
    <i name="e_0_energy">   -366.92152485 </i>
   </energy>
  </scstep>
  <scstep>
   <time name="diag">    0.07    0.07</time>
   <time name="diis">    0.67    0.67</time>
   <time name="orth">    0.01    0.01</time>
   <time name="total">    0.81    0.83</time>
   <energy>
    <i name="e_fr_energy">   -366.91264217 </i>
    <i name="e_wo_entrp">   -366.92274012 </i>
    <i name="e_0_energy">   -366.91600816 </i>
   </energy>
  </scstep>
  <scstep>
   <time name="diag">    0.07    0.07</time>
   <time name="diis">    0.72    0.72</time>
   <time name="orth">    0.01    0.01</time>
   <time name="total">    1.00    1.03</time>
   <energy>
    <i name="e_fr_energy">   -366.90407410 </i>
    <i name="e_wo_entrp">   -366.91549626 </i>
    <i name="e_0_energy">   -366.90788148 </i>
   </energy>
  </scstep>
  <scstep>
   <time name="diag">    0.07    0.07</time>
   <time name="diis">    0.73    0.74</time>
   <time name="orth">    0.01    0.01</time>
   <time name="total">    0.88    0.91</time>
   <energy>
    <i name="e_fr_energy">   -366.89928098 </i>
    <i name="e_wo_entrp">   -366.90990756 </i>
    <i name="e_0_energy">   -366.90282317 </i>
   </energy>
  </scstep>
  <scstep>
   <time name="diag">    0.07    0.07</time>
   <time name="diis">    0.73    0.73</time>
   <time name="orth">    0.01    0.01</time>
   <time name="total">    0.88    0.90</time>
   <energy>
    <i name="e_fr_energy">   -366.89850912 </i>
    <i name="e_wo_entrp">   -366.90931896 </i>
    <i name="e_0_energy">   -366.90211240 </i>
   </energy>
  </scstep>
  <scstep>
   <time name="diag">    0.07    0.07</time>
   <time name="diis">    0.79    0.79</time>
   <time name="orth">    0.02    0.02</time>
   <time name="total">    0.96    0.98</time>
   <energy>
    <i name="e_fr_energy">   -366.89853208 </i>
    <i name="e_wo_entrp">   -366.90925826 </i>
    <i name="e_0_energy">   -366.90210747 </i>
   </energy>
  </scstep>
  <scstep>
   <time name="diag">    0.07    0.07</time>
   <time name="diis">    0.72    0.72</time>
   <time name="orth">    0.01    0.01</time>
   <time name="total">    0.86    0.90</time>
   <energy>
    <i name="e_fr_energy">   -366.89850152 </i>
    <i name="e_wo_entrp">   -366.90925622 </i>
    <i name="e_0_energy">   -366.90208642 </i>
   </energy>
  </scstep>
  <scstep>
   <time name="diag">    0.14    0.14</time>
   <time name="diis">    0.69    0.70</time>
   <time name="orth">    0.01    0.01</time>
   <time name="total">    0.91    0.93</time>
   <energy>
    <i name="e_fr_energy">   -366.89851449 </i>
    <i name="e_wo_entrp">   -366.90930790 </i>
    <i name="e_0_energy">   -366.90211229 </i>
   </energy>
  </scstep>
  <scstep>
   <time name="diag">    0.07    0.07</time>
   <time name="diis">    0.57    0.58</time>
   <time name="orth">    0.01    0.01</time>
   <time name="total">    0.71    0.73</time>
   <energy>
    <i name="e_fr_energy">   -366.89852565 </i>
    <i name="e_wo_entrp">   -366.90929086 </i>
    <i name="e_0_energy">   -366.90211405 </i>
   </energy>
  </scstep>
  <scstep>
   <time name="diag">    0.07    0.07</time>
   <time name="diis">    0.56    0.56</time>
   <time name="orth">    0.01    0.01</time>
   <time name="total">    0.67    0.69</time>
   <energy>
    <i name="alphaZ">   1338.50762184 </i>
    <i name="ewald"> -15751.54643481 </i>
    <i name="hartreedc">  -5771.53930754 </i>
    <i name="XCdc">   -674.98324867 </i>
    <i name="pawpsdc">  30379.00620254 </i>
    <i name="pawaedc"> -28604.06512166 </i>
    <i name="eentropy">      0.01077292 </i>
    <i name="bandstr">  -1950.01087642 </i>
    <i name="atom">  20667.72186136 </i>
    <i name="e_fr_energy">   -366.89853044 </i>
    <i name="e_wo_entrp">   -366.90930336 </i>
    <i name="e_0_energy">   -366.90212141 </i>
   </energy>
  </scstep>
  <structure>
   <crystal>
    <varray name="basis" >
     <v>       6.96938962      -0.02050251       0.01910329 </v>
     <v>      -0.02985402      10.22218414       0.01083752 </v>
     <v>       0.02849082       0.01035832      10.20867384 </v>
    </varray>
    <i name="volume">    727.27765491 </i>
    <varray name="rec_basis" >
     <v>       0.14348692       0.00041948      -0.00040088 </v>
     <v>       0.00028806       0.09782740      -0.00010007 </v>
     <v>      -0.00026881      -0.00010464       0.09795677 </v>
    </varray>
   </crystal>
   <varray name="positions" >
    <v>       0.25121746       0.17111459       0.51079365 </v>
    <v>       0.03648603       0.32763921       0.34511267 </v>
    <v>       0.01744747       0.33277928       0.66622221 </v>
    <v>       0.25798642       0.49716641       0.82946492 </v>
    <v>       0.25034252       0.82393499       0.15256311 </v>
    <v>       0.48403820       0.33453642       0.66583299 </v>
    <v>       0.48313540       0.32221356       0.99305172 </v>
    <v>       0.25310161       0.50112024       0.50674345 </v>
    <v>       0.48600795       0.66530032       0.31833015 </v>
    <v>       0.50576961       0.99863550       0.00386139 </v>
    <v>       0.49829710       0.65128021       0.67930337 </v>
    <v>       0.76260249       0.49335989       0.16970634 </v>
    <v>       0.25874589       0.82973758       0.84017938 </v>
    <v>       0.72068486       0.83222000       0.50265500 </v>
    <v>       0.74501513       0.48695275       0.83324800 </v>
    <v>       0.22629554       0.50680019       0.15627028 </v>
    <v>       0.01433351       0.68332062       0.34141202 </v>
    <v>       0.75151138       0.17706337       0.49580421 </v>
    <v>       0.46442828       0.33876004       0.33211842 </v>
    <v>       0.01542335       0.99930932       0.33300234 </v>
    <v>       0.75110947       0.18278500       0.17438393 </v>
    <v>       0.51781745       0.66931774       0.00490345 </v>
    <v>       0.50822412       0.01331675       0.68194211 </v>
    <v>       0.73754581       0.83491068       0.83208122 </v>
    <v>       0.25620738       0.16732794       0.15872897 </v>
    <v>       0.97638853       0.67955875       0.00078825 </v>
    <v>       0.73520099       0.17245915       0.82824070 </v>
    <v>       0.74643059       0.83256252       0.17160160 </v>
    <v>       0.26669903       0.16094466       0.82726047 </v>
    <v>       0.74695434       0.49565689       0.49661457 </v>
    <v>       0.99064520       0.99888815       0.00105813 </v>
    <v>       0.01805591       0.31480159       0.98165754 </v>
    <v>       0.99977837       0.66544906       0.66558834 </v>
    <v>       0.48529158       0.00149216       0.31711769 </v>
    <v>       0.99377277       0.00383702       0.66898287 </v>
    <v>       0.28700127       0.83345646       0.51337352 </v>
   </varray>
  </structure>
  <varray name="forces" >
   <v>      -0.26359255       0.24605588      -0.17842244 </v>
   <v>       0.01968943      -0.01439477       0.01286929 </v>
   <v>       0.04448009       0.01610883      -0.00939976 </v>
   <v>      -0.04480163      -0.00835244      -0.02447387 </v>
   <v>      -0.03927169      -0.00516088      -0.02077937 </v>
   <v>      -0.01276985      -0.19485387       0.02806190 </v>
   <v>       0.00834058      -0.02348003      -0.00544210 </v>
   <v>       0.00044520      -0.00810419       0.03245064 </v>
   <v>       0.00279793      -0.02439239      -0.00925148 </v>
   <v>      -0.00829621      -0.00701428      -0.14949762 </v>
   <v>      -0.00273961       0.01132100      -0.00805897 </v>
   <v>      -0.00316264      -0.00817179       0.00230184 </v>
   <v>      -0.16870430      -0.20837991       0.19612891 </v>
   <v>       0.09298439      -0.24469178      -0.23949515 </v>
   <v>       0.01961685      -0.01996194       0.01452665 </v>
   <v>      -0.00098196      -0.00071514      -0.00086036 </v>
   <v>       0.01355311       0.01033439       0.00134419 </v>
   <v>       0.16422607       0.19610895      -0.20914035 </v>
   <v>      -0.00033660       0.01016781      -0.01374887 </v>
   <v>       0.00583251       0.00414996      -0.03417998 </v>
   <v>       0.00674024      -0.00609278       0.01057285 </v>
   <v>       0.01984612      -0.00312727       0.00745874 </v>
   <v>       0.11822603      -0.01189958      -0.11139196 </v>
   <v>       0.15529929      -0.34172294       0.18890452 </v>
   <v>      -0.03971239       0.03605281       0.00252663 </v>
   <v>      -0.00515622       0.02470522      -0.02886425 </v>
   <v>       0.34709349       0.52784536       0.38645853 </v>
   <v>      -0.00486121      -0.03029334       0.00705971 </v>
   <v>      -0.30363663       0.42001835       0.30631327 </v>
   <v>       0.00568814       0.00594807       0.00612686 </v>
   <v>       0.00041719      -0.02009643       0.03433990 </v>
   <v>      -0.02116650      -0.02271486       0.00678506 </v>
   <v>       0.01037970      -0.00544441      -0.00998844 </v>
   <v>      -0.02358413      -0.01213653       0.02932549 </v>
   <v>      -0.01208069       0.00875059       0.00014709 </v>
   <v>      -0.08080155      -0.29636566      -0.22070710 </v>
  </varray>
  <varray name="stress" >
   <v>       1.66577734      -0.16798344      -0.50562046 </v>
   <v>      -0.16798347       2.79437641       1.14609040 </v>
   <v>      -0.50562049       1.14609038       1.16971552 </v>
  </varray>
  <energy>
   <i name="e_fr_energy">   -366.89853044 </i>
   <i name="e_wo_entrp">   -366.90212141 </i>
   <i name="e_0_energy">      0.01077292 </i>
  </energy>
  <time name="totalsc">   10.31   10.79</time>
 </calculation>
 <calculation>
  <scstep>
   <time name="dav">    0.88    0.90</time>
   <time name="total">    1.01    1.10</time>
   <energy>
    <i name="alphaZ">   1324.56223187 </i>
    <i name="ewald"> -15698.14417175 </i>
    <i name="hartreedc">  -5749.73535141 </i>
    <i name="XCdc">   -677.39541843 </i>
    <i name="pawpsdc">  30378.20463441 </i>
    <i name="pawaedc"> -28603.37656305 </i>
    <i name="eentropy">      0.01176258 </i>
    <i name="bandstr">  -2008.91069225 </i>
    <i name="atom">  20667.72186136 </i>
    <i name="e_fr_energy">   -367.06170667 </i>
    <i name="e_wo_entrp">   -367.07346925 </i>
    <i name="e_0_energy">   -367.06562753 </i>
   </energy>
  </scstep>
  <scstep>
   <time name="diag">    0.07    0.07</time>
   <time name="diis">    0.65    0.66</time>
   <time name="orth">    0.01    0.01</time>
   <time name="total">    0.79    0.81</time>
   <energy>
    <i name="e_fr_energy">   -367.02515246 </i>
    <i name="e_wo_entrp">   -367.03414942 </i>
    <i name="e_0_energy">   -367.02815145 </i>
   </energy>
  </scstep>
  <scstep>
   <time name="diag">    0.10    0.10</time>
   <time name="diis">    0.71    0.72</time>
   <time name="orth">    0.01    0.01</time>
   <time name="total">    0.88    0.91</time>
   <energy>
    <i name="e_fr_energy">   -366.97185908 </i>
    <i name="e_wo_entrp">   -366.98377639 </i>
    <i name="e_0_energy">   -366.97583152 </i>
   </energy>
  </scstep>
  <scstep>
   <time name="diag">    0.07    0.07</time>
   <time name="diis">    0.73    0.73</time>
   <time name="orth">    0.01    0.01</time>
   <time name="total">    0.87    0.90</time>
   <energy>
    <i name="e_fr_energy">   -366.94147772 </i>
    <i name="e_wo_entrp">   -366.95176295 </i>
    <i name="e_0_energy">   -366.94490613 </i>
   </energy>
  </scstep>
  <scstep>
   <time name="diag">    0.07    0.07</time>
   <time name="diis">    0.73    0.73</time>
   <time name="orth">    0.01    0.01</time>
   <time name="total">    0.87    0.88</time>
   <energy>
    <i name="e_fr_energy">   -366.93630012 </i>
    <i name="e_wo_entrp">   -366.94681869 </i>
    <i name="e_0_energy">   -366.93980631 </i>
   </energy>
  </scstep>
  <scstep>
   <time name="diag">    0.07    0.12</time>
   <time name="diis">    0.80    0.80</time>
   <time name="orth">    0.01    0.01</time>
   <time name="total">    0.94    1.01</time>
   <energy>
    <i name="e_fr_energy">   -366.93651591 </i>
    <i name="e_wo_entrp">   -366.94694434 </i>
    <i name="e_0_energy">   -366.93999206 </i>
   </energy>
  </scstep>
  <scstep>
   <time name="diag">    0.07    0.07</time>
   <time name="diis">    0.89    0.89</time>
   <time name="orth">    0.01    0.01</time>
   <time name="total">    1.03    1.05</time>
   <energy>
    <i name="e_fr_energy">   -366.93643246 </i>
    <i name="e_wo_entrp">   -366.94687344 </i>
    <i name="e_0_energy">   -366.93991279 </i>
   </energy>
  </scstep>
  <scstep>
   <time name="diag">    0.07    0.07</time>
   <time name="diis">    0.77    0.78</time>
   <time name="orth">    0.01    0.01</time>
   <time name="total">    0.91    0.94</time>
   <energy>
    <i name="e_fr_energy">   -366.93657238 </i>
    <i name="e_wo_entrp">   -366.94711674 </i>
    <i name="e_0_energy">   -366.94008716 </i>
   </energy>
  </scstep>
  <scstep>
   <time name="diag">    0.07    0.07</time>
   <time name="diis">    0.80    0.80</time>
   <time name="orth">    0.01    0.01</time>
   <time name="total">    0.94    0.97</time>
   <energy>
    <i name="e_fr_energy">   -366.93667122 </i>
    <i name="e_wo_entrp">   -366.94714512 </i>
    <i name="e_0_energy">   -366.94016252 </i>
   </energy>
  </scstep>
  <scstep>
   <time name="diag">    0.07    0.07</time>
   <time name="diis">    0.66    0.67</time>
   <time name="orth">    0.01    0.01</time>
   <time name="total">    0.80    0.82</time>
   <energy>
    <i name="e_fr_energy">   -366.93676511 </i>
    <i name="e_wo_entrp">   -366.94726463 </i>
    <i name="e_0_energy">   -366.94026495 </i>
   </energy>
  </scstep>
  <scstep>
   <time name="diag">    0.07    0.07</time>
   <time name="diis">    0.60    0.61</time>
   <time name="orth">    0.01    0.01</time>
   <time name="total">    0.75    0.77</time>
   <energy>
    <i name="e_fr_energy">   -366.93678342 </i>
    <i name="e_wo_entrp">   -366.94729281 </i>
    <i name="e_0_energy">   -366.94028655 </i>
   </energy>
  </scstep>
  <scstep>
   <time name="diag">    0.07    0.07</time>
   <time name="diis">    0.55    0.56</time>
   <time name="orth">    0.01    0.01</time>
   <time name="total">    0.70    0.72</time>
   <energy>
    <i name="e_fr_energy">   -366.93678526 </i>
    <i name="e_wo_entrp">   -366.94728185 </i>
    <i name="e_0_energy">   -366.94028412 </i>
   </energy>
  </scstep>
  <scstep>
   <time name="diag">    0.07    0.07</time>
   <time name="diis">    0.42    0.42</time>
   <time name="orth">    0.01    0.01</time>
   <time name="total">    0.53    0.55</time>
   <energy>
    <i name="alphaZ">   1324.56223187 </i>
    <i name="ewald"> -15698.14417175 </i>
    <i name="hartreedc">  -5783.88032554 </i>
    <i name="XCdc">   -676.02428590 </i>
    <i name="pawpsdc">  29932.76148276 </i>
    <i name="pawaedc"> -28158.51856614 </i>
    <i name="eentropy">      0.01050331 </i>
    <i name="bandstr">  -1975.42551547 </i>
    <i name="atom">  20667.72186136 </i>
    <i name="e_fr_energy">   -366.93678550 </i>
    <i name="e_wo_entrp">   -366.94728881 </i>
    <i name="e_0_energy">   -366.94028660 </i>
   </energy>
  </scstep>
  <structure>
   <crystal>
    <varray name="basis" >
     <v>       6.99328483      -0.02138073       0.01720497 </v>
     <v>      -0.03114757      10.26260474       0.01778305 </v>
     <v>       0.02573994       0.01729034      10.24042316 </v>
    </varray>
    <i name="volume">    734.93465303 </i>
    <varray name="rec_basis" >
     <v>       0.14299653       0.00043463      -0.00036016 </v>
     <v>       0.00029832       0.09744234      -0.00016528 </v>
     <v>      -0.00024077      -0.00016994       0.09765311 </v>
    </varray>
   </crystal>
   <varray name="positions" >
    <v>       0.24971764       0.17209293       0.51000112 </v>
    <v>       0.03650901       0.32753290       0.34520093 </v>
    <v>       0.01763437       0.33280799       0.66616678 </v>
    <v>       0.25762623       0.49718016       0.82945198 </v>
    <v>       0.25006910       0.82391716       0.15251503 </v>
    <v>       0.48406157       0.33378461       0.66590187 </v>
    <v>       0.48322288       0.32209799       0.99300269 </v>
    <v>       0.25302940       0.50113355       0.50684127 </v>
    <v>       0.48606126       0.66524769       0.31838906 </v>
    <v>       0.50573291       0.99858099       0.00327722 </v>
    <v>       0.49832279       0.65132908       0.67923308 </v>
    <v>       0.76257320       0.49331382       0.16969958 </v>
    <v>       0.25770265       0.82888423       0.84098195 </v>
    <v>       0.72137115       0.83125884       0.50171648 </v>
    <v>       0.74518847       0.48688852       0.83334470 </v>
    <v>       0.22631728       0.50678541       0.15625574 </v>
    <v>       0.01436281       0.68338323       0.34147059 </v>
    <v>       0.75240774       0.17785556       0.49497006 </v>
    <v>       0.46450020       0.33877033       0.33207624 </v>
    <v>       0.01543186       0.99932034       0.33292432 </v>
    <v>       0.75119461       0.18278753       0.17442701 </v>
    <v>       0.51793306       0.66931199       0.00489444 </v>
    <v>       0.50892391       0.01312553       0.68132677 </v>
    <v>       0.73848663       0.83357694       0.83287349 </v>
    <v>       0.25593108       0.16747529       0.15874920 </v>
    <v>       0.97641020       0.67965481       0.00062349 </v>
    <v>       0.73744006       0.17460581       0.82988061 </v>
    <v>       0.74644734       0.83244684       0.17162607 </v>
    <v>       0.26469481       0.16269579       0.82865533 </v>
    <v>       0.74703662       0.49567950       0.49661856 </v>
    <v>       0.99064571       0.99880459       0.00114498 </v>
    <v>       0.01789029       0.31464285       0.98158516 </v>
    <v>       0.99981492       0.66547721       0.66554849 </v>
    <v>       0.48520148       0.00143911       0.31724412 </v>
    <v>       0.99372129       0.00379383       0.66892149 </v>
    <v>       0.28637846       0.83232604       0.51245914 </v>
   </varray>
  </structure>
  <varray name="forces" >
   <v>      -0.21242490       0.18501739      -0.07969542 </v>
   <v>       0.05494759       0.02343941      -0.01917449 </v>
   <v>       0.06827744       0.03307030       0.00516547 </v>
   <v>       0.01341645      -0.03774071      -0.07550781 </v>
   <v>      -0.00722531      -0.00573306      -0.03757620 </v>
   <v>      -0.05629230      -0.16344691       0.05060702 </v>
   <v>      -0.01057070      -0.00227059       0.01563209 </v>
   <v>       0.03495571      -0.03656125       0.04563363 </v>
   <v>      -0.01480011      -0.04806529      -0.07255176 </v>
   <v>      -0.01201021       0.01085914      -0.11744935 </v>
   <v>      -0.02262619       0.00614352       0.02046350 </v>
   <v>       0.00146281       0.00256814       0.01357075 </v>
   <v>      -0.10384911      -0.14501701       0.13686783 </v>
   <v>       0.00022116      -0.19124541      -0.19030551 </v>
   <v>      -0.01345198      -0.02579671      -0.01670166 </v>
   <v>      -0.01190005       0.00766090       0.00803011 </v>
   <v>       0.03450174      -0.00826705      -0.03920603 </v>
   <v>       0.15654043       0.14190214      -0.15929245 </v>
   <v>      -0.03539371       0.02552994      -0.01908548 </v>
   <v>       0.01727228       0.00919685      -0.06582704 </v>
   <v>      -0.01742560      -0.02096560       0.00475353 </v>
   <v>       0.01354247      -0.00664629       0.03052377 </v>
   <v>       0.08505370       0.08121340       0.02318092 </v>
   <v>       0.10219798      -0.27926735       0.12098245 </v>
   <v>      -0.00989734       0.02393040      -0.00567836 </v>
   <v>      -0.02799498       0.02294882       0.01287415 </v>
   <v>       0.16553716       0.37249352       0.21910039 </v>
   <v>      -0.02648237      -0.02712979       0.00585685 </v>
   <v>      -0.12770662       0.26630977       0.11957800 </v>
   <v>      -0.01806880       0.00696694       0.01896214 </v>
   <v>       0.00025103      -0.01098190       0.05767743 </v>
   <v>       0.00648375       0.03149879       0.07975183 </v>
   <v>       0.01923395      -0.03727844      -0.00798640 </v>
   <v>      -0.03891829      -0.00631508       0.01497051 </v>
   <v>      -0.01605873       0.05838230       0.04204576 </v>
   <v>       0.00920166      -0.25640323      -0.14019020 </v>
  </varray>
  <varray name="stress" >
   <v>     -12.96132751       0.06395048      -0.24416981 </v>
   <v>       0.06395049     -11.79213796       0.36526932 </v>
   <v>      -0.24416980       0.36526936     -12.93283288 </v>
  </varray>
  <energy>
   <i name="e_fr_energy">   -366.93678550 </i>
   <i name="e_wo_entrp">   -366.94028660 </i>
   <i name="e_0_energy">      0.01050331 </i>
  </energy>
  <time name="totalsc">   12.49   12.95</time>
 </calculation>
 <calculation>
  <scstep>
   <time name="dav">    0.84    0.85</time>
   <time name="total">    1.00    1.09</time>
   <energy>
    <i name="alphaZ">   1326.58574403 </i>
    <i name="ewald"> -15707.32514031 </i>
    <i name="hartreedc">  -5785.49264220 </i>
    <i name="XCdc">   -675.66348726 </i>
    <i name="pawpsdc">  29932.24400140 </i>
    <i name="pawaedc"> -28158.02883404 </i>
    <i name="eentropy">      0.01004224 </i>
    <i name="bandstr">  -1967.01177247 </i>
    <i name="atom">  20667.72186136 </i>
    <i name="e_fr_energy">   -366.96022726 </i>
    <i name="e_wo_entrp">   -366.97026950 </i>
    <i name="e_0_energy">   -366.96357467 </i>
   </energy>
  </scstep>
  <scstep>
   <time name="diag">    0.13    0.14</time>
   <time name="diis">    0.75    0.75</time>
   <time name="orth">    0.01    0.01</time>
   <time name="total">    0.98    1.00</time>
   <energy>
    <i name="e_fr_energy">   -366.97156652 </i>
    <i name="e_wo_entrp">   -366.98213865 </i>
    <i name="e_0_energy">   -366.97509056 </i>
   </energy>
  </scstep>
  <scstep>
   <time name="diag">    0.07    0.07</time>
   <time name="diis">    0.69    0.69</time>
   <time name="orth">    0.01    0.01</time>
   <time name="total">    0.83    0.85</time>
   <energy>
    <i name="e_fr_energy">   -366.96789404 </i>
    <i name="e_wo_entrp">   -366.97800553 </i>
    <i name="e_0_energy">   -366.97126454 </i>
   </energy>
  </scstep>
  <scstep>
   <time name="diag">    0.13    0.13</time>
   <time name="diis">    0.78    0.78</time>
   <time name="orth">    0.01    0.01</time>
   <time name="total">    0.99    1.02</time>
   <energy>
    <i name="e_fr_energy">   -366.96692039 </i>
    <i name="e_wo_entrp">   -366.97714223 </i>
    <i name="e_0_energy">   -366.97032767 </i>
   </energy>
  </scstep>
  <scstep>
   <time name="diag">    0.07    0.07</time>
   <time name="diis">    0.74    0.74</time>
   <time name="orth">    0.01    0.01</time>
   <time name="total">    0.93    0.98</time>
   <energy>
    <i name="e_fr_energy">   -366.96684478 </i>
    <i name="e_wo_entrp">   -366.97715131 </i>
    <i name="e_0_energy">   -366.97028029 </i>
   </energy>
  </scstep>
  <scstep>
   <time name="diag">    0.12    0.12</time>
   <time name="diis">    0.75    0.76</time>
   <time name="orth">    0.01    0.01</time>
   <time name="total">    0.95    0.98</time>
   <energy>
    <i name="e_fr_energy">   -366.96685702 </i>
    <i name="e_wo_entrp">   -366.97711693 </i>
    <i name="e_0_energy">   -366.97027699 </i>
   </energy>
  </scstep>
  <scstep>
   <time name="diag">    0.07    0.07</time>
   <time name="diis">    0.67    0.68</time>
   <time name="orth">    0.01    0.01</time>
   <time name="total">    0.81    0.84</time>
   <energy>
    <i name="e_fr_energy">   -366.96686205 </i>
    <i name="e_wo_entrp">   -366.97714361 </i>
    <i name="e_0_energy">   -366.97028924 </i>
   </energy>
  </scstep>
  <scstep>
   <time name="diag">    0.07    0.07</time>
   <time name="diis">    0.53    0.54</time>
   <time name="orth">    0.01    0.01</time>
   <time name="total">    0.67    0.70</time>
   <energy>
    <i name="e_fr_energy">   -366.96687839 </i>
    <i name="e_wo_entrp">   -366.97713848 </i>
    <i name="e_0_energy">   -366.97029842 </i>
   </energy>
  </scstep>
  <scstep>
   <time name="diag">    0.07    0.07</time>
   <time name="diis">    0.44    0.45</time>
   <time name="orth">    0.01    0.01</time>
   <time name="total">    0.55    0.57</time>
   <energy>
    <i name="alphaZ">   1326.58574403 </i>
    <i name="ewald"> -15707.32514031 </i>
    <i name="hartreedc">  -5780.74016235 </i>
    <i name="XCdc">   -675.85386180 </i>
    <i name="pawpsdc">  29998.38555764 </i>
    <i name="pawaedc"> -28224.24607812 </i>
    <i name="eentropy">      0.01027559 </i>
    <i name="bandstr">  -1971.50508290 </i>
    <i name="atom">  20667.72186136 </i>
    <i name="e_fr_energy">   -366.96688687 </i>
    <i name="e_wo_entrp">   -366.97716246 </i>
    <i name="e_0_energy">   -366.97031206 </i>
   </energy>
  </scstep>
  <structure>
   <crystal>
    <varray name="basis" >
     <v>       6.98922286      -0.02156661       0.01636509 </v>
     <v>      -0.03141926      10.25984617       0.02040421 </v>
     <v>       0.02451971       0.01990879      10.23350160 </v>
    </varray>
    <i name="volume">    733.81361791 </i>
    <varray name="rec_basis" >
     <v>       0.14307958       0.00043884      -0.00034368 </v>
     <v>       0.00030120       0.09746865      -0.00019034 </v>
     <v>      -0.00022941      -0.00019504       0.09771919 </v>
    </varray>
   </crystal>
   <varray name="positions" >
    <v>       0.24895297       0.17257410       0.50967868 </v>
    <v>       0.03659453       0.32752301       0.34520939 </v>
    <v>       0.01778944       0.33284915       0.66615447 </v>
    <v>       0.25753421       0.49714794       0.82937456 </v>
    <v>       0.24997447       0.82390613       0.15246365 </v>
    <v>       0.48398770       0.33339367       0.66597294 </v>
    <v>       0.48323477       0.32206007       0.99300280 </v>
    <v>       0.25305657       0.50110219       0.50691583 </v>
    <v>       0.48605670       0.66518487       0.31833683 </v>
    <v>       0.50570486       0.99857497       0.00298254 </v>
    <v>       0.49829845       0.65135004       0.67923129 </v>
    <v>       0.76256620       0.49330208       0.16971069 </v>
    <v>       0.25723151       0.82847937       0.84136360 </v>
    <v>       0.72158311       0.83077709       0.50124203 </v>
    <v>       0.74522281       0.48684363       0.83335843 </v>
    <v>       0.22630704       0.50678824       0.15625908 </v>
    <v>       0.01442111       0.68339469       0.34145047 </v>
    <v>       0.75290862       0.17823871       0.49455672 </v>
    <v>       0.46447219       0.33879821       0.33204469 </v>
    <v>       0.01545935       0.99933284       0.33283614 </v>
    <v>       0.75119599       0.18276791       0.17444503 </v>
    <v>       0.51798792       0.66930376       0.00492132 </v>
    <v>       0.50926133       0.01314567       0.68115895 </v>
    <v>       0.73892112       0.83289420       0.83323646 </v>
    <v>       0.25583178       0.16754396       0.15874987 </v>
    <v>       0.97637706       0.67970666       0.00058511 </v>
    <v>       0.73836845       0.17562976       0.83059897 </v>
    <v>       0.74641466       0.83238472       0.17163946 </v>
    <v>       0.26389496       0.16349384       0.82920192 </v>
    <v>       0.74703627       0.49569316       0.49663826 </v>
    <v>       0.99064597       0.99876803       0.00122793 </v>
    <v>       0.01784820       0.31462432       0.98164031 </v>
    <v>       0.99985346       0.66544980       0.66552843 </v>
    <v>       0.48511816       0.00141644       0.31729785 </v>
    <v>       0.99368261       0.00383705       0.66894336 </v>
    <v>       0.28619844       0.83172872       0.51204093 </v>
   </varray>
  </structure>
  <varray name="forces" >
   <v>      -0.18090032       0.12725401      -0.04669709 </v>
   <v>       0.03943674       0.05126242      -0.04681825 </v>
   <v>       0.05061215       0.04214189       0.01438731 </v>
   <v>       0.01943313      -0.03351967      -0.07319302 </v>
   <v>       0.00073395       0.00858606      -0.03820065 </v>
   <v>      -0.04497386      -0.14746168       0.04997529 </v>
   <v>      -0.00028523       0.02494510       0.03933469 </v>
   <v>       0.04472881      -0.02987020       0.04467476 </v>
   <v>      -0.01162825      -0.06553592      -0.08276926 </v>
   <v>      -0.01008812       0.01979337      -0.10024725 </v>
   <v>      -0.01776544       0.01373292       0.02067901 </v>
   <v>       0.00133363       0.00208733       0.01852528 </v>
   <v>      -0.08733675      -0.11428921       0.10190028 </v>
   <v>      -0.01966684      -0.15610778      -0.16609039 </v>
   <v>      -0.01395896      -0.01975520      -0.02163532 </v>
   <v>      -0.01596688       0.00490593       0.00376228 </v>
   <v>       0.03136670      -0.02173286      -0.05067279 </v>
   <v>       0.14511072       0.10467729      -0.13859753 </v>
   <v>      -0.02317913       0.03426861      -0.02930567 </v>
   <v>       0.01318814       0.00618134      -0.06905384 </v>
   <v>      -0.02172654      -0.03038480       0.00179546 </v>
   <v>       0.00288073      -0.02359204       0.03487101 </v>
   <v>       0.06946983       0.09186039       0.04819242 </v>
   <v>       0.08953685      -0.24105387       0.08647125 </v>
   <v>      -0.00577942       0.00476697      -0.00384574 </v>
   <v>      -0.02985876       0.00092379       0.02101764 </v>
   <v>       0.11157283       0.29619392       0.15242373 </v>
   <v>      -0.02671291      -0.01383140       0.00928900 </v>
   <v>      -0.08313902       0.19179637       0.05427245 </v>
   <v>      -0.02323966       0.01159223       0.01837249 </v>
   <v>       0.00040953      -0.00289293       0.06355261 </v>
   <v>       0.00390567       0.06588865       0.12192894 </v>
   <v>       0.01676845      -0.04513030      -0.00773651 </v>
   <v>      -0.03737674      -0.00203222       0.02439846 </v>
   <v>      -0.01673499       0.06628929       0.04943672 </v>
   <v>       0.02982995      -0.22195778      -0.10439779 </v>
  </varray>
  <varray name="stress" >
   <v>     -11.02367845       0.13983182      -0.15710138 </v>
   <v>       0.13983180      -9.79887931       0.09218170 </v>
   <v>      -0.15710137       0.09218171     -10.70837470 </v>
  </varray>
  <energy>
   <i name="e_fr_energy">   -366.96688687 </i>
   <i name="e_wo_entrp">   -366.97031206 </i>
   <i name="e_0_energy">      0.01027559 </i>
  </energy>
  <time name="totalsc">    9.17    9.52</time>
 </calculation>
 <calculation>
  <scstep>
   <time name="dav">    0.80    0.80</time>
   <time name="total">    0.93    1.02</time>
   <energy>
    <i name="alphaZ">   1332.59383168 </i>
    <i name="ewald"> -15732.91621707 </i>
    <i name="hartreedc">  -5787.02453441 </i>
    <i name="XCdc">   -674.77264622 </i>
    <i name="pawpsdc">  29998.78166032 </i>
    <i name="pawaedc"> -28224.60928903 </i>
    <i name="eentropy">      0.00916371 </i>
    <i name="bandstr">  -1946.73743168 </i>
    <i name="atom">  20667.72186136 </i>
    <i name="e_fr_energy">   -366.95360134 </i>
    <i name="e_wo_entrp">   -366.96276505 </i>
    <i name="e_0_energy">   -366.95665591 </i>
   </energy>
  </scstep>
  <scstep>
   <time name="diag">    0.07    0.07</time>
   <time name="diis">    0.66    0.67</time>
   <time name="orth">    0.04    0.04</time>
   <time name="total">    0.84    0.86</time>
   <energy>
    <i name="e_fr_energy">   -367.05671040 </i>
    <i name="e_wo_entrp">   -367.06699178 </i>
    <i name="e_0_energy">   -367.06013753 </i>
   </energy>
  </scstep>
  <scstep>
   <time name="diag">    0.07    0.07</time>
   <time name="diis">    0.63    0.80</time>
   <time name="orth">    0.01    0.01</time>
   <time name="total">    0.77    0.95</time>
   <energy>
    <i name="e_fr_energy">   -367.02255504 </i>
    <i name="e_wo_entrp">   -367.03193124 </i>
    <i name="e_0_energy">   -367.02568044 </i>
   </energy>
  </scstep>
  <scstep>
   <time name="diag">    0.08    0.08</time>
   <time name="diis">    0.85    0.86</time>
   <time name="orth">    0.01    0.01</time>
   <time name="total">    1.01    1.03</time>
   <energy>
    <i name="e_fr_energy">   -367.01474098 </i>
    <i name="e_wo_entrp">   -367.02426509 </i>
    <i name="e_0_energy">   -367.01791568 </i>
   </energy>
  </scstep>
  <scstep>
   <time name="diag">    0.07    0.07</time>
   <time name="diis">    0.73    0.73</time>
   <time name="orth">    0.01    0.01</time>
   <time name="total">    0.87    0.90</time>
   <energy>
    <i name="e_fr_energy">   -367.01401822 </i>
    <i name="e_wo_entrp">   -367.02372747 </i>
    <i name="e_0_energy">   -367.01725464 </i>
   </energy>
  </scstep>
  <scstep>
   <time name="diag">    0.07    0.07</time>
   <time name="diis">    0.84    0.84</time>
   <time name="orth">    0.01    0.01</time>
   <time name="total">    0.98    1.00</time>
   <energy>
    <i name="e_fr_energy">   -367.01416764 </i>
    <i name="e_wo_entrp">   -367.02379538 </i>
    <i name="e_0_energy">   -367.01737688 </i>
   </energy>
  </scstep>
  <scstep>
   <time name="diag">    0.09    0.09</time>
   <time name="diis">    0.86    0.86</time>
   <time name="orth">    0.01    0.01</time>
   <time name="total">    1.02    1.04</time>
   <energy>
    <i name="e_fr_energy">   -368.85505295 </i>
    <i name="e_wo_entrp">   -368.86475322 </i>
    <i name="e_0_energy">   -368.85828637 </i>
   </energy>
  </scstep>
  <scstep>
   <time name="diag">    0.10    0.13</time>
   <time name="diis">    0.64    0.74</time>
   <time name="orth">    0.02    0.02</time>
   <time name="total">    0.89    1.03</time>
   <energy>
    <i name="e_fr_energy">   -366.57276507 </i>
    <i name="e_wo_entrp">   -366.58253883 </i>
    <i name="e_0_energy">   -366.57602299 </i>
   </energy>
  </scstep>
  <scstep>
   <time name="diag">    0.09    0.09</time>
   <time name="diis">    0.75    0.76</time>
   <time name="orth">    0.01    0.01</time>
   <time name="total">    0.91    0.95</time>
   <energy>
    <i name="e_fr_energy">   -367.17932537 </i>
    <i name="e_wo_entrp">   -367.18900665 </i>
    <i name="e_0_energy">   -367.18255246 </i>
   </energy>
  </scstep>
  <scstep>
   <time name="diag">    0.07    0.07</time>
   <time name="diis">    0.70    0.71</time>
   <time name="orth">    0.01    0.01</time>
   <time name="total">    0.84    0.86</time>
   <energy>
    <i name="e_fr_energy">   -366.96311179 </i>
    <i name="e_wo_entrp">   -366.97274080 </i>
    <i name="e_0_energy">   -366.96632146 </i>
   </energy>
  </scstep>
  <scstep>
   <time name="diag">    0.07    0.07</time>
   <time name="diis">    0.64    0.64</time>
   <time name="orth">    0.01    0.01</time>
   <time name="total">    0.78    0.80</time>
   <energy>
    <i name="e_fr_energy">   -366.99876163 </i>
    <i name="e_wo_entrp">   -367.00840495 </i>
    <i name="e_0_energy">   -367.00197607 </i>
   </energy>
  </scstep>
  <scstep>
   <time name="diag">    0.08    0.08</time>
   <time name="diis">    0.46    0.46</time>
   <time name="orth">    0.01    0.01</time>
   <time name="total">    0.61    0.62</time>
   <energy>
    <i name="e_fr_energy">   -367.01005823 </i>
    <i name="e_wo_entrp">   -367.01969722 </i>
    <i name="e_0_energy">   -367.01327123 </i>
   </energy>
  </scstep>
  <scstep>
   <time name="diag">    0.07    0.07</time>
   <time name="diis">    0.35    0.35</time>
   <time name="orth">    0.01    0.01</time>
   <time name="total">    0.50    0.51</time>
   <energy>
    <i name="e_fr_energy">   -367.01305942 </i>
    <i name="e_wo_entrp">   -367.02270552 </i>
    <i name="e_0_energy">   -367.01627479 </i>
   </energy>
  </scstep>
  <scstep>
   <time name="diag">    0.07    0.07</time>
   <time name="diis">    0.35    0.36</time>
   <time name="orth">    0.01    0.01</time>
   <time name="total">    0.49    0.51</time>
   <energy>
    <i name="e_fr_energy">   -367.01379542 </i>
    <i name="e_wo_entrp">   -367.02343585 </i>
    <i name="e_0_energy">   -367.01700890 </i>
   </energy>
  </scstep>
  <scstep>
   <time name="diag">    0.07    0.07</time>
   <time name="diis">    0.28    0.45</time>
   <time name="orth">    0.01    0.01</time>
   <time name="total">    0.42    0.61</time>
   <energy>
    <i name="e_fr_energy">   -367.01417118 </i>
    <i name="e_wo_entrp">   -367.02382039 </i>
    <i name="e_0_energy">   -367.01738759 </i>
   </energy>
  </scstep>
  <scstep>
   <time name="diag">    0.07    0.07</time>
   <time name="diis">    0.29    0.30</time>
   <time name="orth">    0.01    0.01</time>
   <time name="total">    0.43    0.45</time>
   <energy>
    <i name="e_fr_energy">   -367.01431116 </i>
    <i name="e_wo_entrp">   -367.02396442 </i>
    <i name="e_0_energy">   -367.01752892 </i>
   </energy>
  </scstep>
  <scstep>
   <time name="diag">    0.07    0.07</time>
   <time name="diis">    0.33    0.33</time>
   <time name="orth">    0.01    0.01</time>
   <time name="total">    0.49    0.51</time>
   <energy>
    <i name="e_fr_energy">   -367.01436817 </i>
    <i name="e_wo_entrp">   -367.02401672 </i>
    <i name="e_0_energy">   -367.01758436 </i>
   </energy>
  </scstep>
  <scstep>
   <time name="diag">    0.09    0.09</time>
   <time name="diis">    0.29    0.29</time>
   <time name="orth">    0.01    0.01</time>
   <time name="total">    0.47    0.48</time>
   <energy>
    <i name="e_fr_energy">   -367.01439109 </i>
    <i name="e_wo_entrp">   -367.02403974 </i>
    <i name="e_0_energy">   -367.01760731 </i>
   </energy>
  </scstep>
  <scstep>
   <time name="diag">    0.06    0.07</time>
   <time name="diis">    0.25    0.30</time>
   <time name="orth">    0.01    0.01</time>
   <time name="total">    0.38    0.47</time>
   <energy>
    <i name="e_fr_energy">   -367.01440076 </i>
    <i name="e_wo_entrp">   -367.02405067 </i>
    <i name="e_0_energy">   -367.01761740 </i>
   </energy>
  </scstep>
  <scstep>
   <time name="diag">    0.07    0.08</time>
   <time name="diis">    0.27    0.27</time>
   <time name="orth">    0.01    0.01</time>
   <time name="total">    0.40    0.42</time>
   <energy>
    <i name="alphaZ">   1332.59383168 </i>
    <i name="ewald"> -15732.91621707 </i>
    <i name="hartreedc">  -5773.61989163 </i>
    <i name="XCdc">   -675.31228117 </i>
    <i name="pawpsdc">  30214.73445799 </i>
    <i name="pawaedc"> -28440.18838075 </i>
    <i name="eentropy">      0.00964962 </i>
    <i name="bandstr">  -1960.03743529 </i>
    <i name="atom">  20667.72186136 </i>
    <i name="e_fr_energy">   -367.01440527 </i>
    <i name="e_wo_entrp">   -367.02405488 </i>
    <i name="e_0_energy">   -367.01762181 </i>
   </energy>
  </scstep>
  <structure>
   <crystal>
    <varray name="basis" >
     <v>       6.97721475      -0.02211610       0.01388222 </v>
     <v>      -0.03222246      10.25169121       0.02815297 </v>
     <v>       0.02091244       0.02764955      10.21303989 </v>
    </varray>
    <i name="volume">    730.50517055 </i>
    <varray name="rec_basis" >
     <v>       0.14332568       0.00045130      -0.00029470 </v>
     <v>       0.00030973       0.09754658      -0.00026472 </v>
     <v>      -0.00019567      -0.00026951       0.09791517 </v>
    </varray>
   </crystal>
   <varray name="positions" >
    <v>       0.24669102       0.17399711       0.50872427 </v>
    <v>       0.03684750       0.32749375       0.34523448 </v>
    <v>       0.01824814       0.33297089       0.66611804 </v>
    <v>       0.25726196       0.49705271       0.82914553 </v>
    <v>       0.24969453       0.82387357       0.15231163 </v>
    <v>       0.48376920       0.33223760       0.66618344 </v>
    <v>       0.48326992       0.32194794       0.99300317 </v>
    <v>       0.25313697       0.50100939       0.50713646 </v>
    <v>       0.48604319       0.66499915       0.31818238 </v>
    <v>       0.50562175       0.99855741       0.00211083 </v>
    <v>       0.49822646       0.65141202       0.67922600 </v>
    <v>       0.76254549       0.49326734       0.16974357 </v>
    <v>       0.25583804       0.82728187       0.84249282 </v>
    <v>       0.72220977       0.82935293       0.49983890 </v>
    <v>       0.74532437       0.48671088       0.83339909 </v>
    <v>       0.22627678       0.50679660       0.15626894 </v>
    <v>       0.01459354       0.68342859       0.34139097 </v>
    <v>       0.75439004       0.17937205       0.49333380 </v>
    <v>       0.46438931       0.33888070       0.33195134 </v>
    <v>       0.01554063       0.99936988       0.33257529 </v>
    <v>       0.75120008       0.18270985       0.17449833 </v>
    <v>       0.51815018       0.66927940       0.00500088 </v>
    <v>       0.51025934       0.01320539       0.68066258 </v>
    <v>       0.74020640       0.83087508       0.83431085 </v>
    <v>       0.25553809       0.16774702       0.15875175 </v>
    <v>       0.97627903       0.67986001       0.00047155 </v>
    <v>       0.74111507       0.17865709       0.83272349 </v>
    <v>       0.74631799       0.83220099       0.17167910 </v>
    <v>       0.26152941       0.16585322       0.83081804 </v>
    <v>       0.74703522       0.49573353       0.49669654 </v>
    <v>       0.99064680       0.99865985       0.00147337 </v>
    <v>       0.01772375       0.31456948       0.98180347 </v>
    <v>       0.99996745       0.66536877       0.66546910 </v>
    <v>       0.48487174       0.00134936       0.31745678 </v>
    <v>       0.99356822       0.00396484       0.66900802 </v>
    <v>       0.28566565       0.82996273       0.51080418 </v>
   </varray>
  </structure>
  <varray name="forces" >
   <v>      -0.08506184      -0.04836588       0.05390892 </v>
   <v>      -0.01051874       0.14030117      -0.13300173 </v>
   <v>      -0.00508339       0.06889940       0.04046996 </v>
   <v>       0.04006516      -0.01897622      -0.06794498 </v>
   <v>       0.02645654       0.05395265      -0.03902816 </v>
   <v>      -0.00891069      -0.10063530       0.04703358 </v>
   <v>       0.02935108       0.10968087       0.11441508 </v>
   <v>       0.07436778      -0.01075500       0.04399310 </v>
   <v>      -0.00133102      -0.11705614      -0.11425001 </v>
   <v>      -0.00625865       0.04314733      -0.05049362 </v>
   <v>      -0.00488912       0.03498327       0.02175453 </v>
   <v>       0.00121213      -0.00008242       0.03273286 </v>
   <v>      -0.03872487      -0.02206668      -0.00123201 </v>
   <v>      -0.07988628      -0.05363538      -0.09359602 </v>
   <v>      -0.01533599       0.00121203      -0.03908381 </v>
   <v>      -0.02824833      -0.00508900      -0.01052675 </v>
   <v>       0.01998652      -0.06293134      -0.08735764 </v>
   <v>       0.11024592      -0.00640593      -0.07480466 </v>
   <v>       0.01471423       0.06062496      -0.05792220 </v>
   <v>       0.00149238      -0.00331913      -0.07687426 </v>
   <v>      -0.03640171      -0.05844828      -0.00926547 </v>
   <v>      -0.03112399      -0.07338079       0.04880671 </v>
   <v>       0.02300506       0.11357620       0.11668686 </v>
   <v>       0.05919852      -0.12902536      -0.01448983 </v>
   <v>       0.00714274      -0.05315607       0.00335704 </v>
   <v>      -0.03592884      -0.06709088       0.04912355 </v>
   <v>      -0.04877236       0.06770136      -0.04893240 </v>
   <v>      -0.02946899       0.02705581       0.01706959 </v>
   <v>       0.04467229      -0.02997163      -0.13912535 </v>
   <v>      -0.03803813       0.02499028       0.01816039 </v>
   <v>      -0.00005287       0.02123378       0.07545503 </v>
   <v>       0.00018456       0.17678734       0.25672307 </v>
   <v>       0.00871095      -0.06358721      -0.00602555 </v>
   <v>      -0.03131083       0.01003331       0.05337681 </v>
   <v>      -0.01452870       0.08497341       0.06967732 </v>
   <v>       0.08906947      -0.11517452       0.00121008 </v>
  </varray>
  <varray name="stress" >
   <v>      -4.57263349       0.39160571       0.11375024 </v>
   <v>       0.39160570      -3.12682263      -0.65448137 </v>
   <v>       0.11375024      -0.65448136      -3.34634035 </v>
  </varray>
  <energy>
   <i name="e_fr_energy">   -367.01440527 </i>
   <i name="e_wo_entrp">   -367.01762181 </i>
   <i name="e_0_energy">      0.00964962 </i>
  </energy>
  <time name="totalsc">   15.64   16.71</time>
 </calculation>
 <calculation>
  <scstep>
   <time name="dav">    0.81    0.82</time>
   <time name="total">    0.95    1.03</time>
   <energy>
    <i name="alphaZ">   1334.11281291 </i>
    <i name="ewald"> -15738.99200785 </i>
    <i name="hartreedc">  -5775.55042865 </i>
    <i name="XCdc">   -675.03793853 </i>
    <i name="pawpsdc">  30214.89993988 </i>
[...]
       <r>    6.1940    1.0000 </r>
       <r>    6.2440    1.0000 </r>
       <r>    6.2803    1.0000 </r>
       <r>    6.3078    1.0000 </r>
       <r>    6.3811    1.0000 </r>
       <r>    6.4204    1.0000 </r>
       <r>    6.4757    1.0000 </r>
       <r>    6.4991    1.0000 </r>
       <r>    6.5324    1.0000 </r>
       <r>    6.5792    1.0001 </r>
       <r>    6.6258    1.0006 </r>
       <r>    6.6533    1.0013 </r>
       <r>    6.6908    1.0037 </r>
       <r>    6.7254    1.0084 </r>
       <r>    6.7394    1.0111 </r>
       <r>    6.7754    1.0206 </r>
       <r>    6.8340    1.0353 </r>
       <r>    6.8576    1.0329 </r>
       <r>    6.8933    1.0052 </r>
       <r>    6.9115    0.9747 </r>
       <r>    6.9240    0.9461 </r>
       <r>    6.9595    0.8266 </r>
       <r>    7.0150    0.5470 </r>
       <r>    7.0580    0.3103 </r>
       <r>    7.0726    0.2380 </r>
       <r>    7.1193    0.0628 </r>
       <r>    7.1444    0.0081 </r>
       <r>    7.2010   -0.0352 </r>
       <r>    7.2218   -0.0342 </r>
       <r>    7.2923   -0.0147 </r>
       <r>    7.3298   -0.0069 </r>
       <r>    7.3492   -0.0044 </r>
       <r>    7.3985   -0.0012 </r>
       <r>    7.4192   -0.0006 </r>
       <r>    7.4822   -0.0001 </r>
       <r>    7.5202   -0.0000 </r>
       <r>    7.5708   -0.0000 </r>
       <r>    7.5987   -0.0000 </r>
       <r>    7.6472   -0.0000 </r>
       <r>    7.6940   -0.0000 </r>
       <r>    7.7219   -0.0000 </r>
       <r>    7.8059   -0.0000 </r>
       <r>    7.8596   -0.0000 </r>
       <r>    7.8863   -0.0000 </r>
       <r>    7.9425   -0.0000 </r>
       <r>    8.2247   -0.0000 </r>
       <r>    8.2755   -0.0000 </r>
       <r>    8.3635   -0.0000 </r>
       <r>    8.9306   -0.0000 </r>
      </set>
     </set>
    </set>
   </array>
  </eigenvalues>
  <separator name="orbital magnetization" >
   <v name="MAGDIPOLOUT">      0.00000000      0.00000000      0.00000000</v>
  </separator>
  <dos>
   <i name="efermi">      7.02333205 </i>
   <total>
    <array>
     <dimension dim="1">gridpoints</dimension>
     <dimension dim="2">spin</dimension>
     <field>energy</field>
     <field>total</field>
     <field>integrated</field>
     <set>
      <set comment="spin 1">
       <r>   -49.9665     0.0000     0.0000 </r>
       <r>   -49.7608     0.0000     0.0000 </r>
       <r>   -49.5551     0.0000     0.0000 </r>
       <r>   -49.3495     0.0000     0.0000 </r>
       <r>   -49.1438     0.0000     0.0000 </r>
       <r>   -48.9381     0.0000     0.0000 </r>
       <r>   -48.7324     0.0000     0.0000 </r>
       <r>   -48.5268    -0.0000    -0.0000 </r>
       <r>   -48.3211    -0.0000    -0.0000 </r>
       <r>   -48.1154    -0.0000    -0.0000 </r>
       <r>   -47.9097    -0.0000    -0.0000 </r>
       <r>   -47.7041    -0.0000    -0.0000 </r>
       <r>   -47.4984    -0.0563    -0.0116 </r>
       <r>   -47.2927    -1.3159    -0.2822 </r>
       <r>   -47.0871    31.6779     6.2330 </r>
       <r>   -46.8814    29.5447    12.3096 </r>
       <r>   -46.6757    -1.4651    12.0082 </r>
       <r>   -46.4700    -0.0400    12.0000 </r>
       <r>   -46.2644    -0.0000    12.0000 </r>
       <r>   -46.0587    -0.0000    12.0000 </r>
       <r>   -45.8530     0.0000    12.0000 </r>
       <r>   -45.6474     0.0000    12.0000 </r>
       <r>   -45.4417     0.0000    12.0000 </r>
       <r>   -45.2360     0.0000    12.0000 </r>
       <r>   -45.0303     0.0000    12.0000 </r>
       <r>   -44.8247     0.0000    12.0000 </r>
       <r>   -44.6190     0.0000    12.0000 </r>
       <r>   -44.4133     0.0000    12.0000 </r>
       <r>   -44.2076     0.0000    12.0000 </r>
       <r>   -44.0020     0.0000    12.0000 </r>
       <r>   -43.7963     0.0000    12.0000 </r>
       <r>   -43.5906     0.0000    12.0000 </r>
       <r>   -43.3850     0.0000    12.0000 </r>
       <r>   -43.1793     0.0000    12.0000 </r>
       <r>   -42.9736     0.0000    12.0000 </r>
       <r>   -42.7679     0.0000    12.0000 </r>
       <r>   -42.5623    -0.0000    12.0000 </r>
       <r>   -42.3566    -0.0000    12.0000 </r>
       <r>   -42.1509    -0.0000    12.0000 </r>
       <r>   -41.9453    -0.0000    12.0000 </r>
       <r>   -41.7396    -0.0000    12.0000 </r>
       <r>   -41.5339    -0.0467    11.9904 </r>
       <r>   -41.3282    -0.8526    11.8150 </r>
       <r>   -41.1226    21.9775    16.3352 </r>
       <r>   -40.9169    42.8240    25.1429 </r>
       <r>   -40.7112     4.6221    26.0935 </r>
       <r>   -40.5055    -0.4525    26.0004 </r>
       <r>   -40.2999    -0.0021    26.0000 </r>
       <r>   -40.0942    -0.0000    26.0000 </r>
       <r>   -39.8885    -0.0000    26.0000 </r>
       <r>   -39.6829     0.0000    26.0000 </r>
       <r>   -39.4772     0.0000    26.0000 </r>
       <r>   -39.2715     0.0000    26.0000 </r>
       <r>   -39.0658     0.0000    26.0000 </r>
       <r>   -38.8602     0.0000    26.0000 </r>
       <r>   -38.6545     0.0000    26.0000 </r>
       <r>   -38.4488     0.0000    26.0000 </r>
       <r>   -38.2432     0.0000    26.0000 </r>
       <r>   -38.0375     0.0000    26.0000 </r>
       <r>   -37.8318     0.0000    26.0000 </r>
       <r>   -37.6261     0.0000    26.0000 </r>
       <r>   -37.4205     0.0000    26.0000 </r>
       <r>   -37.2148     0.0000    26.0000 </r>
       <r>   -37.0091     0.0000    26.0000 </r>
       <r>   -36.8034     0.0000    26.0000 </r>
       <r>   -36.5978     0.0000    26.0000 </r>
       <r>   -36.3921     0.0000    26.0000 </r>
       <r>   -36.1864     0.0000    26.0000 </r>
       <r>   -35.9808     0.0000    26.0000 </r>
       <r>   -35.7751     0.0000    26.0000 </r>
       <r>   -35.5694     0.0000    26.0000 </r>
       <r>   -35.3637     0.0000    26.0000 </r>
       <r>   -35.1581     0.0000    26.0000 </r>
       <r>   -34.9524     0.0000    26.0000 </r>
       <r>   -34.7467     0.0000    26.0000 </r>
       <r>   -34.5411     0.0000    26.0000 </r>
       <r>   -34.3354     0.0000    26.0000 </r>
       <r>   -34.1297     0.0000    26.0000 </r>
       <r>   -33.9240     0.0000    26.0000 </r>
       <r>   -33.7184     0.0000    26.0000 </r>
       <r>   -33.5127     0.0000    26.0000 </r>
       <r>   -33.3070     0.0000    26.0000 </r>
       <r>   -33.1013     0.0000    26.0000 </r>
       <r>   -32.8957     0.0000    26.0000 </r>
       <r>   -32.6900     0.0000    26.0000 </r>
       <r>   -32.4843     0.0000    26.0000 </r>
       <r>   -32.2787     0.0000    26.0000 </r>
       <r>   -32.0730     0.0000    26.0000 </r>
       <r>   -31.8673     0.0000    26.0000 </r>
       <r>   -31.6616     0.0000    26.0000 </r>
       <r>   -31.4560     0.0000    26.0000 </r>
       <r>   -31.2503     0.0000    26.0000 </r>
       <r>   -31.0446     0.0000    26.0000 </r>
       <r>   -30.8390     0.0000    26.0000 </r>
       <r>   -30.6333     0.0000    26.0000 </r>
       <r>   -30.4276     0.0000    26.0000 </r>
       <r>   -30.2219     0.0000    26.0000 </r>
       <r>   -30.0163     0.0000    26.0000 </r>
       <r>   -29.8106     0.0000    26.0000 </r>
       <r>   -29.6049     0.0000    26.0000 </r>
       <r>   -29.3992     0.0000    26.0000 </r>
       <r>   -29.1936     0.0000    26.0000 </r>
       <r>   -28.9879     0.0000    26.0000 </r>
       <r>   -28.7822     0.0000    26.0000 </r>
       <r>   -28.5766     0.0000    26.0000 </r>
       <r>   -28.3709     0.0000    26.0000 </r>
       <r>   -28.1652     0.0000    26.0000 </r>
       <r>   -27.9595     0.0000    26.0000 </r>
       <r>   -27.7539     0.0000    26.0000 </r>
       <r>   -27.5482     0.0000    26.0000 </r>
       <r>   -27.3425     0.0000    26.0000 </r>
       <r>   -27.1369     0.0000    26.0000 </r>
       <r>   -26.9312     0.0000    26.0000 </r>
       <r>   -26.7255     0.0000    26.0000 </r>
       <r>   -26.5198     0.0000    26.0000 </r>
       <r>   -26.3142     0.0000    26.0000 </r>
       <r>   -26.1085     0.0000    26.0000 </r>
       <r>   -25.9028     0.0000    26.0000 </r>
       <r>   -25.6972     0.0000    26.0000 </r>
       <r>   -25.4915     0.0000    26.0000 </r>
       <r>   -25.2858     0.0000    26.0000 </r>
       <r>   -25.0801     0.0000    26.0000 </r>
       <r>   -24.8745    -0.0000    26.0000 </r>
       <r>   -24.6688    -0.0000    26.0000 </r>
       <r>   -24.4631    -0.0000    26.0000 </r>
       <r>   -24.2574    -0.0000    26.0000 </r>
       <r>   -24.0518    -0.0001    26.0000 </r>
       <r>   -23.8461    -0.0595    25.9878 </r>
       <r>   -23.6404    -0.1087    25.9654 </r>
       <r>   -23.4348    11.5149    28.3337 </r>
       <r>   -23.2291    75.2622    43.8130 </r>
       <r>   -23.0234    77.0786    59.6659 </r>
       <r>   -22.8177    11.3281    61.9958 </r>
       <r>   -22.6121     0.0908    62.0145 </r>
       <r>   -22.4064    -0.0704    62.0000 </r>
       <r>   -22.2007    -0.0001    62.0000 </r>
       <r>   -21.9951    -0.0000    62.0000 </r>
       <r>   -21.7894     0.0000    62.0000 </r>
       <r>   -21.5837     0.0000    62.0000 </r>
       <r>   -21.3780     0.0000    62.0000 </r>
       <r>   -21.1724     0.0000    62.0000 </r>
       <r>   -20.9667     0.0000    62.0000 </r>
       <r>   -20.7610    -0.0000    62.0000 </r>
       <r>   -20.5553    -0.0000    62.0000 </r>
       <r>   -20.3497    -0.0000    62.0000 </r>
       <r>   -20.1440    -0.0000    62.0000 </r>
       <r>   -19.9383    -0.0092    61.9981 </r>
       <r>   -19.7327    -0.4878    61.8978 </r>
       <r>   -19.5270     7.1689    63.3722 </r>
       <r>   -19.3213    29.8711    69.5159 </r>
       <r>   -19.1156    97.2254    89.5124 </r>
       <r>   -18.9100    63.5102   102.5747 </r>
       <r>   -18.7043     7.1620   104.0478 </r>
       <r>   -18.4986    -0.1981   104.0070 </r>
       <r>   -18.2930    -0.0341   104.0000 </r>
       <r>   -18.0873    -0.0000   104.0000 </r>
       <r>   -17.8816    -0.0000   104.0000 </r>
       <r>   -17.6759     0.0000   104.0000 </r>
       <r>   -17.4703     0.0000   104.0000 </r>
       <r>   -17.2646     0.0000   104.0000 </r>
       <r>   -17.0589     0.0000   104.0000 </r>
       <r>   -16.8532     0.0000   104.0000 </r>
       <r>   -16.6476     0.0000   104.0000 </r>
       <r>   -16.4419     0.0000   104.0000 </r>
       <r>   -16.2362     0.0000   104.0000 </r>
       <r>   -16.0306     0.0000   104.0000 </r>
       <r>   -15.8249     0.0000   104.0000 </r>
       <r>   -15.6192     0.0000   104.0000 </r>
       <r>   -15.4135     0.0000   104.0000 </r>
       <r>   -15.2079     0.0000   104.0000 </r>
       <r>   -15.0022     0.0000   104.0000 </r>
       <r>   -14.7965     0.0000   104.0000 </r>
       <r>   -14.5909     0.0000   104.0000 </r>
       <r>   -14.3852     0.0000   104.0000 </r>
       <r>   -14.1795     0.0000   104.0000 </r>
       <r>   -13.9738     0.0000   104.0000 </r>
       <r>   -13.7682     0.0000   104.0000 </r>
       <r>   -13.5625     0.0000   104.0000 </r>
       <r>   -13.3568     0.0000   104.0000 </r>
       <r>   -13.1511     0.0000   104.0000 </r>
       <r>   -12.9455     0.0000   104.0000 </r>
       <r>   -12.7398     0.0000   104.0000 </r>
       <r>   -12.5341     0.0000   104.0000 </r>
       <r>   -12.3285     0.0000   104.0000 </r>
       <r>   -12.1228     0.0000   104.0000 </r>
       <r>   -11.9171     0.0000   104.0000 </r>
       <r>   -11.7114     0.0000   104.0000 </r>
       <r>   -11.5058     0.0000   104.0000 </r>
       <r>   -11.3001     0.0000   104.0000 </r>
       <r>   -11.0944     0.0000   104.0000 </r>
       <r>   -10.8888     0.0000   104.0000 </r>
       <r>   -10.6831     0.0000   104.0000 </r>
       <r>   -10.4774     0.0000   104.0000 </r>
       <r>   -10.2717     0.0000   104.0000 </r>
       <r>   -10.0661     0.0000   104.0000 </r>
       <r>    -9.8604     0.0000   104.0000 </r>
       <r>    -9.6547     0.0000   104.0000 </r>
       <r>    -9.4490     0.0000   104.0000 </r>
       <r>    -9.2434     0.0000   104.0000 </r>
       <r>    -9.0377     0.0000   104.0000 </r>
       <r>    -8.8320     0.0000   104.0000 </r>
       <r>    -8.6264     0.0000   104.0000 </r>
       <r>    -8.4207     0.0000   104.0000 </r>
       <r>    -8.2150     0.0000   104.0000 </r>
       <r>    -8.0093     0.0000   104.0000 </r>
       <r>    -7.8037     0.0000   104.0000 </r>
       <r>    -7.5980     0.0000   104.0000 </r>
       <r>    -7.3923     0.0000   104.0000 </r>
       <r>    -7.1867     0.0000   104.0000 </r>
       <r>    -6.9810     0.0000   104.0000 </r>
       <r>    -6.7753     0.0000   104.0000 </r>
       <r>    -6.5696     0.0000   104.0000 </r>
       <r>    -6.3640     0.0000   104.0000 </r>
       <r>    -6.1583     0.0000   104.0000 </r>
       <r>    -5.9526     0.0000   104.0000 </r>
       <r>    -5.7470     0.0000   104.0000 </r>
       <r>    -5.5413     0.0000   104.0000 </r>
       <r>    -5.3356     0.0000   104.0000 </r>
       <r>    -5.1299     0.0000   104.0000 </r>
       <r>    -4.9243     0.0000   104.0000 </r>
       <r>    -4.7186     0.0000   104.0000 </r>
       <r>    -4.5129     0.0000   104.0000 </r>
       <r>    -4.3072     0.0000   104.0000 </r>
       <r>    -4.1016     0.0000   104.0000 </r>
       <r>    -3.8959     0.0000   104.0000 </r>
       <r>    -3.6902     0.0000   104.0000 </r>
       <r>    -3.4846     0.0000   104.0000 </r>
       <r>    -3.2789     0.0000   104.0000 </r>
       <r>    -3.0732     0.0000   104.0000 </r>
       <r>    -2.8675     0.0000   104.0000 </r>
       <r>    -2.6619     0.0000   104.0000 </r>
       <r>    -2.4562     0.0000   104.0000 </r>
       <r>    -2.2505     0.0000   104.0000 </r>
       <r>    -2.0449     0.0000   104.0000 </r>
       <r>    -1.8392     0.0000   104.0000 </r>
       <r>    -1.6335     0.0000   104.0000 </r>
       <r>    -1.4278     0.0000   104.0000 </r>
       <r>    -1.2222    -0.0000   104.0000 </r>
       <r>    -1.0165    -0.0000   104.0000 </r>
       <r>    -0.8108    -0.0000   104.0000 </r>
       <r>    -0.6051    -0.0000   104.0000 </r>
       <r>    -0.3995    -0.0000   104.0000 </r>
       <r>    -0.1938    -0.0035   103.9993 </r>
       <r>     0.0119     0.0279   104.0050 </r>
       <r>     0.2175     0.3895   104.0851 </r>
       <r>     0.4232     1.3264   104.3579 </r>
       <r>     0.6289     1.8308   104.7345 </r>
       <r>     0.8346     2.3765   105.2233 </r>
       <r>     1.0402     3.7755   105.9998 </r>
       <r>     1.2459     2.7834   106.5723 </r>
       <r>     1.4516     3.0038   107.1901 </r>
       <r>     1.6572     4.3908   108.0931 </r>
       <r>     1.8629     3.3840   108.7891 </r>
       <r>     2.0686     3.6811   109.5462 </r>
       <r>     2.2743     7.6519   111.1200 </r>
       <r>     2.4799     7.9331   112.7516 </r>
       <r>     2.6856     7.9839   114.3937 </r>
       <r>     2.8913     6.9661   115.8264 </r>
       <r>     3.0970     9.4595   117.7720 </r>
       <r>     3.3026    14.3993   120.7335 </r>
       <r>     3.5083    21.0027   125.0532 </r>
       <r>     3.7140    21.1096   129.3948 </r>
       <r>     3.9196    24.3760   134.4083 </r>
       <r>     4.1253    31.0019   140.7845 </r>
       <r>     4.3310    32.3104   147.4299 </r>
       <r>     4.5367    38.9599   155.4428 </r>
       <r>     4.7423    35.8925   162.8249 </r>
       <r>     4.9480    33.5458   169.7244 </r>
       <r>     5.1537    34.0685   176.7313 </r>
       <r>     5.3593    29.9130   182.8836 </r>
       <r>     5.5650    15.1644   186.0025 </r>
       <r>     5.7707    41.5706   194.5524 </r>
       <r>     5.9764    62.4273   207.3920 </r>
       <r>     6.1820    56.9537   219.1057 </r>
       <r>     6.3877    56.3600   230.6974 </r>
       <r>     6.5934    54.4921   241.9049 </r>
       <r>     6.7991    57.2202   253.6735 </r>
       <r>     7.0047    50.8945   264.1411 </r>
       <r>     7.2104    45.9560   273.5930 </r>
       <r>     7.4161    49.5766   283.7895 </r>
       <r>     7.6217    45.0206   293.0490 </r>
       <r>     7.8274    34.8913   300.2252 </r>
       <r>     8.0331    29.1077   306.2118 </r>
       <r>     8.2388    22.2505   310.7881 </r>
       <r>     8.4444    18.8384   314.6627 </r>
       <r>     8.6501    10.2788   316.7767 </r>
       <r>     8.8558    11.7112   319.1854 </r>
       <r>     9.0614     4.1850   320.0461 </r>
       <r>     9.2671    -0.2176   320.0014 </r>
       <r>     9.4728    -0.0068   320.0000 </r>
       <r>     9.6785    -0.0000   320.0000 </r>
       <r>     9.8841    -0.0000   320.0000 </r>
       <r>    10.0898     0.0000   320.0000 </r>
       <r>    10.2955     0.0000   320.0000 </r>
       <r>    10.5012     0.0000   320.0000 </r>
       <r>    10.7068     0.0000   320.0000 </r>
       <r>    10.9125     0.0000   320.0000 </r>
       <r>    11.1182     0.0000   320.0000 </r>
       <r>    11.3238     0.0000   320.0000 </r>
       <r>    11.5295     0.0000   320.0000 </r>
       <r>    11.7352     0.0000   320.0000 </r>
      </set>
     </set>
    </array>
   </total>
  </dos>
 </calculation>
 <structure name="finalpos" >
  <crystal>
   <varray name="basis" >
    <v>       6.96391961      -0.01676422       0.00157175 </v>
    <v>      -0.02430787      10.25988928       0.02923048 </v>
    <v>       0.00284504       0.02875547      10.20212368 </v>
   </varray>
   <i name="volume">    728.92192662 </i>
   <varray name="rec_basis" >
    <v>       0.14359812       0.00034033      -0.00004100 </v>
    <v>       0.00023470       0.09746828      -0.00027479 </v>
    <v>      -0.00002280      -0.00027931       0.09801960 </v>
   </varray>
  </crystal>
  <varray name="positions" >
   <v>       0.23405328       0.17502486       0.50941101 </v>
   <v>       0.03592511       0.33219347       0.34107872 </v>
   <v>       0.01836941       0.33596952       0.66806591 </v>
   <v>       0.26016490       0.49632449       0.82825344 </v>
   <v>       0.25033297       0.82625751       0.14921444 </v>
   <v>       0.48606371       0.32778242       0.66699932 </v>
   <v>       0.48390658       0.32511722       0.99421895 </v>
   <v>       0.26220621       0.50057113       0.50910378 </v>
   <v>       0.48655765       0.66525486       0.31408004 </v>
   <v>       0.50473741       0.00019526      -0.00043581 </v>
   <v>       0.50165188       0.65522113       0.68171602 </v>
   <v>       0.76195638       0.49246036       0.17146505 </v>
   <v>       0.25163201       0.82828315       0.84303099 </v>
   <v>       0.72401164       0.82843828       0.49604407 </v>
   <v>       0.74737953       0.48803178       0.83314951 </v>
   <v>       0.22661447       0.50691509       0.15539338 </v>
   <v>       0.01688227       0.68070246       0.33880527 </v>
   <v>       0.76332707       0.17866547       0.49186981 </v>
   <v>       0.46262826       0.33635946       0.33284513 </v>
   <v>       0.01596053       0.99675879       0.33067550 </v>
   <v>       0.74504229       0.17927520       0.17471955 </v>
   <v>       0.51623746       0.66701881       0.00431447 </v>
   <v>       0.51159688       0.01274743       0.68070865 </v>
   <v>       0.74630900       0.82593351       0.83435218 </v>
   <v>       0.25650775       0.16609167       0.15901724 </v>
   <v>       0.97573162       0.67891627       0.00158979 </v>
   <v>       0.73988286       0.18322906       0.83383365 </v>
   <v>       0.74339904       0.83427433       0.17235308 </v>
   <v>       0.26207030       0.16780059       0.83038214 </v>
   <v>       0.74267328       0.49654689       0.49597549 </v>
   <v>       0.98901538       0.00007192       0.00124375 </v>
   <v>       0.01721546       0.31730275       0.98817635 </v>
   <v>       0.00314411       0.66106303       0.66300309 </v>
   <v>       0.47763607       0.00237697       0.32267404 </v>
   <v>       0.99222820       0.00578331       0.67161949 </v>
   <v>       0.28694204       0.82505055       0.51105153 </v>
  </varray>
 </structure>
</modeling>
