<?xml version="1.0" encoding="ISO-8859-1"?>
<modeling>
 <generator>
  <i name="program" type="string">vasp </i>
  <i name="version" type="string">5.4.1  </i>
  <i name="subversion" type="string">05Feb16 (build Jan 29 2020 16:04:39) complex                          parallel </i>
  <i name="platform" type="string">IFC91_ompi </i>
  <i name="date" type="string">2020 06 15 </i>
  <i name="time" type="string">10:15:44 </i>
 </generator>
 <incar>
  <i type="string" name="SYSTEM"> automatically generated by mexm</i>
  <i type="int" name="ISTART">     0</i>
  <i type="string" name="PREC">accurate               ! avoid wrap aro</i>
  <i type="string" name="ALGO"> Fast                   ! blocked Davids</i>
  <i type="int" name="ISPIN">     1</i>
  <i type="int" name="ICHARG">     2</i>
  <i type="int" name="NELM">    70</i>
  <i type="int" name="IBRION">     2</i>
  <i name="EDIFF">      0.00001000</i>
  <i name="EDIFFG">     -0.01000000</i>
  <i type="int" name="NSW">   300</i>
  <i type="int" name="ISIF">     3</i>
  <i type="int" name="ISYM">     1</i>
  <i name="ENCUT">    300.00000000</i>
  <i name="POTIM">      0.15000000</i>
  <i type="string" name="LREAL"> Auto                  ! unpublished met</i>
  <i type="int" name="ISMEAR">     1</i>
  <i name="SIGMA">      0.15000000</i>
  <i type="logical" name="LWAVE"> F  </i>
  <i type="logical" name="LCHARG"> F  </i>
  <i type="logical" name="LVTOT"> F  </i>
  <v type="int" name="KPOINT_BSE">    -1     0     0     0</v>
  <i type="int" name="NELM">    70</i>
 </incar>
 <kpoints>
  <generation param="Gamma">
   <v type="int" name="divisions">       3        3        3 </v>
   <v name="usershift">      0.00000000       0.00000000       0.00000000 </v>
   <v name="genvec1">      0.33333333      -0.00000000      -0.00000000 </v>
   <v name="genvec2">      0.00000000       0.33333333       0.00000000 </v>
   <v name="genvec3">      0.00000000       0.00000000       0.33333333 </v>
   <v name="shift">      0.00000000       0.00000000       0.00000000 </v>
  </generation>
  <varray name="kpointlist" >
   <v>       0.00000000       0.00000000       0.00000000 </v>
   <v>       0.33333333       0.00000000      -0.00000000 </v>
   <v>       0.00000000       0.33333333       0.00000000 </v>
   <v>       0.33333333       0.33333333      -0.00000000 </v>
   <v>      -0.33333333       0.33333333       0.00000000 </v>
   <v>       0.00000000       0.00000000       0.33333333 </v>
   <v>       0.33333333      -0.00000000       0.33333333 </v>
   <v>      -0.33333333      -0.00000000       0.33333333 </v>
   <v>       0.00000000       0.33333333       0.33333333 </v>
   <v>       0.33333333       0.33333333       0.33333333 </v>
   <v>      -0.33333333       0.33333333       0.33333333 </v>
   <v>      -0.00000000      -0.33333333       0.33333333 </v>
   <v>       0.33333333      -0.33333333       0.33333333 </v>
   <v>      -0.33333333      -0.33333333       0.33333333 </v>
  </varray>
  <varray name="weights" >
   <v>       0.03703704 </v>
   <v>       0.07407407 </v>
   <v>       0.07407407 </v>
   <v>       0.07407407 </v>
   <v>       0.07407407 </v>
   <v>       0.07407407 </v>
   <v>       0.07407407 </v>
   <v>       0.07407407 </v>
   <v>       0.07407407 </v>
   <v>       0.07407407 </v>
   <v>       0.07407407 </v>
   <v>       0.07407407 </v>
   <v>       0.07407407 </v>
   <v>       0.07407407 </v>
  </varray>
 </kpoints>
 <parameters>
  <separator name="general" >
   <i type="string" name="SYSTEM">automatically generated by mexm</i>
   <i type="logical" name="LCOMPAT"> F  </i>
  </separator>
  <separator name="electronic" >
   <i type="string" name="PREC">accura</i>
   <i name="ENMAX">    300.00000000</i>
   <i name="ENAUG">    461.25700000</i>
   <i name="EDIFF">      0.00001000</i>
   <i type="int" name="IALGO">    68</i>
   <i type="int" name="IWAVPR">    11</i>
   <i type="int" name="NBANDS">   180</i>
   <i name="NELECT">    296.00000000</i>
   <i type="int" name="TURBO">     0</i>
   <i type="int" name="IRESTART">     0</i>
   <i type="int" name="NREBOOT">     0</i>
   <i type="int" name="NMIN">     0</i>
   <i name="EREF">      0.00000000</i>
   <separator name="electronic smearing" >
    <i type="int" name="ISMEAR">     1</i>
    <i name="SIGMA">      0.15000000</i>
    <i name="KSPACING">      0.50000000</i>
    <i type="logical" name="KGAMMA"> T  </i>
   </separator>
   <separator name="electronic projectors" >
    <i type="logical" name="LREAL"> T  </i>
    <v name="ROPT">     -0.00025000     -0.00025000     -0.00025000     -0.00025000</v>
    <i type="int" name="LMAXPAW">  -100</i>
    <i type="int" name="LMAXMIX">     2</i>
    <i type="logical" name="NLSPLINE"> F  </i>
   </separator>
   <separator name="electronic startup" >
    <i type="int" name="ISTART">     0</i>
    <i type="int" name="ICHARG">     2</i>
    <i type="int" name="INIWAV">     1</i>
   </separator>
   <separator name="electronic spin" >
    <i type="int" name="ISPIN">     1</i>
    <i type="logical" name="LNONCOLLINEAR"> F  </i>
    <v name="MAGMOM">      1.00000000      1.00000000      1.00000000      1.00000000      1.00000000      1.00000000      1.00000000      1.00000000      1.00000000      1.00000000      1.00000000      1.00000000      1.00000000      1.00000000      1.00000000      1.00000000      1.00000000      1.00000000      1.00000000      1.00000000
      1.00000000      1.00000000      1.00000000      1.00000000      1.00000000      1.00000000      1.00000000      1.00000000      1.00000000      1.00000000      1.00000000      1.00000000      1.00000000      1.00000000      1.00000000      1.00000000</v>
    <i name="NUPDOWN">     -1.00000000</i>
    <i type="logical" name="LSORBIT"> F  </i>
    <v name="SAXIS">      0.00000000      0.00000000      1.00000000</v>
    <i type="logical" name="LSPIRAL"> F  </i>
    <v name="QSPIRAL">      0.00000000      0.00000000      0.00000000</v>
    <i type="logical" name="LZEROZ"> F  </i>
   </separator>
   <separator name="electronic exchange-correlation" >
    <i type="logical" name="LASPH"> F  </i>
    <i type="logical" name="LMETAGGA"> F  </i>
   </separator>
   <separator name="electronic convergence" >
    <i type="int" name="NELM">    70</i>
    <i type="int" name="NELMDL">    -5</i>
    <i type="int" name="NELMIN">     2</i>
    <i name="ENINI">    300.00000000</i>
    <separator name="electronic convergence detail" >
     <i type="logical" name="LDIAG"> T  </i>
     <i type="logical" name="LSUBROT"> F  </i>
     <i name="WEIMIN">      0.00100000</i>
     <i name="EBREAK">      0.00000001</i>
     <i name="DEPER">      0.30000000</i>
     <i type="int" name="NRMM">     4</i>
     <i name="TIME">      0.40000000</i>
    </separator>
   </separator>
   <separator name="electronic mixer" >
    <i name="AMIX">      0.40000000</i>
    <i name="BMIX">      1.00000000</i>
    <i name="AMIN">      0.10000000</i>
    <i name="AMIX_MAG">      1.60000000</i>
    <i name="BMIX_MAG">      1.00000000</i>
    <separator name="electronic mixer details" >
     <i type="int" name="IMIX">     4</i>
     <i type="logical" name="MIXFIRST"> F  </i>
     <i type="int" name="MAXMIX">   -45</i>
     <i name="WC">    100.00000000</i>
     <i type="int" name="INIMIX">     1</i>
     <i type="int" name="MIXPRE">     1</i>
     <i type="int" name="MREMOVE">     5</i>
    </separator>
   </separator>
   <separator name="electronic dipolcorrection" >
    <i type="logical" name="LDIPOL"> F  </i>
    <i type="logical" name="LMONO"> F  </i>
    <i type="int" name="IDIPOL">     0</i>
    <i name="EPSILON">      1.00000000</i>
    <v name="DIPOL">   -100.00000000   -100.00000000   -100.00000000</v>
    <i name="EFIELD">      0.00000000</i>
   </separator>
  </separator>
  <separator name="grids" >
   <i type="int" name="NGX">    40</i>
   <i type="int" name="NGY">    60</i>
   <i type="int" name="NGZ">    60</i>
   <i type="int" name="NGXF">    80</i>
   <i type="int" name="NGYF">   120</i>
   <i type="int" name="NGZF">   120</i>
   <i type="logical" name="ADDGRID"> F  </i>
  </separator>
  <separator name="ionic" >
   <i type="int" name="NSW">   300</i>
   <i type="int" name="IBRION">     2</i>
   <i type="int" name="ISIF">     3</i>
   <i name="PSTRESS">      0.00000000</i>
   <i name="EDIFFG">     -0.01000000</i>
   <i type="int" name="NFREE">     1</i>
   <i name="POTIM">      0.15000000</i>
   <i name="SMASS">     -3.00000000</i>
   <i name="SCALEE">      1.00000000</i>
  </separator>
  <separator name="ionic md" >
   <i name="TEBEG">      0.00010000</i>
   <i name="TEEND">      0.00010000</i>
   <i type="int" name="NBLOCK">     1</i>
   <i type="int" name="KBLOCK">   300</i>
   <i type="int" name="NPACO">   256</i>
   <i name="APACO">     16.00000000</i>
  </separator>
  <separator name="symmetry" >
   <i type="int" name="ISYM">     1</i>
   <i name="SYMPREC">      0.00001000</i>
  </separator>
  <separator name="dos" >
   <i type="logical" name="LORBIT"> F  </i>
   <v name="RWIGS">     -1.00000000     -1.00000000     -1.00000000     -1.00000000</v>
   <i type="int" name="NEDOS">   301</i>
   <i name="EMIN">     10.00000000</i>
   <i name="EMAX">    -10.00000000</i>
   <i name="EFERMI">      0.00000000</i>
  </separator>
  <separator name="writing" >
   <i type="int" name="NWRITE">     2</i>
   <i type="logical" name="LWAVE"> F  </i>
   <i type="logical" name="LCHARG"> F  </i>
   <i type="logical" name="LPARD"> F  </i>
   <i type="logical" name="LVTOT"> F  </i>
   <i type="logical" name="LVHAR"> F  </i>
   <i type="logical" name="LELF"> F  </i>
   <i type="logical" name="LOPTICS"> F  </i>
   <v name="STM">      0.00000000      0.00000000      0.00000000      0.00000000      0.00000000      0.00000000      0.00000000</v>
  </separator>
  <separator name="performance" >
   <i type="int" name="NPAR">     4</i>
   <i type="int" name="NSIM">     4</i>
   <i type="int" name="NBLK">    -1</i>
   <i type="logical" name="LPLANE"> T  </i>
   <i type="logical" name="LSCALAPACK"> T  </i>
   <i type="logical" name="LSCAAWARE"> F  </i>
   <i type="logical" name="LSCALU"> F  </i>
   <i type="logical" name="LASYNC"> F  </i>
   <i type="logical" name="LORBITALREAL"> F  </i>
  </separator>
  <separator name="miscellaneous" >
   <i type="int" name="IDIOT">     3</i>
   <i type="logical" name="LMUSIC"> F  </i>
   <v name="POMASS">    180.94800000    178.49000000     92.91000000     91.22400000</v>
   <v name="DARWINR">      0.00000000      0.00000000      0.00000000      0.00000000</v>
   <v name="DARWINV">      1.00000000      1.00000000      1.00000000      1.00000000</v>
   <i type="logical" name="LCORR"> T  </i>
  </separator>
  <i type="logical" name="GGA_COMPAT"> T  </i>
  <i type="logical" name="LBERRY"> F  </i>
  <i type="int" name="ICORELEVEL">     0</i>
  <i type="logical" name="LDAU"> F  </i>
  <i type="int" name="I_CONSTRAINED_M">     0</i>
  <separator name="electronic exchange-correlation" >
   <i type="string" name="GGA">--</i>
   <i type="int" name="VOSKOWN">     0</i>
   <i type="logical" name="LHFCALC"> F  </i>
   <i type="string" name="PRECFOCK"></i>
   <i type="logical" name="LSYMGRAD"> F  </i>
   <i type="logical" name="LHFONE"> F  </i>
   <i type="logical" name="LRHFCALC"> F  </i>
   <i type="logical" name="LTHOMAS"> F  </i>
   <i type="logical" name="LMODELHF"> F  </i>
   <i name="ENCUT4O">     -1.00000000</i>
   <i type="int" name="EXXOEP">     0</i>
   <i type="int" name="FOURORBIT">     0</i>
   <i name="AEXX">      0.00000000</i>
   <i name="HFALPHA">      0.00000000</i>
   <i name="MCALPHA">      0.00000000</i>
   <i name="ALDAX">      1.00000000</i>
   <i name="AGGAX">      1.00000000</i>
   <i name="ALDAC">      1.00000000</i>
   <i name="AGGAC">      1.00000000</i>
   <i type="int" name="NKREDX">     1</i>
   <i type="int" name="NKREDY">     1</i>
   <i type="int" name="NKREDZ">     1</i>
   <i type="logical" name="SHIFTRED"> F  </i>
   <i type="logical" name="ODDONLY"> F  </i>
   <i type="logical" name="EVENONLY"> F  </i>
   <i type="int" name="LMAXFOCK">     0</i>
   <i type="int" name="NMAXFOCKAE">     0</i>
   <i type="logical" name="LFOCKAEDFT"> F  </i>
   <i name="HFSCREEN">      0.00000000</i>
   <i name="HFSCREENC">      0.00000000</i>
   <i type="int" name="NBANDSGWLOW">     0</i>
  </separator>
  <separator name="vdW DFT" >
   <i type="logical" name="LUSE_VDW"> F  </i>
   <i name="Zab_VDW">     -0.84910000</i>
   <i name="PARAM1">      0.12340000</i>
   <i name="PARAM2">      1.00000000</i>
   <i name="PARAM3">      0.00000000</i>
  </separator>
  <separator name="model GW" >
   <i type="int" name="MODEL_GW">     0</i>
   <i name="MODEL_EPS0">     12.18147835</i>
   <i name="MODEL_ALPHA">      1.00000000</i>
  </separator>
  <separator name="linear response parameters" >
   <i type="logical" name="LEPSILON"> F  </i>
   <i type="logical" name="LRPA"> F  </i>
   <i type="logical" name="LNABLA"> F  </i>
   <i type="logical" name="LVEL"> F  </i>
   <i type="int" name="KINTER">     0</i>
   <i name="CSHIFT">      0.10000000</i>
   <i name="OMEGAMAX">     -1.00000000</i>
   <i name="DEG_THRESHOLD">      0.00200000</i>
  </separator>
  <separator name="orbital magnetization" >
   <i type="logical" name="NUCIND"> F  </i>
   <v name="MAGPOS">      0.00000000      0.00000000      0.00000000</v>
   <i type="logical" name="LNICSALL"> T  </i>
   <i type="logical" name="ORBITALMAG"> F  </i>
   <i type="logical" name="LMAGBLOCH"> F  </i>
   <i type="logical" name="LCHIMAG"> F  </i>
   <i type="logical" name="LGAUGE"> T  </i>
   <i type="int" name="MAGATOM">     0</i>
   <v name="MAGDIPOL">      0.00000000      0.00000000      0.00000000</v>
   <v name="AVECCONST">      0.00000000      0.00000000      0.00000000</v>
  </separator>
  <separator name="response functions" >
   <i type="logical" name="LADDER"> F  </i>
   <i type="logical" name="LFXC"> F  </i>
   <i type="logical" name="LHARTREE"> T  </i>
   <i type="int" name="IBSE">     0</i>
   <v type="int" name="KPOINT">    -1     0     0     0</v>
   <i type="logical" name="LTCTE"> F  </i>
   <i type="logical" name="LTETE"> F  </i>
   <i type="logical" name="LTRIPLET"> F  </i>
   <i type="logical" name="LFXCEPS"> F  </i>
   <i type="logical" name="LFXHEG"> F  </i>
   <i type="int" name="NATURALO">     0</i>
   <i type="logical" name="L2ORDER"> F  </i>
   <i type="logical" name="LUSEW"> F  </i>
   <i name="ENCUTGW">     -2.00000000</i>
   <i name="ENCUTGWSOFT">     -2.00000000</i>
   <i name="ENCUTLF">     -1.00000000</i>
   <i type="int" name="LMAXMP2">    -1</i>
   <i name="SCISSOR">      0.00000000</i>
   <i type="int" name="NOMEGA">     0</i>
   <i type="int" name="NOMEGAR">     0</i>
   <i type="int" name="NBANDSGW">    -1</i>
   <i type="int" name="NBANDSO">    -1</i>
   <i type="int" name="NBANDSV">    -1</i>
   <i type="int" name="NELM">    70</i>
   <i type="int" name="NELMHF">     1</i>
   <i type="int" name="DIM">     3</i>
   <i type="int" name="ANTIRES">     0</i>
   <i name="OMEGAMAX">    -30.00000000</i>
   <i name="OMEGAMIN">    -30.00000000</i>
   <i name="OMEGATL">   -200.00000000</i>
   <i type="int" name="OMEGAGRID">     0</i>
   <i name="CSHIFT">     -0.10000000</i>
   <i type="logical" name="SELFENERGY"> F  </i>
   <i type="logical" name="LSPECTRAL"> F  </i>
   <i type="logical" name="LSPECTRALGW"> F  </i>
   <i type="logical" name="LSINGLES"> F  </i>
   <i type="logical" name="LFERMIGW"> F  </i>
   <i type="logical" name="ODDONLYGW"> F  </i>
   <i type="logical" name="EVENONLYGW"> F  </i>
   <i type="int" name="NKREDLFX">     1</i>
   <i type="int" name="NKREDLFY">     1</i>
   <i type="int" name="NKREDLFZ">     1</i>
   <i type="int" name="MAXMEM">  1800</i>
   <i type="int" name="TELESCOPE">     0</i>
   <i type="int" name="TAUPAR">     1</i>
   <i type="int" name="OMEGAPAR">    -1</i>
   <i name="LAMBDA">      1.00000000</i>
  </separator>
  <separator name="External order field" >
   <i name="OFIELD_KAPPA">      0.00000000</i>
   <v name="OFIELD_K">      0.00000000      0.00000000      0.00000000</v>
   <i name="OFIELD_Q6_NEAR">      0.00000000</i>
   <i name="OFIELD_Q6_FAR">      0.00000000</i>
   <i name="OFIELD_A">      0.00000000</i>
  </separator>
 </parameters>
 <atominfo>
  <atoms>      36 </atoms>
  <types>       4 </types>
  <array name="atoms" >
   <dimension dim="1">ion</dimension>
   <field type="string">element</field>
   <field type="int">atomtype</field>
   <set>
    <rc><c>Ta</c><c>   1</c></rc>
    <rc><c>Ta</c><c>   1</c></rc>
    <rc><c>Ta</c><c>   1</c></rc>
    <rc><c>Ta</c><c>   1</c></rc>
    <rc><c>Ta</c><c>   1</c></rc>
    <rc><c>Ta</c><c>   1</c></rc>
    <rc><c>Ta</c><c>   1</c></rc>
    <rc><c>Ta</c><c>   1</c></rc>
    <rc><c>Ta</c><c>   1</c></rc>
    <rc><c>Ta</c><c>   1</c></rc>
    <rc><c>Hf</c><c>   2</c></rc>
    <rc><c>Hf</c><c>   2</c></rc>
    <rc><c>Hf</c><c>   2</c></rc>
    <rc><c>Hf</c><c>   2</c></rc>
    <rc><c>Hf</c><c>   2</c></rc>
    <rc><c>Hf</c><c>   2</c></rc>
    <rc><c>Hf</c><c>   2</c></rc>
    <rc><c>Hf</c><c>   2</c></rc>
    <rc><c>Hf</c><c>   2</c></rc>
    <rc><c>Nb</c><c>   3</c></rc>
    <rc><c>Nb</c><c>   3</c></rc>
    <rc><c>Nb</c><c>   3</c></rc>
    <rc><c>Nb</c><c>   3</c></rc>
    <rc><c>Nb</c><c>   3</c></rc>
    <rc><c>Nb</c><c>   3</c></rc>
    <rc><c>Zr</c><c>   4</c></rc>
    <rc><c>Zr</c><c>   4</c></rc>
    <rc><c>Zr</c><c>   4</c></rc>
    <rc><c>Zr</c><c>   4</c></rc>
    <rc><c>Zr</c><c>   4</c></rc>
    <rc><c>Zr</c><c>   4</c></rc>
    <rc><c>Zr</c><c>   4</c></rc>
    <rc><c>Zr</c><c>   4</c></rc>
    <rc><c>Zr</c><c>   4</c></rc>
    <rc><c>Zr</c><c>   4</c></rc>
    <rc><c>Zr</c><c>   4</c></rc>
   </set>
  </array>
  <array name="atomtypes" >
   <dimension dim="1">type</dimension>
   <field type="int">atomspertype</field>
   <field type="string">element</field>
   <field>mass</field>
   <field>valence</field>
   <field type="string">pseudopotential</field>
   <set>
    <rc><c>  10</c><c>Ta</c><c>    180.94800000</c><c>      5.00000000</c><c>  PAW_PBE Ta 17Jan2003                  </c></rc>
    <rc><c>   9</c><c>Hf</c><c>    178.49000000</c><c>      4.00000000</c><c>  PAW_PBE Hf 20Jan2003                  </c></rc>
    <rc><c>   6</c><c>Nb</c><c>     92.91000000</c><c>     13.00000000</c><c>  PAW_PBE Nb_sv 25May2007               </c></rc>
    <rc><c>  11</c><c>Zr</c><c>     91.22400000</c><c>     12.00000000</c><c>  PAW_PBE Zr_sv 04Jan2005               </c></rc>
   </set>
  </array>
 </atominfo>
 <structure name="initialpos" >
  <crystal>
   <varray name="basis" >
    <v>       7.00155201       0.00852003       0.00146656 </v>
    <v>       0.01301949      10.17406729      -0.01006641 </v>
    <v>       0.00152642      -0.01033079      10.26038001 </v>
   </varray>
   <i name="volume">    730.88870114 </i>
   <varray name="rec_basis" >
    <v>       0.14282570      -0.00018279      -0.00002143 </v>
    <v>      -0.00011963       0.09828936       0.00009898 </v>
    <v>      -0.00002053       0.00009646       0.09746238 </v>
   </varray>
  </crystal>
  <varray name="positions" >
   <v>       0.52522900       0.33141400       0.34053500 </v>
   <v>       0.73632000       0.83567600       0.15267800 </v>
   <v>       0.97914200       0.99458900       0.31527300 </v>
   <v>       0.25734400       0.84849100       0.15963900 </v>
   <v>       0.72840500       0.50015100       0.16617800 </v>
   <v>       0.75758500       0.15518900       0.49360200 </v>
   <v>       0.50146000       0.67013000       0.00392800 </v>
   <v>       0.48244700       0.65799200       0.67344300 </v>
   <v>       0.25111700       0.50357300       0.50873100 </v>
   <v>       0.01875100       0.65890600       0.68274400 </v>
   <v>       0.27854700       0.17198300       0.84135000 </v>
   <v>       0.99239700       0.00165600       0.99788000 </v>
   <v>       0.98462000       0.33277800       0.67329600 </v>
   <v>       0.99675900       0.01212800       0.68472400 </v>
   <v>       0.00806800       0.67189100       0.31677600 </v>
   <v>       0.51420800       0.99561900       0.33186000 </v>
   <v>       0.52155800       0.33396100       0.65600000 </v>
   <v>       0.96768900       0.32699700       0.99413900 </v>
   <v>       0.73239600       0.82771800       0.82972000 </v>
   <v>       0.73964300       0.16467800       0.16895500 </v>
   <v>       0.71819300       0.15677500       0.83463000 </v>
   <v>       0.26529800       0.83148300       0.83035200 </v>
   <v>       0.53851100       0.33212300       0.00087700 </v>
   <v>       0.74091200       0.51379900       0.83313600 </v>
   <v>       0.50206100       0.99343000       0.00382500 </v>
   <v>       0.50216500       0.00657200       0.66131800 </v>
   <v>       0.27186900       0.48067000       0.16000300 </v>
   <v>       0.98079800       0.33780500       0.33202800 </v>
   <v>       0.48735000       0.67254500       0.32535500 </v>
   <v>       0.24372700       0.17087100       0.49309800 </v>
   <v>       0.99905000       0.66678000       0.00461900 </v>
   <v>       0.75644300       0.52309300       0.50460200 </v>
   <v>       0.76009300       0.83196100       0.51028700 </v>
   <v>       0.26299000       0.49064500       0.84089200 </v>
   <v>       0.25675600       0.16510300       0.16531900 </v>
   <v>       0.24008000       0.83082900       0.50820800 </v>
  </varray>
 </structure>
 <calculation>
  <scstep>
   <time name="dav">    1.16    1.17</time>
   <time name="total">    1.30    1.48</time>
   <energy>
    <i name="alphaZ">   1521.86970807 </i>
    <i name="ewald"> -20084.78765574 </i>
    <i name="hartreedc">  -6242.80084311 </i>
    <i name="XCdc">   -253.20121957 </i>
    <i name="pawpsdc">  21452.18782682 </i>
    <i name="pawaedc"> -19860.47139516 </i>
    <i name="eentropy">      0.00300229 </i>
    <i name="bandstr">   -120.63487831 </i>
    <i name="atom">  25446.09552768 </i>
    <i name="e_fr_energy">   1858.26007297 </i>
    <i name="e_wo_entrp">   1858.25707069 </i>
    <i name="e_0_energy">   1858.25907221 </i>
   </energy>
  </scstep>
  <scstep>
   <time name="dav">    1.14    1.14</time>
   <time name="total">    1.14    1.22</time>
   <energy>
    <i name="e_fr_energy">    -74.56800835 </i>
    <i name="e_wo_entrp">    -74.57248362 </i>
    <i name="e_0_energy">    -74.56950010 </i>
   </energy>
  </scstep>
  <scstep>
   <time name="dav">    1.55    1.56</time>
   <time name="total">    1.55    1.59</time>
   <energy>
    <i name="e_fr_energy">   -338.24362908 </i>
    <i name="e_wo_entrp">   -338.23437335 </i>
    <i name="e_0_energy">   -338.24054384 </i>
   </energy>
  </scstep>
  <scstep>
   <time name="dav">    1.51    1.51</time>
   <time name="total">    1.51    1.53</time>
   <energy>
    <i name="e_fr_energy">   -370.70575165 </i>
    <i name="e_wo_entrp">   -370.71627382 </i>
    <i name="e_0_energy">   -370.70925904 </i>
   </energy>
  </scstep>
  <scstep>
   <time name="dav">    1.38    1.51</time>
   <time name="total">    1.42    1.56</time>
   <energy>
    <i name="e_fr_energy">   -373.95443586 </i>
    <i name="e_wo_entrp">   -373.96610894 </i>
    <i name="e_0_energy">   -373.95832689 </i>
   </energy>
  </scstep>
  <scstep>
   <time name="diag">    0.11    0.11</time>
   <time name="diis">    0.83    0.83</time>
   <time name="orth">    0.01    0.01</time>
   <time name="total">    1.03    1.05</time>
   <energy>
    <i name="e_fr_energy">   -364.11785784 </i>
    <i name="e_wo_entrp">   -364.13129788 </i>
    <i name="e_0_energy">   -364.12233785 </i>
   </energy>
  </scstep>
  <scstep>
   <time name="diag">    0.08    0.08</time>
   <time name="diis">    0.78    0.79</time>
   <time name="orth">    0.01    0.01</time>
   <time name="total">    0.97    1.25</time>
   <energy>
    <i name="e_fr_energy">   -367.65734062 </i>
    <i name="e_wo_entrp">   -367.67677032 </i>
    <i name="e_0_energy">   -367.66381719 </i>
   </energy>
  </scstep>
  <scstep>
   <time name="diag">    0.08    0.08</time>
   <time name="diis">    0.77    0.77</time>
   <time name="orth">    0.01    0.01</time>
   <time name="total">    0.93    0.95</time>
   <energy>
    <i name="e_fr_energy">   -359.79538419 </i>
    <i name="e_wo_entrp">   -359.82491888 </i>
    <i name="e_0_energy">   -359.80522908 </i>
   </energy>
  </scstep>
  <scstep>
   <time name="diag">    0.08    0.08</time>
   <time name="diis">    0.78    0.79</time>
   <time name="orth">    0.01    0.01</time>
   <time name="total">    0.95    0.97</time>
   <energy>
    <i name="e_fr_energy">   -359.33061762 </i>
    <i name="e_wo_entrp">   -359.35880512 </i>
    <i name="e_0_energy">   -359.34001345 </i>
   </energy>
  </scstep>
  <scstep>
   <time name="diag">    0.08    0.08</time>
   <time name="diis">    0.79    0.79</time>
   <time name="orth">    0.01    0.01</time>
   <time name="total">    0.95    0.98</time>
   <energy>
    <i name="e_fr_energy">   -359.31201989 </i>
    <i name="e_wo_entrp">   -359.34097623 </i>
    <i name="e_0_energy">   -359.32167200 </i>
   </energy>
  </scstep>
  <scstep>
   <time name="diag">    0.08    0.08</time>
   <time name="diis">    0.84    0.89</time>
   <time name="orth">    0.01    0.01</time>
   <time name="total">    1.00    1.07</time>
   <energy>
    <i name="e_fr_energy">   -359.28756264 </i>
    <i name="e_wo_entrp">   -359.31572289 </i>
    <i name="e_0_energy">   -359.29694939 </i>
   </energy>
  </scstep>
  <scstep>
   <time name="diag">    0.08    0.08</time>
   <time name="diis">    0.79    0.79</time>
   <time name="orth">    0.01    0.01</time>
   <time name="total">    0.94    0.97</time>
   <energy>
    <i name="e_fr_energy">   -359.27957530 </i>
    <i name="e_wo_entrp">   -359.30843308 </i>
    <i name="e_0_energy">   -359.28919456 </i>
   </energy>
  </scstep>
  <scstep>
   <time name="diag">    0.08    0.08</time>
   <time name="diis">    0.85    0.85</time>
   <time name="orth">    0.01    0.01</time>
   <time name="total">    1.01    1.03</time>
   <energy>
    <i name="e_fr_energy">   -359.27671301 </i>
    <i name="e_wo_entrp">   -359.30526870 </i>
    <i name="e_0_energy">   -359.28623157 </i>
   </energy>
  </scstep>
  <scstep>
   <time name="diag">    0.13    0.13</time>
   <time name="diis">    0.86    0.88</time>
   <time name="orth">    0.01    0.01</time>
   <time name="total">    1.08    1.13</time>
   <energy>
    <i name="e_fr_energy">   -359.27659067 </i>
    <i name="e_wo_entrp">   -359.30525566 </i>
    <i name="e_0_energy">   -359.28614567 </i>
   </energy>
  </scstep>
  <scstep>
   <time name="diag">    0.09    0.09</time>
   <time name="diis">    0.92    0.93</time>
   <time name="orth">    0.01    0.01</time>
   <time name="total">    1.09    1.12</time>
   <energy>
    <i name="e_fr_energy">   -359.27678719 </i>
    <i name="e_wo_entrp">   -359.30544011 </i>
    <i name="e_0_energy">   -359.28633816 </i>
   </energy>
  </scstep>
  <scstep>
   <time name="diag">    0.08    0.08</time>
   <time name="diis">    0.74    0.74</time>
   <time name="orth">    0.01    0.01</time>
   <time name="total">    0.90    0.92</time>
   <energy>
    <i name="e_fr_energy">   -359.27679252 </i>
    <i name="e_wo_entrp">   -359.30536368 </i>
    <i name="e_0_energy">   -359.28631624 </i>
   </energy>
  </scstep>
  <scstep>
   <time name="diag">    0.09    0.09</time>
   <time name="diis">    0.66    0.66</time>
   <time name="orth">    0.01    0.01</time>
   <time name="total">    0.83    0.85</time>
   <energy>
    <i name="e_fr_energy">   -359.27676540 </i>
    <i name="e_wo_entrp">   -359.30541819 </i>
    <i name="e_0_energy">   -359.28631633 </i>
   </energy>
  </scstep>
  <scstep>
   <time name="diag">    0.08    0.08</time>
   <time name="diis">    0.62    0.63</time>
   <time name="orth">    0.01    0.01</time>
   <time name="total">    0.79    0.84</time>
   <energy>
    <i name="e_fr_energy">   -359.27677498 </i>
    <i name="e_wo_entrp">   -359.30541995 </i>
    <i name="e_0_energy">   -359.28632331 </i>
   </energy>
  </scstep>
  <scstep>
   <time name="diag">    0.08    0.08</time>
   <time name="diis">    0.51    0.52</time>
   <time name="orth">    0.01    0.01</time>
   <time name="total">    0.67    0.69</time>
   <energy>
    <i name="e_fr_energy">   -359.27678289 </i>
    <i name="e_wo_entrp">   -359.30542691 </i>
    <i name="e_0_energy">   -359.28633089 </i>
   </energy>
  </scstep>
  <scstep>
   <time name="diag">    0.08    0.08</time>
   <time name="diis">    0.46    0.46</time>
   <time name="orth">    0.01    0.01</time>
   <time name="total">    0.58    0.60</time>
   <energy>
    <i name="alphaZ">   1521.86970807 </i>
    <i name="ewald"> -20084.78765574 </i>
    <i name="hartreedc">  -6004.38614316 </i>
    <i name="XCdc">   -253.56388108 </i>
    <i name="pawpsdc">  34879.19354347 </i>
    <i name="pawaedc"> -33269.28275606 </i>
    <i name="eentropy">      0.02865004 </i>
    <i name="bandstr">  -2594.44377737 </i>
    <i name="atom">  25446.09552768 </i>
    <i name="e_fr_energy">   -359.27678415 </i>
    <i name="e_wo_entrp">   -359.30543419 </i>
    <i name="e_0_energy">   -359.28633416 </i>
   </energy>
  </scstep>
  <structure>
   <crystal>
    <varray name="basis" >
     <v>       7.00155201       0.00852003       0.00146656 </v>
     <v>       0.01301949      10.17406729      -0.01006641 </v>
     <v>       0.00152642      -0.01033079      10.26038001 </v>
    </varray>
    <i name="volume">    730.88870114 </i>
    <varray name="rec_basis" >
     <v>       0.14282570      -0.00018279      -0.00002143 </v>
     <v>      -0.00011963       0.09828936       0.00009898 </v>
     <v>      -0.00002053       0.00009646       0.09746238 </v>
    </varray>
   </crystal>
   <varray name="positions" >
    <v>       0.52522900       0.33141400       0.34053500 </v>
    <v>       0.73632000       0.83567600       0.15267800 </v>
    <v>       0.97914200       0.99458900       0.31527300 </v>
    <v>       0.25734400       0.84849100       0.15963900 </v>
    <v>       0.72840500       0.50015100       0.16617800 </v>
    <v>       0.75758500       0.15518900       0.49360200 </v>
    <v>       0.50146000       0.67013000       0.00392800 </v>
    <v>       0.48244700       0.65799200       0.67344300 </v>
    <v>       0.25111700       0.50357300       0.50873100 </v>
    <v>       0.01875100       0.65890600       0.68274400 </v>
    <v>       0.27854700       0.17198300       0.84135000 </v>
    <v>       0.99239700       0.00165600       0.99788000 </v>
    <v>       0.98462000       0.33277800       0.67329600 </v>
    <v>       0.99675900       0.01212800       0.68472400 </v>
    <v>       0.00806800       0.67189100       0.31677600 </v>
    <v>       0.51420800       0.99561900       0.33186000 </v>
    <v>       0.52155800       0.33396100       0.65600000 </v>
    <v>       0.96768900       0.32699700       0.99413900 </v>
    <v>       0.73239600       0.82771800       0.82972000 </v>
    <v>       0.73964300       0.16467800       0.16895500 </v>
    <v>       0.71819300       0.15677500       0.83463000 </v>
    <v>       0.26529800       0.83148300       0.83035200 </v>
    <v>       0.53851100       0.33212300       0.00087700 </v>
    <v>       0.74091200       0.51379900       0.83313600 </v>
    <v>       0.50206100       0.99343000       0.00382500 </v>
    <v>       0.50216500       0.00657200       0.66131800 </v>
    <v>       0.27186900       0.48067000       0.16000300 </v>
    <v>       0.98079800       0.33780500       0.33202800 </v>
    <v>       0.48735000       0.67254500       0.32535500 </v>
    <v>       0.24372700       0.17087100       0.49309800 </v>
    <v>       0.99905000       0.66678000       0.00461900 </v>
    <v>       0.75644300       0.52309300       0.50460200 </v>
    <v>       0.76009300       0.83196100       0.51028700 </v>
    <v>       0.26299000       0.49064500       0.84089200 </v>
    <v>       0.25675600       0.16510300       0.16531900 </v>
    <v>       0.24008000       0.83082900       0.50820800 </v>
   </varray>
  </structure>
  <varray name="forces" >
   <v>      -0.00857570      -0.02702882       0.02377909 </v>
   <v>       0.02734837      -0.01414422       0.03237542 </v>
   <v>      -0.00017322       0.02118662       0.01769335 </v>
   <v>      -0.03421241      -0.00846059      -0.00683502 </v>
   <v>      -0.00363585      -0.00640746       0.00409174 </v>
   <v>       0.46581048       0.26770826      -0.45342246 </v>
   <v>       0.00232882       0.02713078       0.01296279 </v>
   <v>      -0.00216853      -0.02503759      -0.00082406 </v>
   <v>      -0.02563036      -0.02159015      -0.02287696 </v>
   <v>       0.01050197       0.01299780      -0.00171707 </v>
   <v>      -0.16986126       0.31939373       0.33030156 </v>
   <v>      -0.00370152       0.01259695      -0.00686715 </v>
   <v>      -0.01048681      -0.05369910      -0.01588836 </v>
   <v>       0.02552309      -0.04404917      -0.05904998 </v>
   <v>      -0.00620646       0.00901322      -0.00986241 </v>
   <v>      -0.00892887       0.00791026      -0.15895865 </v>
   <v>      -0.01807548       0.14726606       0.03580152 </v>
   <v>       0.01768402      -0.03249823      -0.02763503 </v>
   <v>       0.18028640      -0.30466677       0.23655653 </v>
   <v>       0.03122445       0.00855410       0.03082963 </v>
   <v>       0.18173980       0.32461031       0.49192717 </v>
   <v>      -0.19052179      -0.30203293       0.24143817 </v>
   <v>       0.00743168      -0.04664455      -0.02704038 </v>
   <v>       0.03014960       0.01676208       0.00223144 </v>
   <v>       0.00479713       0.00078397       0.04181756 </v>
   <v>      -0.17457580      -0.09688588      -0.18306846 </v>
   <v>      -0.00204211      -0.00874242       0.00326225 </v>
   <v>      -0.00477661      -0.01887997       0.01838898 </v>
   <v>       0.00899197       0.04328855       0.03725227 </v>
   <v>      -0.29485480       0.24517387      -0.25183432 </v>
   <v>       0.00684500       0.02173754      -0.01746905 </v>
   <v>       0.00955413       0.01042140       0.00271731 </v>
   <v>       0.27485293      -0.25372682      -0.18690714 </v>
   <v>      -0.01130689       0.00271461       0.01179500 </v>
   <v>      -0.03548938       0.01326864       0.00282194 </v>
   <v>      -0.27984598      -0.24802408      -0.14778722 </v>
  </varray>
  <varray name="stress" >
   <v>       8.76376870       0.18528092       0.01423615 </v>
   <v>       0.18528094       7.17433981      -0.42535527 </v>
   <v>       0.01423614      -0.42535529       8.60254417 </v>
  </varray>
  <energy>
   <i name="e_fr_energy">   -359.27678415 </i>
   <i name="e_wo_entrp">   -359.28633416 </i>
   <i name="e_0_energy">      0.02865004 </i>
  </energy>
  <time name="totalsc">   23.64   24.95</time>
 </calculation>
 <calculation>
  <scstep>
   <time name="dav">    1.11    1.12</time>
   <time name="total">    1.24    1.34</time>
   <energy>
    <i name="alphaZ">   1515.04083169 </i>
    <i name="ewald"> -20055.42126592 </i>
    <i name="hartreedc">  -5994.75629362 </i>
    <i name="XCdc">   -254.88346173 </i>
    <i name="pawpsdc">  34879.27384362 </i>
    <i name="pawaedc"> -33269.36132574 </i>
    <i name="eentropy">      0.02960294 </i>
    <i name="bandstr">  -2625.37112131 </i>
    <i name="atom">  25446.09552768 </i>
    <i name="e_fr_energy">   -359.35366239 </i>
    <i name="e_wo_entrp">   -359.38326532 </i>
    <i name="e_0_energy">   -359.36353003 </i>
   </energy>
  </scstep>
  <scstep>
   <time name="diag">    0.09    0.09</time>
   <time name="diis">    0.72    0.72</time>
   <time name="orth">    0.01    0.01</time>
   <time name="total">    0.99    1.02</time>
   <energy>
    <i name="e_fr_energy">   -359.33173332 </i>
    <i name="e_wo_entrp">   -359.36250500 </i>
    <i name="e_0_energy">   -359.34199055 </i>
   </energy>
  </scstep>
  <scstep>
   <time name="diag">    0.08    0.08</time>
   <time name="diis">    0.85    0.85</time>
   <time name="orth">    0.01    0.01</time>
   <time name="total">    1.01    1.02</time>
   <energy>
    <i name="e_fr_energy">   -359.32496241 </i>
    <i name="e_wo_entrp">   -359.35509693 </i>
    <i name="e_0_energy">   -359.33500725 </i>
   </energy>
  </scstep>
  <scstep>
   <time name="diag">    0.08    0.08</time>
   <time name="diis">    0.92    0.94</time>
   <time name="orth">    0.01    0.01</time>
   <time name="total">    1.10    1.14</time>
   <energy>
    <i name="e_fr_energy">   -359.31793923 </i>
    <i name="e_wo_entrp">   -359.34784108 </i>
    <i name="e_0_energy">   -359.32790651 </i>
   </energy>
  </scstep>
  <scstep>
   <time name="diag">    0.08    0.08</time>
   <time name="diis">    0.84    0.84</time>
   <time name="orth">    0.02    0.02</time>
   <time name="total">    1.04    1.07</time>
   <energy>
    <i name="e_fr_energy">   -359.31712341 </i>
    <i name="e_wo_entrp">   -359.34744479 </i>
    <i name="e_0_energy">   -359.32723054 </i>
   </energy>
  </scstep>
  <scstep>
   <time name="diag">    0.10    0.10</time>
   <time name="diis">    0.85    0.86</time>
   <time name="orth">    0.01    0.01</time>
   <time name="total">    1.04    1.06</time>
   <energy>
    <i name="e_fr_energy">   -359.31718354 </i>
    <i name="e_wo_entrp">   -359.34735144 </i>
    <i name="e_0_energy">   -359.32723951 </i>
   </energy>
  </scstep>
  <scstep>
   <time name="diag">    0.08    0.08</time>
   <time name="diis">    0.79    0.79</time>
   <time name="orth">    0.01    0.01</time>
   <time name="total">    0.96    1.00</time>
   <energy>
    <i name="e_fr_energy">   -359.31719247 </i>
    <i name="e_wo_entrp">   -359.34735360 </i>
    <i name="e_0_energy">   -359.32724618 </i>
   </energy>
  </scstep>
  <scstep>
   <time name="diag">    0.08    0.08</time>
   <time name="diis">    0.81    0.82</time>
   <time name="orth">    0.01    0.01</time>
   <time name="total">    0.99    1.02</time>
   <energy>
    <i name="e_fr_energy">   -359.31721865 </i>
    <i name="e_wo_entrp">   -359.34739738 </i>
    <i name="e_0_energy">   -359.32727823 </i>
   </energy>
  </scstep>
  <scstep>
   <time name="diag">    0.08    0.08</time>
   <time name="diis">    0.67    0.67</time>
   <time name="orth">    0.01    0.01</time>
   <time name="total">    0.83    0.85</time>
   <energy>
    <i name="e_fr_energy">   -359.31724212 </i>
    <i name="e_wo_entrp">   -359.34742347 </i>
    <i name="e_0_energy">   -359.32730257 </i>
   </energy>
  </scstep>
  <scstep>
   <time name="diag">    0.08    0.08</time>
   <time name="diis">    0.56    0.57</time>
   <time name="orth">    0.01    0.01</time>
   <time name="total">    0.72    0.74</time>
   <energy>
    <i name="e_fr_energy">   -359.31725654 </i>
    <i name="e_wo_entrp">   -359.34742677 </i>
    <i name="e_0_energy">   -359.32731329 </i>
   </energy>
  </scstep>
  <scstep>
   <time name="diag">    0.08    0.08</time>
   <time name="diis">    0.47    0.47</time>
   <time name="orth">    0.01    0.01</time>
   <time name="total">    0.62    0.64</time>
   <energy>
    <i name="alphaZ">   1515.04083169 </i>
    <i name="ewald"> -20055.42126592 </i>
    <i name="hartreedc">  -6012.71793020 </i>
    <i name="XCdc">   -254.09504616 </i>
    <i name="pawpsdc">  34658.82571076 </i>
    <i name="pawaedc"> -33049.15741325 </i>
    <i name="eentropy">      0.03017622 </i>
    <i name="bandstr">  -2607.91784735 </i>
    <i name="atom">  25446.09552768 </i>
    <i name="e_fr_energy">   -359.31725653 </i>
    <i name="e_wo_entrp">   -359.34743275 </i>
    <i name="e_0_energy">   -359.32731527 </i>
   </energy>
  </scstep>
  <structure>
   <crystal>
    <varray name="basis" >
     <v>       7.01280550       0.00876904       0.00148649 </v>
     <v>       0.01338610      10.18745502      -0.01087592 </v>
     <v>       0.00155531      -0.01114473      10.27656837 </v>
    </varray>
    <i name="volume">    734.18309987 </i>
    <varray name="rec_basis" >
     <v>       0.14259652      -0.00018739      -0.00002178 </v>
     <v>      -0.00012277       0.09816022       0.00010647 </v>
     <v>      -0.00002076       0.00010391       0.09730886 </v>
    </varray>
   </crystal>
   <varray name="positions" >
    <v>       0.52521134       0.33137560       0.34056851 </v>
    <v>       0.73637656       0.83565588       0.15272364 </v>
    <v>       0.97914158       0.99461916       0.31529799 </v>
    <v>       0.25727330       0.84847901       0.15962936 </v>
    <v>       0.72839750       0.50014190       0.16618376 </v>
    <v>       0.75854730       0.15556836       0.49296266 </v>
    <v>       0.50146474       0.67016861       0.00394632 </v>
    <v>       0.48244258       0.65795639       0.67344180 </v>
    <v>       0.25106408       0.50354230       0.50869871 </v>
    <v>       0.01877267       0.65892447       0.68274159 </v>
    <v>       0.27819493       0.17243811       0.84181640 </v>
    <v>       0.99238932       0.00167392       0.99787033 </v>
    <v>       0.98459847       0.33270161       0.67327352 </v>
    <v>       0.99681189       0.01206521       0.68464064 </v>
    <v>       0.00805515       0.67190382       0.31676210 </v>
    <v>       0.51418957       0.99563004       0.33163579 </v>
    <v>       0.52152024       0.33417057       0.65605071 </v>
    <v>       0.96772565       0.32695070       0.99409997 </v>
    <v>       0.73276940       0.82728463       0.83005320 </v>
    <v>       0.73970751       0.16469016       0.16899849 </v>
    <v>       0.71856766       0.15723716       0.83532429 </v>
    <v>       0.26490490       0.83105403       0.83069220 </v>
    <v>       0.53852649       0.33205660       0.00083879 </v>
    <v>       0.74097428       0.51382280       0.83313916 </v>
    <v>       0.50207090       0.99343117       0.00388399 </v>
    <v>       0.50180445       0.00643422       0.66105969 </v>
    <v>       0.27186480       0.48065757       0.16000759 </v>
    <v>       0.98078817       0.33777818       0.33205391 </v>
    <v>       0.48736846       0.67260662       0.32540760 </v>
    <v>       0.24311694       0.17121991       0.49274320 </v>
    <v>       0.99906410       0.66681089       0.00459439 </v>
    <v>       0.75646272       0.52310781       0.50460584 </v>
    <v>       0.76066187       0.83159932       0.51002292 </v>
    <v>       0.26296662       0.49064890       0.84090864 </v>
    <v>       0.25668260       0.16512194       0.16532301 </v>
    <v>       0.23950224       0.83047645       0.50799928 </v>
   </varray>
  </structure>
  <varray name="forces" >
   <v>       0.00785386      -0.01619617       0.01342931 </v>
   <v>       0.01429953      -0.00641715       0.02089572 </v>
   <v>      -0.01450368       0.01992630      -0.00099660 </v>
   <v>      -0.01965458       0.00440567      -0.00702265 </v>
   <v>      -0.02741867      -0.01626448      -0.00046885 </v>
   <v>       0.42962909       0.22859281      -0.41631427 </v>
   <v>       0.00884496       0.01927878       0.02451830 </v>
   <v>      -0.01282462      -0.02762636       0.00884152 </v>
   <v>      -0.01149712      -0.01375706      -0.00860401 </v>
   <v>       0.01986554      -0.00347900       0.00513664 </v>
   <v>      -0.12475624       0.28127671       0.28801898 </v>
   <v>      -0.00673598       0.00698360       0.00049053 </v>
   <v>      -0.01638160      -0.04458976      -0.00846369 </v>
   <v>       0.01781217      -0.03124504      -0.04483160 </v>
   <v>      -0.00463396      -0.00127949      -0.03270432 </v>
   <v>       0.00990583       0.00844250      -0.13420251 </v>
   <v>      -0.00861173       0.11661131       0.03401380 </v>
   <v>       0.00289971      -0.01661407      -0.01039248 </v>
   <v>       0.14747290      -0.26824092       0.20312338 </v>
   <v>       0.02002636       0.00754684       0.03001183 </v>
   <v>       0.13192691       0.27715975       0.43181639 </v>
   <v>      -0.16019642      -0.27841812       0.20823857 </v>
   <v>       0.02342882      -0.02927021      -0.00808462 </v>
   <v>       0.02183453       0.02379382      -0.00270138 </v>
   <v>       0.00789425      -0.00520590       0.04372425 </v>
   <v>      -0.14686283      -0.07474954      -0.15100984 </v>
   <v>       0.01850685      -0.01061236       0.00088823 </v>
   <v>      -0.01537477       0.00074884      -0.00267358 </v>
   <v>       0.00962547       0.03870330       0.01988729 </v>
   <v>      -0.28027744       0.22357912      -0.22975442 </v>
   <v>       0.00230455       0.01451251      -0.00266425 </v>
   <v>       0.00409375       0.00848019       0.01182650 </v>
   <v>       0.24771267      -0.21901528      -0.16270819 </v>
   <v>      -0.00735287       0.01077809       0.00315133 </v>
   <v>      -0.02631619       0.00193158       0.00185733 </v>
   <v>      -0.26253903      -0.22977082      -0.12627263 </v>
  </varray>
  <varray name="stress" >
   <v>       2.67039292       0.13628017       0.03473342 </v>
   <v>       0.13628020       1.32579825      -0.44554026 </v>
   <v>       0.03473341      -0.44554026       2.62243872 </v>
  </varray>
  <energy>
   <i name="e_fr_energy">   -359.31725653 </i>
   <i name="e_wo_entrp">   -359.32731527 </i>
   <i name="e_0_energy">      0.03017622 </i>
  </energy>
  <time name="totalsc">   12.12   12.56</time>
 </calculation>
 <calculation>
  <scstep>
   <time name="dav">    1.01    1.01</time>
   <time name="total">    1.13    1.22</time>
   <energy>
    <i name="alphaZ">   1498.62084884 </i>
    <i name="ewald"> -19983.48022358 </i>
    <i name="hartreedc">  -5990.15951160 </i>
    <i name="XCdc">   -257.28680096 </i>
    <i name="pawpsdc">  34658.62772117 </i>
    <i name="pawaedc"> -33049.05151245 </i>
    <i name="eentropy">      0.03174749 </i>
    <i name="bandstr">  -2682.96310798 </i>
    <i name="atom">  25446.09552768 </i>
    <i name="e_fr_energy">   -359.56531137 </i>
    <i name="e_wo_entrp">   -359.59705886 </i>
    <i name="e_0_energy">   -359.57589387 </i>
   </energy>
  </scstep>
  <scstep>
   <time name="diag">    0.08    0.08</time>
   <time name="diis">    0.72    0.73</time>
   <time name="orth">    0.01    0.01</time>
   <time name="total">    0.88    0.90</time>
   <energy>
    <i name="e_fr_energy">   -359.43529619 </i>
    <i name="e_wo_entrp">   -359.46919612 </i>
    <i name="e_0_energy">   -359.44659617 </i>
   </energy>
  </scstep>
  <scstep>
   <time name="diag">    0.08    0.08</time>
   <time name="diis">    0.79    0.79</time>
   <time name="orth">    0.01    0.01</time>
   <time name="total">    0.94    0.99</time>
   <energy>
    <i name="e_fr_energy">   -359.39222542 </i>
    <i name="e_wo_entrp">   -359.42518975 </i>
    <i name="e_0_energy">   -359.40321353 </i>
   </energy>
  </scstep>
  <scstep>
   <time name="diag">    0.08    0.08</time>
   <time name="diis">    0.85    0.89</time>
   <time name="orth">    0.01    0.01</time>
   <time name="total">    1.01    1.08</time>
   <energy>
    <i name="e_fr_energy">   -359.35228941 </i>
    <i name="e_wo_entrp">   -359.38469779 </i>
    <i name="e_0_energy">   -359.36309220 </i>
   </energy>
  </scstep>
  <scstep>
   <time name="diag">    0.08    0.08</time>
   <time name="diis">    0.78    0.78</time>
   <time name="orth">    0.01    0.01</time>
   <time name="total">    0.95    0.98</time>
   <energy>
    <i name="e_fr_energy">   -359.34706778 </i>
    <i name="e_wo_entrp">   -359.38045972 </i>
    <i name="e_0_energy">   -359.35819843 </i>
   </energy>
  </scstep>
  <scstep>
   <time name="diag">    0.08    0.08</time>
   <time name="diis">    0.92    0.93</time>
   <time name="orth">    0.01    0.01</time>
   <time name="total">    1.07    1.12</time>
   <energy>
    <i name="e_fr_energy">   -359.34764660 </i>
    <i name="e_wo_entrp">   -359.38071299 </i>
    <i name="e_0_energy">   -359.35866873 </i>
   </energy>
  </scstep>
  <scstep>
   <time name="diag">    0.08    0.08</time>
   <time name="diis">    0.87    0.88</time>
   <time name="orth">    0.01    0.01</time>
   <time name="total">    1.03    1.06</time>
   <energy>
    <i name="e_fr_energy">   -359.34786157 </i>
    <i name="e_wo_entrp">   -359.38092966 </i>
    <i name="e_0_energy">   -359.35888427 </i>
   </energy>
  </scstep>
  <scstep>
   <time name="diag">    0.08    0.08</time>
   <time name="diis">    0.88    0.89</time>
   <time name="orth">    0.01    0.01</time>
   <time name="total">    1.04    1.07</time>
   <energy>
    <i name="e_fr_energy">   -359.34808462 </i>
    <i name="e_wo_entrp">   -359.38117591 </i>
    <i name="e_0_energy">   -359.35911505 </i>
   </energy>
  </scstep>
  <scstep>
   <time name="diag">    0.08    0.09</time>
   <time name="diis">    0.82    0.82</time>
   <time name="orth">    0.01    0.01</time>
   <time name="total">    0.99    1.04</time>
   <energy>
    <i name="e_fr_energy">   -359.34826364 </i>
    <i name="e_wo_entrp">   -359.38135797 </i>
    <i name="e_0_energy">   -359.35929508 </i>
   </energy>
  </scstep>
  <scstep>
   <time name="diag">    0.08    0.08</time>
   <time name="diis">    0.77    0.77</time>
   <time name="orth">    0.01    0.01</time>
   <time name="total">    0.93    0.95</time>
   <energy>
    <i name="e_fr_energy">   -359.34841939 </i>
    <i name="e_wo_entrp">   -359.38148855 </i>
    <i name="e_0_energy">   -359.35944244 </i>
   </energy>
  </scstep>
  <scstep>
   <time name="diag">    0.08    0.08</time>
   <time name="diis">    0.66    0.67</time>
   <time name="orth">    0.01    0.01</time>
   <time name="total">    0.84    1.15</time>
   <energy>
    <i name="e_fr_energy">   -359.34846271 </i>
    <i name="e_wo_entrp">   -359.38154515 </i>
    <i name="e_0_energy">   -359.35949019 </i>
   </energy>
  </scstep>
  <scstep>
   <time name="diag">    0.08    0.08</time>
   <time name="diis">    0.63    0.63</time>
   <time name="orth">    0.01    0.01</time>
   <time name="total">    0.78    0.82</time>
   <energy>
    <i name="e_fr_energy">   -359.34847124 </i>
    <i name="e_wo_entrp">   -359.38155141 </i>
    <i name="e_0_energy">   -359.35949797 </i>
   </energy>
  </scstep>
  <scstep>
   <time name="diag">    0.08    0.08</time>
   <time name="diis">    0.53    0.53</time>
   <time name="orth">    0.01    0.01</time>
   <time name="total">    0.67    0.70</time>
   <energy>
    <i name="alphaZ">   1498.62084884 </i>
    <i name="ewald"> -19983.48022358 </i>
    <i name="hartreedc">  -6033.39825440 </i>
    <i name="XCdc">   -255.39011383 </i>
    <i name="pawpsdc">  34138.39070601 </i>
    <i name="pawaedc"> -32529.85310305 </i>
    <i name="eentropy">      0.03305819 </i>
    <i name="bandstr">  -2640.36691650 </i>
    <i name="atom">  25446.09552768 </i>
    <i name="e_fr_energy">   -359.34847064 </i>
    <i name="e_wo_entrp">   -359.38152883 </i>
    <i name="e_0_energy">   -359.35949004 </i>
   </energy>
  </scstep>
  <structure>
   <crystal>
    <varray name="basis" >
     <v>       7.04014414       0.00937397       0.00153491 </v>
     <v>       0.01427673      10.21997848      -0.01284251 </v>
     <v>       0.00162550      -0.01312207      10.31589552 </v>
    </varray>
    <i name="volume">    742.22734529 </i>
    <varray name="rec_basis" >
     <v>       0.14204282      -0.00019845      -0.00002263 </v>
     <v>      -0.00013031       0.09784790       0.00012449 </v>
     <v>      -0.00002130       0.00012184       0.09693794 </v>
    </varray>
   </crystal>
   <varray name="positions" >
    <v>       0.52516850       0.33128244       0.34064977 </v>
    <v>       0.73651374       0.83560707       0.15283433 </v>
    <v>       0.97914056       0.99469235       0.31535860 </v>
    <v>       0.25710184       0.84844994       0.15960597 </v>
    <v>       0.72837931       0.50011981       0.16619774 </v>
    <v>       0.76088128       0.15648859       0.49141199 </v>
    <v>       0.50147623       0.67026228       0.00399077 </v>
    <v>       0.48243188       0.65786998       0.67343889 </v>
    <v>       0.25093574       0.50346781       0.50862038 </v>
    <v>       0.01882524       0.65896928       0.68273576 </v>
    <v>       0.27734096       0.17354239       0.84294777 </v>
    <v>       0.99237068       0.00171738       0.99784689 </v>
    <v>       0.98454626       0.33251626       0.67321897 </v>
    <v>       0.99694019       0.01191285       0.68443843 </v>
    <v>       0.00802398       0.67193491       0.31672840 </v>
    <v>       0.51414488       0.99565678       0.33109198 </v>
    <v>       0.52142861       0.33467904       0.65617375 </v>
    <v>       0.96781455       0.32683836       0.99400529 </v>
    <v>       0.73367511       0.82623325       0.83086129 </v>
    <v>       0.73986398       0.16471966       0.16910398 </v>
    <v>       0.71947632       0.15835853       0.83700839 </v>
    <v>       0.26395150       0.83001336       0.83151727 </v>
    <v>       0.53856408       0.33189548       0.00074610 </v>
    <v>       0.74112532       0.51388052       0.83314684 </v>
    <v>       0.50209491       0.99343401       0.00402706 </v>
    <v>       0.50092997       0.00609991       0.66043313 </v>
    <v>       0.27185462       0.48062742       0.16001872 </v>
    <v>       0.98076433       0.33771311       0.33211676 </v>
    <v>       0.48741323       0.67275612       0.32553521 </v>
    <v>       0.24163723       0.17206640       0.49188271 </v>
    <v>       0.99909829       0.66688581       0.00453469 </v>
    <v>       0.75651055       0.52314375       0.50461517 </v>
    <v>       0.76204170       0.83072176       0.50938232 </v>
    <v>       0.26290990       0.49065836       0.84094902 </v>
    <v>       0.25650458       0.16516790       0.16533274 </v>
    <v>       0.23810094       0.82962111       0.50749294 </v>
   </varray>
  </structure>
  <varray name="forces" >
   <v>       0.04561001       0.00886302      -0.01198760 </v>
   <v>      -0.01715581       0.01194819      -0.00720189 </v>
   <v>      -0.04573526       0.01651166      -0.04382425 </v>
   <v>       0.01394924       0.03433013      -0.00746758 </v>
   <v>      -0.08237612      -0.03917148      -0.01169700 </v>
   <v>       0.34542329       0.13775385      -0.32925974 </v>
   <v>       0.02403735       0.00194878       0.05103183 </v>
   <v>      -0.03576215      -0.03362985       0.03213654 </v>
   <v>       0.02299411       0.00357069       0.02363520 </v>
   <v>       0.03997223      -0.04116934       0.02158165 </v>
   <v>      -0.01964490       0.19331304       0.18946981 </v>
   <v>      -0.01430029      -0.00707052       0.01774732 </v>
   <v>      -0.02899360      -0.02487636       0.00772441 </v>
   <v>       0.00233444      -0.00349555      -0.01578628 </v>
   <v>      -0.00220406      -0.02376142      -0.08685246 </v>
   <v>       0.05076218       0.01108446      -0.07779879 </v>
   <v>       0.01073386       0.04794495       0.02954778 </v>
   <v>      -0.03117942       0.02179274       0.03154124 </v>
   <v>       0.07256377      -0.18569231       0.12691047 </v>
   <v>      -0.00769829       0.00362305       0.02680807 </v>
   <v>       0.01296265       0.16534039       0.29542463 </v>
   <v>      -0.08842696      -0.22392956       0.13148509 </v>
   <v>       0.05847777       0.01129492       0.03696215 </v>
   <v>       0.00168064       0.04140937      -0.01356581 </v>
   <v>       0.01664792      -0.01758971       0.04999712 </v>
   <v>      -0.08294004      -0.02553985      -0.07438651 </v>
   <v>       0.06950605      -0.01529445      -0.00547736 </v>
   <v>      -0.04059261       0.04798048      -0.05512864 </v>
   <v>       0.01267131       0.02665099      -0.02132944 </v>
   <v>      -0.24647877       0.17193431      -0.17737355 </v>
   <v>      -0.00980887      -0.00234099       0.03212512 </v>
   <v>      -0.00993903       0.00497619       0.03275816 </v>
   <v>       0.18331206      -0.13711297      -0.10468517 </v>
   <v>       0.00244330       0.02937354      -0.01589749 </v>
   <v>      -0.00200493      -0.02513415      -0.00205185 </v>
   <v>      -0.22084105      -0.18583624      -0.07511518 </v>
  </varray>
  <varray name="stress" >
   <v>     -12.05113461       0.02028325       0.03852581 </v>
   <v>       0.02028322     -12.79697883      -0.47702840 </v>
   <v>       0.03852583      -0.47702843     -11.86464117 </v>
  </varray>
  <energy>
   <i name="e_fr_energy">   -359.34847064 </i>
   <i name="e_wo_entrp">   -359.35949004 </i>
   <i name="e_0_energy">      0.03305819 </i>
  </energy>
  <time name="totalsc">   13.85   14.72</time>
 </calculation>
 <calculation>
  <scstep>
   <time name="dav">    0.98    0.99</time>
   <time name="total">    1.10    1.18</time>
   <energy>
    <i name="alphaZ">   1500.03438378 </i>
    <i name="ewald"> -19989.05957144 </i>
    <i name="hartreedc">  -6035.94550459 </i>
    <i name="XCdc">   -255.11248017 </i>
    <i name="pawpsdc">  34137.53933513 </i>
    <i name="pawaedc"> -32529.03732101 </i>
    <i name="eentropy">      0.03397200 </i>
    <i name="bandstr">  -2633.92058563 </i>
    <i name="atom">  25446.09552768 </i>
    <i name="e_fr_energy">   -359.37224423 </i>
    <i name="e_wo_entrp">   -359.40621623 </i>
    <i name="e_0_energy">   -359.38356823 </i>
   </energy>
  </scstep>
  <scstep>
   <time name="diag">    0.13    0.13</time>
   <time name="diis">    0.75    0.75</time>
   <time name="orth">    0.01    0.01</time>
   <time name="total">    0.96    0.98</time>
   <energy>
    <i name="e_fr_energy">   -359.37934438 </i>
    <i name="e_wo_entrp">   -359.41244300 </i>
    <i name="e_0_energy">   -359.39037725 </i>
   </energy>
  </scstep>
  <scstep>
   <time name="diag">    0.08    0.08</time>
   <time name="diis">    0.80    0.83</time>
   <time name="orth">    0.01    0.01</time>
   <time name="total">    0.96    1.00</time>
   <energy>
    <i name="e_fr_energy">   -359.37642424 </i>
    <i name="e_wo_entrp">   -359.41018123 </i>
    <i name="e_0_energy">   -359.38767657 </i>
   </energy>
  </scstep>
  <scstep>
   <time name="diag">    0.08    0.08</time>
   <time name="diis">    0.88    0.88</time>
   <time name="orth">    0.01    0.01</time>
   <time name="total">    1.03    1.06</time>
   <energy>
    <i name="e_fr_energy">   -359.37582996 </i>
    <i name="e_wo_entrp">   -359.40945178 </i>
    <i name="e_0_energy">   -359.38703723 </i>
   </energy>
  </scstep>
  <scstep>
   <time name="diag">    0.08    0.08</time>
   <time name="diis">    0.79    0.80</time>
   <time name="orth">    0.01    0.01</time>
   <time name="total">    0.95    0.98</time>
   <energy>
    <i name="e_fr_energy">   -359.37574172 </i>
    <i name="e_wo_entrp">   -359.40929386 </i>
    <i name="e_0_energy">   -359.38692577 </i>
   </energy>
  </scstep>
  <scstep>
   <time name="diag">    0.13    0.13</time>
   <time name="diis">    0.81    0.83</time>
   <time name="orth">    0.01    0.01</time>
   <time name="total">    1.02    1.05</time>
   <energy>
    <i name="e_fr_energy">   -359.37575497 </i>
    <i name="e_wo_entrp">   -359.40935192 </i>
    <i name="e_0_energy">   -359.38695395 </i>
   </energy>
  </scstep>
  <scstep>
   <time name="diag">    0.08    0.08</time>
   <time name="diis">    0.79    0.80</time>
   <time name="orth">    0.01    0.01</time>
   <time name="total">    0.99    1.02</time>
   <energy>
    <i name="e_fr_energy">   -359.37575790 </i>
    <i name="e_wo_entrp">   -359.40932307 </i>
    <i name="e_0_energy">   -359.38694629 </i>
   </energy>
  </scstep>
  <scstep>
   <time name="diag">    0.09    0.09</time>
   <time name="diis">    0.51    0.51</time>
   <time name="orth">    0.01    0.01</time>
   <time name="total">    0.67    0.70</time>
   <energy>
    <i name="e_fr_energy">   -359.37576829 </i>
    <i name="e_wo_entrp">   -359.40934728 </i>
    <i name="e_0_energy">   -359.38696128 </i>
   </energy>
  </scstep>
  <scstep>
   <time name="diag">    0.16    0.16</time>
   <time name="diis">    0.46    0.47</time>
   <time name="orth">    0.02    0.02</time>
   <time name="total">    0.70    0.72</time>
   <energy>
    <i name="alphaZ">   1500.03438378 </i>
    <i name="ewald"> -19989.05957144 </i>
    <i name="hartreedc">  -6031.95376875 </i>
    <i name="XCdc">   -255.28526488 </i>
    <i name="pawpsdc">  34175.39311920 </i>
    <i name="pawaedc"> -32566.99731174 </i>
    <i name="eentropy">      0.03356979 </i>
    <i name="bandstr">  -2637.63645659 </i>
    <i name="atom">  25446.09552768 </i>
    <i name="e_fr_energy">   -359.37577294 </i>
    <i name="e_wo_entrp">   -359.40934273 </i>
    <i name="e_0_energy">   -359.38696287 </i>
   </energy>
  </scstep>
  <structure>
   <crystal>
    <varray name="basis" >
     <v>       7.03870340       0.00957945       0.00158204 </v>
     <v>       0.01457953      10.21453749      -0.01408962 </v>
     <v>       0.00169598      -0.01437660      10.31377921 </v>
    </varray>
    <i name="volume">    741.52791846 </i>
    <varray name="rec_basis" >
     <v>       0.14207190      -0.00020282      -0.00002364 </v>
     <v>      -0.00013327       0.09790006       0.00013649 </v>
     <v>      -0.00002197       0.00013377       0.09695786 </v>
    </varray>
   </crystal>
   <varray name="positions" >
    <v>       0.52521702       0.33125995       0.34066539 </v>
    <v>       0.73653549       0.83560225       0.15286419 </v>
    <v>       0.97907734       0.99473221       0.31533757 </v>
    <v>       0.25706426       0.84847280       0.15959126 </v>
    <v>       0.72826016       0.50007551       0.16619136 </v>
    <v>       0.76212743       0.15692248       0.49059061 </v>
    <v>       0.50151304       0.67029515       0.00405333 </v>
    <v>       0.48237925       0.65780964       0.67346804 </v>
    <v>       0.25092491       0.50344655       0.50861665 </v>
    <v>       0.01889763       0.65894510       0.68275402 </v>
    <v>       0.27703117       0.17409109       0.84349984 </v>
    <v>       0.99234487       0.00172511       0.99785578 </v>
    <v>       0.98448920       0.33243144       0.67320814 </v>
    <v>       0.99698583       0.01185910       0.68435675 </v>
    <v>       0.00801071       0.67192260       0.31663576 </v>
    <v>       0.51419986       0.99567594       0.33083921 </v>
    <v>       0.52141296       0.33489268       0.65624223 </v>
    <v>       0.96780104       0.32682190       0.99400360 </v>
    <v>       0.73407464       0.82570971       0.83124720 </v>
    <v>       0.73990511       0.16473290       0.16916401 </v>
    <v>       0.71979410       0.15888648       0.83784255 </v>
    <v>       0.26351521       0.82945740       0.83191308 </v>
    <v>       0.53865686       0.33185284       0.00075012 </v>
    <v>       0.74117749       0.51393881       0.83313670 </v>
    <v>       0.50212576       0.99341834       0.00412123 </v>
    <v>       0.50052696       0.00596512       0.66015616 </v>
    <v>       0.27194681       0.48060287       0.16001723 </v>
    <v>       0.98070058       0.33773700       0.33208589 </v>
    <v>       0.48744539       0.67283078       0.32555743 </v>
    <v>       0.24080895       0.17250931       0.49143214 </v>
    <v>       0.99909610       0.66690843       0.00454510 </v>
    <v>       0.75651268       0.52316040       0.50464899 </v>
    <v>       0.76275014       0.83030119       0.50907208 </v>
    <v>       0.26289446       0.49068928       0.84094749 </v>
    <v>       0.25644302       0.16515931       0.16533400 </v>
    <v>       0.23733455       0.82916237       0.50725486 </v>
   </varray>
  </structure>
  <varray name="forces" >
   <v>       0.03881091       0.02084677      -0.01730371 </v>
   <v>      -0.01723624       0.01150365      -0.00969635 </v>
   <v>      -0.03789624       0.01481633      -0.04664278 </v>
   <v>       0.01815292       0.03407807      -0.00538714 </v>
   <v>      -0.07983394      -0.03443955      -0.00835661 </v>
   <v>       0.30537091       0.10116741      -0.26955995 </v>
   <v>       0.01503163      -0.01190703       0.05333541 </v>
   <v>      -0.03104259      -0.02572424       0.03156510 </v>
   <v>       0.03410639      -0.00191574       0.02004663 </v>
   <v>       0.03493829      -0.05100731       0.02380918 </v>
   <v>       0.00688256       0.15237922       0.14098724 </v>
   <v>      -0.01200268      -0.00893226       0.01758445 </v>
   <v>      -0.02534278      -0.01691921       0.01435807 </v>
   <v>       0.00385778       0.00375693      -0.00934592 </v>
   <v>      -0.00321303      -0.04038535      -0.10057002 </v>
   <v>       0.04786261       0.01497665      -0.04137723 </v>
   <v>       0.01072959       0.01858816       0.02710137 </v>
   <v>      -0.01945254       0.03961276       0.04968884 </v>
   <v>       0.05036638      -0.13906726       0.08835685 </v>
   <v>      -0.01102165      -0.00028417       0.01721447 </v>
   <v>      -0.01723798       0.11267387       0.21957021 </v>
   <v>      -0.06730446      -0.18237147       0.10162980 </v>
   <v>       0.04284294       0.02814356       0.05334786 </v>
   <v>       0.00302230       0.03398480      -0.01615344 </v>
   <v>       0.01466539      -0.01000128       0.04218899 </v>
   <v>      -0.06345296      -0.01429510      -0.04640729 </v>
   <v>       0.06888948      -0.01632392      -0.00217334 </v>
   <v>      -0.03012257       0.07320410      -0.07939118 </v>
   <v>       0.01400551       0.01983846      -0.02115693 </v>
   <v>      -0.22985447       0.14408822      -0.14809145 </v>
   <v>      -0.00549926      -0.01517751       0.04688205 </v>
   <v>      -0.01437184       0.00060567       0.03246938 </v>
   <v>       0.14903909      -0.10407306      -0.08064357 </v>
   <v>      -0.00275770       0.02971512      -0.01686657 </v>
   <v>       0.00211542      -0.02622354      -0.00276673 </v>
   <v>      -0.19304719      -0.15493173      -0.05824567 </v>
  </varray>
  <varray name="stress" >
   <v>     -11.00935117      -0.05157819       0.04702130 </v>
   <v>      -0.05157817     -11.37098605      -0.45378597 </v>
   <v>       0.04702129      -0.45378595     -10.67682013 </v>
  </varray>
  <energy>
   <i name="e_fr_energy">   -359.37577294 </i>
   <i name="e_wo_entrp">   -359.38696287 </i>
   <i name="e_0_energy">      0.03356979 </i>
  </energy>
  <time name="totalsc">   10.01   10.39</time>
 </calculation>
 <calculation>
  <scstep>
   <time name="dav">    1.04    1.05</time>
   <time name="total">    1.15    1.30</time>
   <energy>
    <i name="alphaZ">   1504.28660514 </i>
    <i name="ewald"> -20003.81409343 </i>
    <i name="hartreedc">  -6041.44865028 </i>
    <i name="XCdc">   -254.43988352 </i>
    <i name="pawpsdc">  34175.62635802 </i>
    <i name="pawaedc"> -32567.20739224 </i>
    <i name="eentropy">      0.03549504 </i>
    <i name="bandstr">  -2618.52627709 </i>
    <i name="atom">  25446.09552768 </i>
    <i name="e_fr_energy">   -359.39231067 </i>
    <i name="e_wo_entrp">   -359.42780572 </i>
    <i name="e_0_energy">   -359.40414236 </i>
   </energy>
  </scstep>
  <scstep>
   <time name="diag">    0.09    0.09</time>
   <time name="diis">    0.80    0.82</time>
   <time name="orth">    0.01    0.01</time>
   <time name="total">    0.97    1.01</time>
   <energy>
    <i name="e_fr_energy">   -359.45808643 </i>
    <i name="e_wo_entrp">   -359.49037540 </i>
    <i name="e_0_energy">   -359.46884942 </i>
   </energy>
  </scstep>
  <scstep>
   <time name="diag">    0.08    0.08</time>
   <time name="diis">    0.78    0.78</time>
   <time name="orth">    0.01    0.01</time>
   <time name="total">    0.93    0.97</time>
   <energy>
    <i name="e_fr_energy">   -359.42924738 </i>
    <i name="e_wo_entrp">   -359.46390694 </i>
    <i name="e_0_energy">   -359.44080056 </i>
   </energy>
  </scstep>
  <scstep>
   <time name="diag">    0.08    0.08</time>
   <time name="diis">    0.83    0.83</time>
   <time name="orth">    0.01    0.01</time>
   <time name="total">    1.00    1.14</time>
   <energy>
    <i name="e_fr_energy">   -359.42449643 </i>
    <i name="e_wo_entrp">   -359.45866553 </i>
    <i name="e_0_energy">   -359.43588613 </i>
   </energy>
  </scstep>
  <scstep>
   <time name="diag">    0.08    0.08</time>
   <time name="diis">    0.90    0.90</time>
   <time name="orth">    0.01    0.01</time>
   <time name="total">    1.07    1.09</time>
   <energy>
    <i name="e_fr_energy">   -359.42373207 </i>
    <i name="e_wo_entrp">   -359.45771925 </i>
    <i name="e_0_energy">   -359.43506113 </i>
   </energy>
  </scstep>
  <scstep>
   <time name="diag">    0.09    0.09</time>
   <time name="diis">    0.85    0.85</time>
   <time name="orth">    0.01    0.01</time>
   <time name="total">    1.01    1.04</time>
   <energy>
    <i name="e_fr_energy">   -359.42383252 </i>
    <i name="e_wo_entrp">   -359.45793361 </i>
    <i name="e_0_energy">   -359.43519955 </i>
   </energy>
  </scstep>
  <scstep>
   <time name="diag">    0.08    0.08</time>
   <time name="diis">    0.87    0.87</time>
   <time name="orth">    0.01    0.01</time>
   <time name="total">    1.03    1.05</time>
   <energy>
    <i name="e_fr_energy">   -359.42383849 </i>
    <i name="e_wo_entrp">   -359.45785531 </i>
    <i name="e_0_energy">   -359.43517743 </i>
   </energy>
  </scstep>
  <scstep>
   <time name="diag">    0.08    0.08</time>
   <time name="diis">    0.76    0.76</time>
   <time name="orth">    0.01    0.01</time>
   <time name="total">    0.91    0.94</time>
   <energy>
    <i name="e_fr_energy">   -359.42391863 </i>
    <i name="e_wo_entrp">   -359.45798778 </i>
    <i name="e_0_energy">   -359.43527501 </i>
   </energy>
  </scstep>
  <scstep>
   <time name="diag">    0.08    0.08</time>
   <time name="diis">    0.72    0.73</time>
   <time name="orth">    0.03    0.03</time>
   <time name="total">    0.91    0.94</time>
   <energy>
    <i name="e_fr_energy">   -359.42393391 </i>
    <i name="e_wo_entrp">   -359.45795920 </i>
    <i name="e_0_energy">   -359.43527567 </i>
   </energy>
  </scstep>
  <scstep>
   <time name="diag">    0.09    0.11</time>
   <time name="diis">    0.58    0.64</time>
   <time name="orth">    0.01    0.01</time>
   <time name="total">    0.76    0.85</time>
   <energy>
    <i name="e_fr_energy">   -359.42394681 </i>
    <i name="e_wo_entrp">   -359.45798764 </i>
    <i name="e_0_energy">   -359.43529375 </i>
   </energy>
  </scstep>
  <scstep>
   <time name="diag">    0.13    0.13</time>
   <time name="diis">    0.56    0.56</time>
   <time name="orth">    0.01    0.01</time>
   <time name="total">    0.74    0.77</time>
   <energy>
    <i name="alphaZ">   1504.28660514 </i>
    <i name="ewald"> -20003.81409343 </i>
    <i name="hartreedc">  -6030.19686426 </i>
    <i name="XCdc">   -254.93230948 </i>
    <i name="pawpsdc">  34309.11556731 </i>
    <i name="pawaedc"> -32700.46752624 </i>
    <i name="eentropy">      0.03403331 </i>
    <i name="bandstr">  -2629.54489215 </i>
    <i name="atom">  25446.09552768 </i>
    <i name="e_fr_energy">   -359.42395212 </i>
    <i name="e_wo_entrp">   -359.45798543 </i>
    <i name="e_0_energy">   -359.43529656 </i>
   </energy>
  </scstep>
  <structure>
   <crystal>
    <varray name="basis" >
     <v>       7.03438115       0.01019588       0.00172343 </v>
     <v>       0.01548792      10.19821452      -0.01783094 </v>
     <v>       0.00190741      -0.01814021      10.30743028 </v>
    </varray>
    <i name="volume">    739.43181468 </i>
    <varray name="rec_basis" >
     <v>       0.14215924      -0.00021594      -0.00002669 </v>
     <v>      -0.00014217       0.09805690       0.00017260 </v>
     <v>      -0.00002402       0.00016967       0.09701769 </v>
    </varray>
   </crystal>
   <varray name="positions" >
    <v>       0.52536260       0.33119243       0.34071225 </v>
    <v>       0.73660077       0.83558779       0.15295378 </v>
    <v>       0.97888762       0.99485183       0.31527447 </v>
    <v>       0.25695150       0.84854140       0.15954716 </v>
    <v>       0.72790262       0.49994254       0.16617220 </v>
    <v>       0.76586660       0.15822447       0.48812609 </v>
    <v>       0.50162351       0.67039383       0.00424108 </v>
    <v>       0.48222133       0.65762853       0.67355547 </v>
    <v>       0.25089240       0.50338271       0.50860544 </v>
    <v>       0.01911485       0.65887252       0.68280880 </v>
    <v>       0.27610154       0.17573829       0.84515661 </v>
    <v>       0.99226743       0.00174829       0.99788246 </v>
    <v>       0.98431801       0.33217682       0.67317564 </v>
    <v>       0.99712279       0.01169773       0.68411165 </v>
    <v>       0.00797090       0.67188561       0.31635779 </v>
    <v>       0.51436487       0.99573332       0.33008076 </v>
    <v>       0.52136595       0.33553397       0.65644780 </v>
    <v>       0.96776050       0.32677248       0.99399851 </v>
    <v>       0.73527354       0.82413835       0.83240499 </v>
    <v>       0.74002853       0.16477265       0.16934414 </v>
    <v>       0.72074756       0.16047149       0.84034575 </v>
    <v>       0.26220614       0.82778880       0.83310056 </v>
    <v>       0.53893525       0.33172483       0.00076215 </v>
    <v>       0.74133402       0.51411375       0.83310631 </v>
    <v>       0.50221830       0.99337135       0.00440381 </v>
    <v>       0.49931769       0.00556046       0.65932506 </v>
    <v>       0.27222346       0.48052918       0.16001274 </v>
    <v>       0.98050929       0.33780870       0.33199328 </v>
    <v>       0.48754189       0.67305488       0.32562413 </v>
    <v>       0.23832355       0.17383860       0.49008034 </v>
    <v>       0.99908954       0.66697633       0.00457631 </v>
    <v>       0.75651908       0.52321039       0.50475048 </v>
    <v>       0.76487596       0.82903867       0.50814099 </v>
    <v>       0.26284811       0.49078210       0.84094291 </v>
    <v>       0.25625830       0.16513353       0.16533780 </v>
    <v>       0.23503499       0.82778538       0.50654030 </v>
   </varray>
  </structure>
  <varray name="forces" >
   <v>       0.01766390       0.05843439      -0.03315468 </v>
   <v>      -0.01841267       0.01047102      -0.01896331 </v>
   <v>      -0.00886134       0.00563826      -0.05734018 </v>
   <v>       0.03216716       0.03266815      -0.00027480 </v>
   <v>      -0.07230553      -0.02007676       0.00174985 </v>
   <v>       0.17303094      -0.00868617      -0.07966293 </v>
   <v>      -0.01395344      -0.05359934       0.05970968 </v>
   <v>      -0.01630487      -0.00158742       0.02967236 </v>
   <v>       0.06797963      -0.01999526       0.00763355 </v>
   <v>       0.01976418      -0.08231202       0.03124722 </v>
   <v>       0.08627181       0.02940411      -0.00451653 </v>
   <v>      -0.00316146      -0.01682976       0.01474643 </v>
   <v>      -0.01356236       0.00577762       0.03480357 </v>
   <v>       0.00754239       0.02160428       0.00517126 </v>
   <v>      -0.00533142      -0.09255311      -0.14526819 </v>
   <v>       0.03539416       0.02873171       0.06858851 </v>
   <v>       0.00824687      -0.06941923       0.02131842 </v>
   <v>       0.01739555       0.09999302       0.10586496 </v>
   <v>      -0.01487068       0.00139972      -0.02692072 </v>
   <v>      -0.02166224      -0.01495108      -0.01401795 </v>
   <v>      -0.10151586      -0.04329150      -0.00028913 </v>
   <v>      -0.00417083      -0.05827020       0.01717428 </v>
   <v>      -0.00943291       0.08256639       0.10462485 </v>
   <v>       0.00765328       0.01133389      -0.02603390 </v>
   <v>       0.00638619       0.01296280       0.01795902 </v>
   <v>      -0.00789281       0.01512091       0.03405218 </v>
   <v>       0.06724663      -0.02032217       0.00626216 </v>
   <v>       0.00479774       0.15507141      -0.15991899 </v>
   <v>       0.01822620       0.00035952      -0.01887887 </v>
   <v>      -0.17178450       0.05827919      -0.05989462 </v>
   <v>       0.00860731      -0.05579459       0.09143585 </v>
   <v>      -0.02839653      -0.01327174       0.03084027 </v>
   <v>       0.04394405      -0.00242391      -0.00696461 </v>
   <v>      -0.01908713       0.03065999      -0.01819619 </v>
   <v>       0.01704757      -0.02887488      -0.00494415 </v>
   <v>      -0.10865896      -0.05821726      -0.00761465 </v>
  </varray>
  <varray name="stress" >
   <v>      -7.13564462      -0.25428326       0.01754978 </v>
   <v>      -0.25428323      -6.34275212      -0.40342186 </v>
   <v>       0.01754977      -0.40342185      -6.37140512 </v>
  </varray>
  <energy>
   <i name="e_fr_energy">   -359.42395212 </i>
   <i name="e_wo_entrp">   -359.43529656 </i>
   <i name="e_0_energy">      0.03403331 </i>
  </energy>
  <time name="totalsc">   12.07   12.79</time>
 </calculation>
 <calculation>
  <scstep>
   <time name="dav">    0.96    0.97</time>
   <time name="total">    1.10    1.19</time>
   <energy>
    <i name="alphaZ">   1506.14511591 </i>
    <i name="ewald"> -20009.31488537 </i>
    <i name="hartreedc">  -6035.22296619 </i>
    <i name="XCdc">   -254.55775507 </i>
    <i name="pawpsdc">  34309.81191363 </i>
    <i name="pawaedc"> -32701.13302994 </i>
    <i name="eentropy">      0.03445314 </i>
    <i name="bandstr">  -2621.28095494 </i>
    <i name="atom">  25446.09552768 </i>
    <i name="e_fr_energy">   -359.42258114 </i>
    <i name="e_wo_entrp">   -359.45703428 </i>
    <i name="e_0_energy">   -359.43406552 </i>
   </energy>
  </scstep>
  <scstep>
   <time name="diag">    0.11    0.11</time>
   <time name="diis">    0.78    0.79</time>
   <time name="orth">    0.01    0.01</time>
   <time name="total">    1.00    1.06</time>
   <energy>
    <i name="e_fr_energy">   -359.43459416 </i>
    <i name="e_wo_entrp">   -359.46760205 </i>
    <i name="e_0_energy">   -359.44559679 </i>
   </energy>
  </scstep>
  <scstep>
   <time name="diag">    0.11    0.11</time>
   <time name="diis">    0.83    0.84</time>
   <time name="orth">    0.01    0.01</time>
   <time name="total">    1.02    1.05</time>
   <energy>
    <i name="e_fr_energy">   -359.42978435 </i>
    <i name="e_wo_entrp">   -359.46386110 </i>
    <i name="e_0_energy">   -359.44114327 </i>
   </energy>
  </scstep>
  <scstep>
   <time name="diag">    0.12    0.12</time>
   <time name="diis">    0.84    0.84</time>
   <time name="orth">    0.01    0.01</time>
   <time name="total">    1.04    1.08</time>
   <energy>
    <i name="e_fr_energy">   -359.42884483 </i>
    <i name="e_wo_entrp">   -359.46269019 </i>
    <i name="e_0_energy">   -359.44012662 </i>
   </energy>
  </scstep>
  <scstep>
   <time name="diag">    0.08    0.08</time>
   <time name="diis">    0.80    0.80</time>
   <time name="orth">    0.01    0.01</time>
   <time name="total">    0.96    0.99</time>
   <energy>
    <i name="e_fr_energy">   -359.42872318 </i>
    <i name="e_wo_entrp">   -359.46248827 </i>
    <i name="e_0_energy">   -359.43997821 </i>
   </energy>
  </scstep>
  <scstep>
   <time name="diag">    0.08    0.08</time>
   <time name="diis">    0.82    0.82</time>
   <time name="orth">    0.01    0.01</time>
   <time name="total">    0.99    1.02</time>
   <energy>
    <i name="e_fr_energy">   -359.42874809 </i>
    <i name="e_wo_entrp">   -359.46256790 </i>
    <i name="e_0_energy">   -359.44002136 </i>
   </energy>
  </scstep>
  <scstep>
   <time name="diag">    0.08    0.08</time>
   <time name="diis">    0.74    0.74</time>
   <time name="orth">    0.01    0.01</time>
   <time name="total">    0.90    0.95</time>
   <energy>
    <i name="e_fr_energy">   -359.42875803 </i>
    <i name="e_wo_entrp">   -359.46254242 </i>
    <i name="e_0_energy">   -359.44001949 </i>
   </energy>
  </scstep>
  <scstep>
   <time name="diag">    0.08    0.08</time>
   <time name="diis">    0.64    0.65</time>
   <time name="orth">    0.01    0.01</time>
   <time name="total">    0.81    0.85</time>
   <energy>
    <i name="e_fr_energy">   -359.42877632 </i>
    <i name="e_wo_entrp">   -359.46258477 </i>
    <i name="e_0_energy">   -359.44004581 </i>
   </energy>
  </scstep>
  <scstep>
[...]
       <r>    6.8256    1.0000 </r>
       <r>    6.8560    1.0000 </r>
       <r>    6.9427    1.0000 </r>
       <r>    6.9748    1.0000 </r>
       <r>    6.9975    1.0000 </r>
       <r>    7.0422    1.0001 </r>
       <r>    7.0863    1.0005 </r>
       <r>    7.1279    1.0016 </r>
       <r>    7.1563    1.0035 </r>
       <r>    7.1927    1.0082 </r>
       <r>    7.2171    1.0134 </r>
       <r>    7.2614    1.0262 </r>
       <r>    7.2863    1.0329 </r>
       <r>    7.3219    1.0339 </r>
       <r>    7.3556    1.0122 </r>
       <r>    7.4101    0.8921 </r>
       <r>    7.4529    0.7089 </r>
       <r>    7.4737    0.5984 </r>
       <r>    7.4952    0.4781 </r>
       <r>    7.5405    0.2385 </r>
       <r>    7.5863    0.0657 </r>
       <r>    7.6259   -0.0110 </r>
       <r>    7.6594   -0.0335 </r>
       <r>    7.7101   -0.0295 </r>
       <r>    7.7273   -0.0243 </r>
       <r>    7.7587   -0.0151 </r>
       <r>    7.7832   -0.0095 </r>
       <r>    7.8258   -0.0036 </r>
       <r>    7.8569   -0.0015 </r>
       <r>    7.8746   -0.0009 </r>
       <r>    7.9264   -0.0002 </r>
       <r>    7.9914   -0.0000 </r>
       <r>    8.0244   -0.0000 </r>
       <r>    8.0936   -0.0000 </r>
       <r>    8.1176   -0.0000 </r>
       <r>    8.1644   -0.0000 </r>
       <r>    8.2149   -0.0000 </r>
       <r>    8.2886   -0.0000 </r>
       <r>    8.3263   -0.0000 </r>
       <r>    8.3875   -0.0000 </r>
       <r>    8.4307   -0.0000 </r>
       <r>    8.6717   -0.0000 </r>
       <r>    8.7369   -0.0000 </r>
       <r>    8.7815   -0.0000 </r>
       <r>    9.2701   -0.0000 </r>
       <r>    9.4220   -0.0000 </r>
       <r>    9.4507   -0.0000 </r>
       <r>    9.5134   -0.0000 </r>
       <r>    9.5415   -0.0000 </r>
      </set>
     </set>
    </set>
   </array>
  </eigenvalues>
  <separator name="orbital magnetization" >
   <v name="MAGDIPOLOUT">      0.00000000      0.00000000      0.00000000</v>
  </separator>
  <dos>
   <i name="efermi">      7.49132007 </i>
   <total>
    <array>
     <dimension dim="1">gridpoints</dimension>
     <dimension dim="2">spin</dimension>
     <field>energy</field>
     <field>total</field>
     <field>integrated</field>
     <set>
      <set comment="spin 1">
       <r>   -49.5740     0.0000     0.0000 </r>
       <r>   -49.3675     0.0000     0.0000 </r>
       <r>   -49.1610     0.0000     0.0000 </r>
       <r>   -48.9544     0.0000     0.0000 </r>
       <r>   -48.7479     0.0000     0.0000 </r>
       <r>   -48.5414     0.0000     0.0000 </r>
       <r>   -48.3349     0.0000     0.0000 </r>
       <r>   -48.1283    -0.0000    -0.0000 </r>
       <r>   -47.9218    -0.0000    -0.0000 </r>
       <r>   -47.7153    -0.0000    -0.0000 </r>
       <r>   -47.5087    -0.0000    -0.0000 </r>
       <r>   -47.3022    -0.0000    -0.0000 </r>
       <r>   -47.0957    -0.0716    -0.0148 </r>
       <r>   -46.8892    -0.9782    -0.2168 </r>
       <r>   -46.6826    31.0321     6.1922 </r>
       <r>   -46.4761    28.1168    11.9991 </r>
       <r>   -46.2696     0.1271    12.0253 </r>
       <r>   -46.0631    -0.1224    12.0000 </r>
       <r>   -45.8565    -0.0001    12.0000 </r>
       <r>   -45.6500    -0.0000    12.0000 </r>
       <r>   -45.4435    -0.0000    12.0000 </r>
       <r>   -45.2369     0.0000    12.0000 </r>
       <r>   -45.0304     0.0000    12.0000 </r>
       <r>   -44.8239     0.0000    12.0000 </r>
       <r>   -44.6174     0.0000    12.0000 </r>
       <r>   -44.4108     0.0000    12.0000 </r>
       <r>   -44.2043     0.0000    12.0000 </r>
       <r>   -43.9978     0.0000    12.0000 </r>
       <r>   -43.7913     0.0000    12.0000 </r>
       <r>   -43.5847     0.0000    12.0000 </r>
       <r>   -43.3782     0.0000    12.0000 </r>
       <r>   -43.1717     0.0000    12.0000 </r>
       <r>   -42.9651     0.0000    12.0000 </r>
       <r>   -42.7586     0.0000    12.0000 </r>
       <r>   -42.5521     0.0000    12.0000 </r>
       <r>   -42.3456     0.0000    12.0000 </r>
       <r>   -42.1390    -0.0000    12.0000 </r>
       <r>   -41.9325    -0.0000    12.0000 </r>
       <r>   -41.7260    -0.0000    12.0000 </r>
       <r>   -41.5195    -0.0000    12.0000 </r>
       <r>   -41.3129    -0.0002    12.0000 </r>
       <r>   -41.1064    -0.1798    11.9628 </r>
       <r>   -40.8999    -0.7060    11.8170 </r>
       <r>   -40.6933    53.2657    22.8179 </r>
       <r>   -40.4868    53.9030    33.9503 </r>
       <r>   -40.2803     0.4909    34.0517 </r>
       <r>   -40.0738    -0.2500    34.0001 </r>
       <r>   -39.8672    -0.0004    34.0000 </r>
       <r>   -39.6607    -0.0000    34.0000 </r>
       <r>   -39.4542    -0.0000    34.0000 </r>
       <r>   -39.2477     0.0000    34.0000 </r>
       <r>   -39.0411     0.0000    34.0000 </r>
       <r>   -38.8346     0.0000    34.0000 </r>
       <r>   -38.6281     0.0000    34.0000 </r>
       <r>   -38.4215     0.0000    34.0000 </r>
       <r>   -38.2150     0.0000    34.0000 </r>
       <r>   -38.0085     0.0000    34.0000 </r>
       <r>   -37.8020     0.0000    34.0000 </r>
       <r>   -37.5954     0.0000    34.0000 </r>
       <r>   -37.3889     0.0000    34.0000 </r>
       <r>   -37.1824     0.0000    34.0000 </r>
       <r>   -36.9759     0.0000    34.0000 </r>
       <r>   -36.7693     0.0000    34.0000 </r>
       <r>   -36.5628     0.0000    34.0000 </r>
       <r>   -36.3563     0.0000    34.0000 </r>
       <r>   -36.1497     0.0000    34.0000 </r>
       <r>   -35.9432     0.0000    34.0000 </r>
       <r>   -35.7367     0.0000    34.0000 </r>
       <r>   -35.5302     0.0000    34.0000 </r>
       <r>   -35.3236     0.0000    34.0000 </r>
       <r>   -35.1171     0.0000    34.0000 </r>
       <r>   -34.9106     0.0000    34.0000 </r>
       <r>   -34.7041     0.0000    34.0000 </r>
       <r>   -34.4975     0.0000    34.0000 </r>
       <r>   -34.2910     0.0000    34.0000 </r>
       <r>   -34.0845     0.0000    34.0000 </r>
       <r>   -33.8779     0.0000    34.0000 </r>
       <r>   -33.6714     0.0000    34.0000 </r>
       <r>   -33.4649     0.0000    34.0000 </r>
       <r>   -33.2584     0.0000    34.0000 </r>
       <r>   -33.0518     0.0000    34.0000 </r>
       <r>   -32.8453     0.0000    34.0000 </r>
       <r>   -32.6388     0.0000    34.0000 </r>
       <r>   -32.4323     0.0000    34.0000 </r>
       <r>   -32.2257     0.0000    34.0000 </r>
       <r>   -32.0192     0.0000    34.0000 </r>
       <r>   -31.8127     0.0000    34.0000 </r>
       <r>   -31.6061     0.0000    34.0000 </r>
       <r>   -31.3996     0.0000    34.0000 </r>
       <r>   -31.1931     0.0000    34.0000 </r>
       <r>   -30.9866     0.0000    34.0000 </r>
       <r>   -30.7800     0.0000    34.0000 </r>
       <r>   -30.5735     0.0000    34.0000 </r>
       <r>   -30.3670     0.0000    34.0000 </r>
       <r>   -30.1605     0.0000    34.0000 </r>
       <r>   -29.9539     0.0000    34.0000 </r>
       <r>   -29.7474     0.0000    34.0000 </r>
       <r>   -29.5409     0.0000    34.0000 </r>
       <r>   -29.3343     0.0000    34.0000 </r>
       <r>   -29.1278     0.0000    34.0000 </r>
       <r>   -28.9213     0.0000    34.0000 </r>
       <r>   -28.7148     0.0000    34.0000 </r>
       <r>   -28.5082     0.0000    34.0000 </r>
       <r>   -28.3017     0.0000    34.0000 </r>
       <r>   -28.0952     0.0000    34.0000 </r>
       <r>   -27.8886     0.0000    34.0000 </r>
       <r>   -27.6821     0.0000    34.0000 </r>
       <r>   -27.4756     0.0000    34.0000 </r>
       <r>   -27.2691     0.0000    34.0000 </r>
       <r>   -27.0625     0.0000    34.0000 </r>
       <r>   -26.8560     0.0000    34.0000 </r>
       <r>   -26.6495     0.0000    34.0000 </r>
       <r>   -26.4430     0.0000    34.0000 </r>
       <r>   -26.2364     0.0000    34.0000 </r>
       <r>   -26.0299     0.0000    34.0000 </r>
       <r>   -25.8234     0.0000    34.0000 </r>
       <r>   -25.6168     0.0000    34.0000 </r>
       <r>   -25.4103     0.0000    34.0000 </r>
       <r>   -25.2038     0.0000    34.0000 </r>
       <r>   -24.9973     0.0000    34.0000 </r>
       <r>   -24.7907     0.0000    34.0000 </r>
       <r>   -24.5842    -0.0000    34.0000 </r>
       <r>   -24.3777    -0.0000    34.0000 </r>
       <r>   -24.1712    -0.0000    34.0000 </r>
       <r>   -23.9646    -0.0000    34.0000 </r>
       <r>   -23.7581    -0.0000    34.0000 </r>
       <r>   -23.5516    -0.0311    33.9936 </r>
       <r>   -23.3450    -0.3940    33.9122 </r>
       <r>   -23.1385    11.2723    36.2402 </r>
       <r>   -22.9320    39.1221    44.3200 </r>
       <r>   -22.7255    71.2676    59.0387 </r>
       <r>   -22.5189    32.6877    65.7896 </r>
       <r>   -22.3124    21.4142    70.2122 </r>
       <r>   -22.1059    -0.9922    70.0073 </r>
       <r>   -21.8994    -0.0354    70.0000 </r>
       <r>   -21.6928    -0.0000    70.0000 </r>
       <r>   -21.4863    -0.0000    70.0000 </r>
       <r>   -21.2798     0.0000    70.0000 </r>
       <r>   -21.0732     0.0000    70.0000 </r>
       <r>   -20.8667     0.0000    70.0000 </r>
       <r>   -20.6602     0.0000    70.0000 </r>
       <r>   -20.4537    -0.0000    70.0000 </r>
       <r>   -20.2471    -0.0000    70.0000 </r>
       <r>   -20.0406    -0.0000    70.0000 </r>
       <r>   -19.8341    -0.0000    70.0000 </r>
       <r>   -19.6276    -0.0026    69.9995 </r>
       <r>   -19.4210    -0.5844    69.8788 </r>
       <r>   -19.2145     6.0092    71.1198 </r>
       <r>   -19.0080    53.0071    82.0672 </r>
       <r>   -18.8014    97.7419   102.2536 </r>
       <r>   -18.5949   103.0694   123.5403 </r>
       <r>   -18.3884    60.9946   136.1373 </r>
       <r>   -18.1819    -0.4262   136.0493 </r>
       <r>   -17.9753    -0.2384   136.0001 </r>
       <r>   -17.7688    -0.0002   136.0000 </r>
       <r>   -17.5623    -0.0000   136.0000 </r>
       <r>   -17.3558    -0.0000   136.0000 </r>
       <r>   -17.1492     0.0000   136.0000 </r>
       <r>   -16.9427     0.0000   136.0000 </r>
       <r>   -16.7362     0.0000   136.0000 </r>
       <r>   -16.5296     0.0000   136.0000 </r>
       <r>   -16.3231     0.0000   136.0000 </r>
       <r>   -16.1166     0.0000   136.0000 </r>
       <r>   -15.9101     0.0000   136.0000 </r>
       <r>   -15.7035     0.0000   136.0000 </r>
       <r>   -15.4970     0.0000   136.0000 </r>
       <r>   -15.2905     0.0000   136.0000 </r>
       <r>   -15.0840     0.0000   136.0000 </r>
       <r>   -14.8774     0.0000   136.0000 </r>
       <r>   -14.6709     0.0000   136.0000 </r>
       <r>   -14.4644     0.0000   136.0000 </r>
       <r>   -14.2578     0.0000   136.0000 </r>
       <r>   -14.0513     0.0000   136.0000 </r>
       <r>   -13.8448     0.0000   136.0000 </r>
       <r>   -13.6383     0.0000   136.0000 </r>
       <r>   -13.4317     0.0000   136.0000 </r>
       <r>   -13.2252     0.0000   136.0000 </r>
       <r>   -13.0187     0.0000   136.0000 </r>
       <r>   -12.8122     0.0000   136.0000 </r>
       <r>   -12.6056     0.0000   136.0000 </r>
       <r>   -12.3991     0.0000   136.0000 </r>
       <r>   -12.1926     0.0000   136.0000 </r>
       <r>   -11.9860     0.0000   136.0000 </r>
       <r>   -11.7795     0.0000   136.0000 </r>
       <r>   -11.5730     0.0000   136.0000 </r>
       <r>   -11.3665     0.0000   136.0000 </r>
       <r>   -11.1599     0.0000   136.0000 </r>
       <r>   -10.9534     0.0000   136.0000 </r>
       <r>   -10.7469     0.0000   136.0000 </r>
       <r>   -10.5404     0.0000   136.0000 </r>
       <r>   -10.3338     0.0000   136.0000 </r>
       <r>   -10.1273     0.0000   136.0000 </r>
       <r>    -9.9208     0.0000   136.0000 </r>
       <r>    -9.7142     0.0000   136.0000 </r>
       <r>    -9.5077     0.0000   136.0000 </r>
       <r>    -9.3012     0.0000   136.0000 </r>
       <r>    -9.0947     0.0000   136.0000 </r>
       <r>    -8.8881     0.0000   136.0000 </r>
       <r>    -8.6816     0.0000   136.0000 </r>
       <r>    -8.4751     0.0000   136.0000 </r>
       <r>    -8.2686     0.0000   136.0000 </r>
       <r>    -8.0620     0.0000   136.0000 </r>
       <r>    -7.8555     0.0000   136.0000 </r>
       <r>    -7.6490     0.0000   136.0000 </r>
       <r>    -7.4424     0.0000   136.0000 </r>
       <r>    -7.2359     0.0000   136.0000 </r>
       <r>    -7.0294     0.0000   136.0000 </r>
       <r>    -6.8229     0.0000   136.0000 </r>
       <r>    -6.6163     0.0000   136.0000 </r>
       <r>    -6.4098     0.0000   136.0000 </r>
       <r>    -6.2033     0.0000   136.0000 </r>
       <r>    -5.9968     0.0000   136.0000 </r>
       <r>    -5.7902     0.0000   136.0000 </r>
       <r>    -5.5837     0.0000   136.0000 </r>
       <r>    -5.3772     0.0000   136.0000 </r>
       <r>    -5.1706     0.0000   136.0000 </r>
       <r>    -4.9641     0.0000   136.0000 </r>
       <r>    -4.7576     0.0000   136.0000 </r>
       <r>    -4.5511     0.0000   136.0000 </r>
       <r>    -4.3445     0.0000   136.0000 </r>
       <r>    -4.1380     0.0000   136.0000 </r>
       <r>    -3.9315     0.0000   136.0000 </r>
       <r>    -3.7250     0.0000   136.0000 </r>
       <r>    -3.5184     0.0000   136.0000 </r>
       <r>    -3.3119     0.0000   136.0000 </r>
       <r>    -3.1054     0.0000   136.0000 </r>
       <r>    -2.8988     0.0000   136.0000 </r>
       <r>    -2.6923     0.0000   136.0000 </r>
       <r>    -2.4858     0.0000   136.0000 </r>
       <r>    -2.2793     0.0000   136.0000 </r>
       <r>    -2.0727     0.0000   136.0000 </r>
       <r>    -1.8662     0.0000   136.0000 </r>
       <r>    -1.6597     0.0000   136.0000 </r>
       <r>    -1.4532     0.0000   136.0000 </r>
       <r>    -1.2466     0.0000   136.0000 </r>
       <r>    -1.0401     0.0000   136.0000 </r>
       <r>    -0.8336     0.0000   136.0000 </r>
       <r>    -0.6270     0.0000   136.0000 </r>
       <r>    -0.4205    -0.0000   136.0000 </r>
       <r>    -0.2140    -0.0000   136.0000 </r>
       <r>    -0.0075    -0.0000   136.0000 </r>
       <r>     0.1991    -0.0000   136.0000 </r>
       <r>     0.4056    -0.0002   136.0000 </r>
       <r>     0.6121    -0.0127   135.9973 </r>
       <r>     0.8187     0.1807   136.0347 </r>
       <r>     1.0252     0.7622   136.1921 </r>
       <r>     1.2317     1.4710   136.4959 </r>
       <r>     1.4382     1.9172   136.8918 </r>
       <r>     1.6448     3.1694   137.5464 </r>
       <r>     1.8513     4.6521   138.5072 </r>
       <r>     2.0578     2.0511   138.9308 </r>
       <r>     2.2643     5.0026   139.9640 </r>
       <r>     2.4709     3.5882   140.7051 </r>
       <r>     2.6774     3.4842   141.4246 </r>
       <r>     2.8839     8.8685   143.2562 </r>
       <r>     3.0905     7.7309   144.8529 </r>
       <r>     3.2970     8.1364   146.5333 </r>
       <r>     3.5035     7.5299   148.0884 </r>
       <r>     3.7100     9.4894   150.0482 </r>
       <r>     3.9166    16.8797   153.5343 </r>
       <r>     4.1231    20.8785   157.8463 </r>
       <r>     4.3296    22.9348   162.5830 </r>
       <r>     4.5361    29.3645   168.6475 </r>
       <r>     4.7427    32.3804   175.3350 </r>
       <r>     4.9492    37.2147   183.0208 </r>
       <r>     5.1557    39.3286   191.1433 </r>
       <r>     5.3623    38.7126   199.1385 </r>
       <r>     5.5688    33.6105   206.0800 </r>
       <r>     5.7753    33.2114   212.9390 </r>
       <r>     5.9818    19.6354   216.9943 </r>
       <r>     6.1884    35.1639   224.2566 </r>
       <r>     6.3949    58.3703   236.3116 </r>
       <r>     6.6014    58.1298   248.3170 </r>
       <r>     6.8079    56.2601   259.9363 </r>
       <r>     7.0145    53.8169   271.0509 </r>
       <r>     7.2210    56.8167   282.7851 </r>
       <r>     7.4275    50.6605   293.2479 </r>
       <r>     7.6341    44.8816   302.5172 </r>
       <r>     7.8406    52.8387   313.4298 </r>
       <r>     8.0471    47.6499   323.2708 </r>
       <r>     8.2536    37.1749   330.9485 </r>
       <r>     8.4602    32.6222   337.6858 </r>
       <r>     8.6667    22.1915   342.2690 </r>
       <r>     8.8732    18.8669   346.1655 </r>
       <r>     9.0797    15.8114   349.4310 </r>
       <r>     9.2863    22.5051   354.0789 </r>
       <r>     9.4928    20.8601   358.3871 </r>
       <r>     9.6993     8.2337   360.0876 </r>
       <r>     9.9059    -0.4105   360.0028 </r>
       <r>    10.1124    -0.0136   360.0000 </r>
       <r>    10.3189    -0.0000   360.0000 </r>
       <r>    10.5254    -0.0000   360.0000 </r>
       <r>    10.7320     0.0000   360.0000 </r>
       <r>    10.9385     0.0000   360.0000 </r>
       <r>    11.1450     0.0000   360.0000 </r>
       <r>    11.3515     0.0000   360.0000 </r>
       <r>    11.5581     0.0000   360.0000 </r>
       <r>    11.7646     0.0000   360.0000 </r>
       <r>    11.9711     0.0000   360.0000 </r>
       <r>    12.1777     0.0000   360.0000 </r>
       <r>    12.3842     0.0000   360.0000 </r>
      </set>
     </set>
    </array>
   </total>
  </dos>
 </calculation>
 <structure name="finalpos" >
  <crystal>
   <varray name="basis" >
    <v>       7.02034554       0.00537323       0.00887588 </v>
    <v>       0.00844753      10.19298777      -0.02668700 </v>
    <v>       0.01242804      -0.02713769      10.28899323 </v>
   </varray>
   <i name="volume">    736.25614505 </i>
   <varray name="rec_basis" >
    <v>       0.14244344      -0.00011850      -0.00017237 </v>
    <v>      -0.00007542       0.09810740       0.00025885 </v>
    <v>      -0.00012308       0.00025457       0.09719206 </v>
   </varray>
  </crystal>
  <varray name="positions" >
   <v>       0.52563357       0.33066383       0.34089888 </v>
   <v>       0.73418970       0.83662957       0.15377466 </v>
   <v>       0.97862213       0.99366398       0.31334321 </v>
   <v>       0.25851023       0.84906413       0.16117649 </v>
   <v>       0.72359164       0.50180515       0.16490961 </v>
   <v>       0.77961726       0.16130787       0.48631884 </v>
   <v>       0.50007372       0.67067884       0.00370240 </v>
   <v>       0.48191993       0.65955899       0.67421762 </v>
   <v>       0.25681028       0.50299751       0.50786400 </v>
   <v>       0.01672453       0.65391270       0.68306614 </v>
   <v>       0.27842802       0.17595245       0.84643661 </v>
   <v>       0.99298178       0.00089718       0.99802989 </v>
   <v>       0.98505901       0.33351560       0.67505294 </v>
   <v>       0.00000672       0.01151764       0.68561925 </v>
   <v>       0.00562889       0.66890435       0.31477048 </v>
   <v>       0.51434267       0.99898513       0.33421084 </v>
   <v>       0.52147183       0.32994022       0.65558804 </v>
   <v>       0.96930910       0.32880480       0.99602701 </v>
   <v>       0.73543991       0.82478729       0.83184489 </v>
   <v>       0.73975897       0.16456894       0.16826888 </v>
   <v>       0.72055477       0.15846116       0.84074821 </v>
   <v>       0.26134088       0.82546778       0.83419518 </v>
   <v>       0.53836080       0.33188694       0.00157348 </v>
   <v>       0.74069122       0.51281709       0.83303325 </v>
   <v>       0.50273514       0.99411085       0.00466153 </v>
   <v>       0.49696639       0.00453017       0.65733274 </v>
   <v>       0.27710520       0.48202429       0.16061474 </v>
   <v>       0.98165397       0.34566560       0.32478652 </v>
   <v>       0.48968783       0.67590457       0.32813433 </v>
   <v>       0.22591464       0.17524673       0.48752387 </v>
   <v>       0.99937446       0.66627665       0.00574287 </v>
   <v>       0.75029308       0.52037922       0.50540714 </v>
   <v>       0.76833462       0.82820115       0.50904396 </v>
   <v>       0.26368622       0.49053372       0.84034011 </v>
   <v>       0.25735255       0.16521526       0.16490959 </v>
   <v>       0.22780935       0.82512666       0.50683179 </v>
  </varray>
 </structure>
</modeling>
