<?xml version="1.0" encoding="ISO-8859-1"?>
<modeling>
 <generator>
  <i name="program" type="string">vasp </i>
  <i name="version" type="string">5.4.1  </i>
  <i name="subversion" type="string">05Feb16 (build Jan 29 2020 16:04:39) complex                          parallel </i>
  <i name="platform" type="string">IFC91_ompi </i>
  <i name="date" type="string">2020 06 15 </i>
  <i name="time" type="string">10:15:46 </i>
 </generator>
 <incar>
  <i type="string" name="SYSTEM"> automatically generated by mexm</i>
  <i type="int" name="ISTART">     0</i>
  <i type="string" name="PREC">accurate               ! avoid wrap aro</i>
  <i type="string" name="ALGO"> Fast                   ! blocked Davids</i>
  <i type="int" name="ISPIN">     1</i>
  <i type="int" name="ICHARG">     2</i>
  <i type="int" name="NELM">    70</i>
  <i type="int" name="IBRION">     2</i>
  <i name="EDIFF">      0.00001000</i>
  <i name="EDIFFG">     -0.01000000</i>
  <i type="int" name="NSW">   300</i>
  <i type="int" name="ISIF">     3</i>
  <i type="int" name="ISYM">     1</i>
  <i name="ENCUT">    300.00000000</i>
  <i name="POTIM">      0.15000000</i>
  <i type="string" name="LREAL"> Auto                  ! unpublished met</i>
  <i type="int" name="ISMEAR">     1</i>
  <i name="SIGMA">      0.15000000</i>
  <i type="logical" name="LWAVE"> F  </i>
  <i type="logical" name="LCHARG"> F  </i>
  <i type="logical" name="LVTOT"> F  </i>
  <v type="int" name="KPOINT_BSE">    -1     0     0     0</v>
  <i type="int" name="NELM">    70</i>
 </incar>
 <kpoints>
  <generation param="Gamma">
   <v type="int" name="divisions">       3        3        3 </v>
   <v name="usershift">      0.00000000       0.00000000       0.00000000 </v>
   <v name="genvec1">      0.33333333       0.00000000       0.00000000 </v>
   <v name="genvec2">      0.00000000       0.33333333       0.00000000 </v>
   <v name="genvec3">     -0.00000000       0.00000000       0.33333333 </v>
   <v name="shift">      0.00000000       0.00000000       0.00000000 </v>
  </generation>
  <varray name="kpointlist" >
   <v>       0.00000000       0.00000000       0.00000000 </v>
   <v>       0.33333333       0.00000000       0.00000000 </v>
   <v>      -0.00000000       0.33333333       0.00000000 </v>
   <v>       0.33333333       0.33333333       0.00000000 </v>
   <v>      -0.33333333       0.33333333      -0.00000000 </v>
   <v>       0.00000000       0.00000000       0.33333333 </v>
   <v>       0.33333333       0.00000000       0.33333333 </v>
   <v>      -0.33333333      -0.00000000       0.33333333 </v>
   <v>       0.00000000       0.33333333       0.33333333 </v>
   <v>       0.33333333       0.33333333       0.33333333 </v>
   <v>      -0.33333333       0.33333333       0.33333333 </v>
   <v>       0.00000000      -0.33333333       0.33333333 </v>
   <v>       0.33333333      -0.33333333       0.33333333 </v>
   <v>      -0.33333333      -0.33333333       0.33333333 </v>
  </varray>
  <varray name="weights" >
   <v>       0.03703704 </v>
   <v>       0.07407407 </v>
   <v>       0.07407407 </v>
   <v>       0.07407407 </v>
   <v>       0.07407407 </v>
   <v>       0.07407407 </v>
   <v>       0.07407407 </v>
   <v>       0.07407407 </v>
   <v>       0.07407407 </v>
   <v>       0.07407407 </v>
   <v>       0.07407407 </v>
   <v>       0.07407407 </v>
   <v>       0.07407407 </v>
   <v>       0.07407407 </v>
  </varray>
 </kpoints>
 <parameters>
  <separator name="general" >
   <i type="string" name="SYSTEM">automatically generated by mexm</i>
   <i type="logical" name="LCOMPAT"> F  </i>
  </separator>
  <separator name="electronic" >
   <i type="string" name="PREC">accura</i>
   <i name="ENMAX">    300.00000000</i>
   <i name="ENAUG">    461.25700000</i>
   <i name="EDIFF">      0.00001000</i>
   <i type="int" name="IALGO">    68</i>
   <i type="int" name="IWAVPR">    11</i>
   <i type="int" name="NBANDS">   172</i>
   <i name="NELECT">    286.00000000</i>
   <i type="int" name="TURBO">     0</i>
   <i type="int" name="IRESTART">     0</i>
   <i type="int" name="NREBOOT">     0</i>
   <i type="int" name="NMIN">     0</i>
   <i name="EREF">      0.00000000</i>
   <separator name="electronic smearing" >
    <i type="int" name="ISMEAR">     1</i>
    <i name="SIGMA">      0.15000000</i>
    <i name="KSPACING">      0.50000000</i>
    <i type="logical" name="KGAMMA"> T  </i>
   </separator>
   <separator name="electronic projectors" >
    <i type="logical" name="LREAL"> T  </i>
    <v name="ROPT">     -0.00025000     -0.00025000     -0.00025000     -0.00025000</v>
    <i type="int" name="LMAXPAW">  -100</i>
    <i type="int" name="LMAXMIX">     2</i>
    <i type="logical" name="NLSPLINE"> F  </i>
   </separator>
   <separator name="electronic startup" >
    <i type="int" name="ISTART">     0</i>
    <i type="int" name="ICHARG">     2</i>
    <i type="int" name="INIWAV">     1</i>
   </separator>
   <separator name="electronic spin" >
    <i type="int" name="ISPIN">     1</i>
    <i type="logical" name="LNONCOLLINEAR"> F  </i>
    <v name="MAGMOM">      1.00000000      1.00000000      1.00000000      1.00000000      1.00000000      1.00000000      1.00000000      1.00000000      1.00000000      1.00000000      1.00000000      1.00000000      1.00000000      1.00000000      1.00000000      1.00000000      1.00000000      1.00000000      1.00000000      1.00000000
      1.00000000      1.00000000      1.00000000      1.00000000      1.00000000      1.00000000      1.00000000      1.00000000      1.00000000      1.00000000      1.00000000      1.00000000      1.00000000      1.00000000      1.00000000      1.00000000</v>
    <i name="NUPDOWN">     -1.00000000</i>
    <i type="logical" name="LSORBIT"> F  </i>
    <v name="SAXIS">      0.00000000      0.00000000      1.00000000</v>
    <i type="logical" name="LSPIRAL"> F  </i>
    <v name="QSPIRAL">      0.00000000      0.00000000      0.00000000</v>
    <i type="logical" name="LZEROZ"> F  </i>
   </separator>
   <separator name="electronic exchange-correlation" >
    <i type="logical" name="LASPH"> F  </i>
    <i type="logical" name="LMETAGGA"> F  </i>
   </separator>
   <separator name="electronic convergence" >
    <i type="int" name="NELM">    70</i>
    <i type="int" name="NELMDL">    -5</i>
    <i type="int" name="NELMIN">     2</i>
    <i name="ENINI">    300.00000000</i>
    <separator name="electronic convergence detail" >
     <i type="logical" name="LDIAG"> T  </i>
     <i type="logical" name="LSUBROT"> F  </i>
     <i name="WEIMIN">      0.00100000</i>
     <i name="EBREAK">      0.00000001</i>
     <i name="DEPER">      0.30000000</i>
     <i type="int" name="NRMM">     4</i>
     <i name="TIME">      0.40000000</i>
    </separator>
   </separator>
   <separator name="electronic mixer" >
    <i name="AMIX">      0.40000000</i>
    <i name="BMIX">      1.00000000</i>
    <i name="AMIN">      0.10000000</i>
    <i name="AMIX_MAG">      1.60000000</i>
    <i name="BMIX_MAG">      1.00000000</i>
    <separator name="electronic mixer details" >
     <i type="int" name="IMIX">     4</i>
     <i type="logical" name="MIXFIRST"> F  </i>
     <i type="int" name="MAXMIX">   -45</i>
     <i name="WC">    100.00000000</i>
     <i type="int" name="INIMIX">     1</i>
     <i type="int" name="MIXPRE">     1</i>
     <i type="int" name="MREMOVE">     5</i>
    </separator>
   </separator>
   <separator name="electronic dipolcorrection" >
    <i type="logical" name="LDIPOL"> F  </i>
    <i type="logical" name="LMONO"> F  </i>
    <i type="int" name="IDIPOL">     0</i>
    <i name="EPSILON">      1.00000000</i>
    <v name="DIPOL">   -100.00000000   -100.00000000   -100.00000000</v>
    <i name="EFIELD">      0.00000000</i>
   </separator>
  </separator>
  <separator name="grids" >
   <i type="int" name="NGX">    40</i>
   <i type="int" name="NGY">    60</i>
   <i type="int" name="NGZ">    60</i>
   <i type="int" name="NGXF">    80</i>
   <i type="int" name="NGYF">   120</i>
   <i type="int" name="NGZF">   120</i>
   <i type="logical" name="ADDGRID"> F  </i>
  </separator>
  <separator name="ionic" >
   <i type="int" name="NSW">   300</i>
   <i type="int" name="IBRION">     2</i>
   <i type="int" name="ISIF">     3</i>
   <i name="PSTRESS">      0.00000000</i>
   <i name="EDIFFG">     -0.01000000</i>
   <i type="int" name="NFREE">     1</i>
   <i name="POTIM">      0.15000000</i>
   <i name="SMASS">     -3.00000000</i>
   <i name="SCALEE">      1.00000000</i>
  </separator>
  <separator name="ionic md" >
   <i name="TEBEG">      0.00010000</i>
   <i name="TEEND">      0.00010000</i>
   <i type="int" name="NBLOCK">     1</i>
   <i type="int" name="KBLOCK">   300</i>
   <i type="int" name="NPACO">   256</i>
   <i name="APACO">     16.00000000</i>
  </separator>
  <separator name="symmetry" >
   <i type="int" name="ISYM">     1</i>
   <i name="SYMPREC">      0.00001000</i>
  </separator>
  <separator name="dos" >
   <i type="logical" name="LORBIT"> F  </i>
   <v name="RWIGS">     -1.00000000     -1.00000000     -1.00000000     -1.00000000</v>
   <i type="int" name="NEDOS">   301</i>
   <i name="EMIN">     10.00000000</i>
   <i name="EMAX">    -10.00000000</i>
   <i name="EFERMI">      0.00000000</i>
  </separator>
  <separator name="writing" >
   <i type="int" name="NWRITE">     2</i>
   <i type="logical" name="LWAVE"> F  </i>
   <i type="logical" name="LCHARG"> F  </i>
   <i type="logical" name="LPARD"> F  </i>
   <i type="logical" name="LVTOT"> F  </i>
   <i type="logical" name="LVHAR"> F  </i>
   <i type="logical" name="LELF"> F  </i>
   <i type="logical" name="LOPTICS"> F  </i>
   <v name="STM">      0.00000000      0.00000000      0.00000000      0.00000000      0.00000000      0.00000000      0.00000000</v>
  </separator>
  <separator name="performance" >
   <i type="int" name="NPAR">     4</i>
   <i type="int" name="NSIM">     4</i>
   <i type="int" name="NBLK">    -1</i>
   <i type="logical" name="LPLANE"> T  </i>
   <i type="logical" name="LSCALAPACK"> T  </i>
   <i type="logical" name="LSCAAWARE"> F  </i>
   <i type="logical" name="LSCALU"> F  </i>
   <i type="logical" name="LASYNC"> F  </i>
   <i type="logical" name="LORBITALREAL"> F  </i>
  </separator>
  <separator name="miscellaneous" >
   <i type="int" name="IDIOT">     3</i>
   <i type="logical" name="LMUSIC"> F  </i>
   <v name="POMASS">    180.94800000    178.49000000     92.91000000     91.22400000</v>
   <v name="DARWINR">      0.00000000      0.00000000      0.00000000      0.00000000</v>
   <v name="DARWINV">      1.00000000      1.00000000      1.00000000      1.00000000</v>
   <i type="logical" name="LCORR"> T  </i>
  </separator>
  <i type="logical" name="GGA_COMPAT"> T  </i>
  <i type="logical" name="LBERRY"> F  </i>
  <i type="int" name="ICORELEVEL">     0</i>
  <i type="logical" name="LDAU"> F  </i>
  <i type="int" name="I_CONSTRAINED_M">     0</i>
  <separator name="electronic exchange-correlation" >
   <i type="string" name="GGA">--</i>
   <i type="int" name="VOSKOWN">     0</i>
   <i type="logical" name="LHFCALC"> F  </i>
   <i type="string" name="PRECFOCK"></i>
   <i type="logical" name="LSYMGRAD"> F  </i>
   <i type="logical" name="LHFONE"> F  </i>
   <i type="logical" name="LRHFCALC"> F  </i>
   <i type="logical" name="LTHOMAS"> F  </i>
   <i type="logical" name="LMODELHF"> F  </i>
   <i name="ENCUT4O">     -1.00000000</i>
   <i type="int" name="EXXOEP">     0</i>
   <i type="int" name="FOURORBIT">     0</i>
   <i name="AEXX">      0.00000000</i>
   <i name="HFALPHA">      0.00000000</i>
   <i name="MCALPHA">      0.00000000</i>
   <i name="ALDAX">      1.00000000</i>
   <i name="AGGAX">      1.00000000</i>
   <i name="ALDAC">      1.00000000</i>
   <i name="AGGAC">      1.00000000</i>
   <i type="int" name="NKREDX">     1</i>
   <i type="int" name="NKREDY">     1</i>
   <i type="int" name="NKREDZ">     1</i>
   <i type="logical" name="SHIFTRED"> F  </i>
   <i type="logical" name="ODDONLY"> F  </i>
   <i type="logical" name="EVENONLY"> F  </i>
   <i type="int" name="LMAXFOCK">     0</i>
   <i type="int" name="NMAXFOCKAE">     0</i>
   <i type="logical" name="LFOCKAEDFT"> F  </i>
   <i name="HFSCREEN">      0.00000000</i>
   <i name="HFSCREENC">      0.00000000</i>
   <i type="int" name="NBANDSGWLOW">     0</i>
  </separator>
  <separator name="vdW DFT" >
   <i type="logical" name="LUSE_VDW"> F  </i>
   <i name="Zab_VDW">     -0.84910000</i>
   <i name="PARAM1">      0.12340000</i>
   <i name="PARAM2">      1.00000000</i>
   <i name="PARAM3">      0.00000000</i>
  </separator>
  <separator name="model GW" >
   <i type="int" name="MODEL_GW">     0</i>
   <i name="MODEL_EPS0">     11.82665696</i>
   <i name="MODEL_ALPHA">      1.00000000</i>
  </separator>
  <separator name="linear response parameters" >
   <i type="logical" name="LEPSILON"> F  </i>
   <i type="logical" name="LRPA"> F  </i>
   <i type="logical" name="LNABLA"> F  </i>
   <i type="logical" name="LVEL"> F  </i>
   <i type="int" name="KINTER">     0</i>
   <i name="CSHIFT">      0.10000000</i>
   <i name="OMEGAMAX">     -1.00000000</i>
   <i name="DEG_THRESHOLD">      0.00200000</i>
  </separator>
  <separator name="orbital magnetization" >
   <i type="logical" name="NUCIND"> F  </i>
   <v name="MAGPOS">      0.00000000      0.00000000      0.00000000</v>
   <i type="logical" name="LNICSALL"> T  </i>
   <i type="logical" name="ORBITALMAG"> F  </i>
   <i type="logical" name="LMAGBLOCH"> F  </i>
   <i type="logical" name="LCHIMAG"> F  </i>
   <i type="logical" name="LGAUGE"> T  </i>
   <i type="int" name="MAGATOM">     0</i>
   <v name="MAGDIPOL">      0.00000000      0.00000000      0.00000000</v>
   <v name="AVECCONST">      0.00000000      0.00000000      0.00000000</v>
  </separator>
  <separator name="response functions" >
   <i type="logical" name="LADDER"> F  </i>
   <i type="logical" name="LFXC"> F  </i>
   <i type="logical" name="LHARTREE"> T  </i>
   <i type="int" name="IBSE">     0</i>
   <v type="int" name="KPOINT">    -1     0     0     0</v>
   <i type="logical" name="LTCTE"> F  </i>
   <i type="logical" name="LTETE"> F  </i>
   <i type="logical" name="LTRIPLET"> F  </i>
   <i type="logical" name="LFXCEPS"> F  </i>
   <i type="logical" name="LFXHEG"> F  </i>
   <i type="int" name="NATURALO">     0</i>
   <i type="logical" name="L2ORDER"> F  </i>
   <i type="logical" name="LUSEW"> F  </i>
   <i name="ENCUTGW">     -2.00000000</i>
   <i name="ENCUTGWSOFT">     -2.00000000</i>
   <i name="ENCUTLF">     -1.00000000</i>
   <i type="int" name="LMAXMP2">    -1</i>
   <i name="SCISSOR">      0.00000000</i>
   <i type="int" name="NOMEGA">     0</i>
   <i type="int" name="NOMEGAR">     0</i>
   <i type="int" name="NBANDSGW">    -1</i>
   <i type="int" name="NBANDSO">    -1</i>
   <i type="int" name="NBANDSV">    -1</i>
   <i type="int" name="NELM">    70</i>
   <i type="int" name="NELMHF">     1</i>
   <i type="int" name="DIM">     3</i>
   <i type="int" name="ANTIRES">     0</i>
   <i name="OMEGAMAX">    -30.00000000</i>
   <i name="OMEGAMIN">    -30.00000000</i>
   <i name="OMEGATL">   -200.00000000</i>
   <i type="int" name="OMEGAGRID">     0</i>
   <i name="CSHIFT">     -0.10000000</i>
   <i type="logical" name="SELFENERGY"> F  </i>
   <i type="logical" name="LSPECTRAL"> F  </i>
   <i type="logical" name="LSPECTRALGW"> F  </i>
   <i type="logical" name="LSINGLES"> F  </i>
   <i type="logical" name="LFERMIGW"> F  </i>
   <i type="logical" name="ODDONLYGW"> F  </i>
   <i type="logical" name="EVENONLYGW"> F  </i>
   <i type="int" name="NKREDLFX">     1</i>
   <i type="int" name="NKREDLFY">     1</i>
   <i type="int" name="NKREDLFZ">     1</i>
   <i type="int" name="MAXMEM">  1800</i>
   <i type="int" name="TELESCOPE">     0</i>
   <i type="int" name="TAUPAR">     1</i>
   <i type="int" name="OMEGAPAR">    -1</i>
   <i name="LAMBDA">      1.00000000</i>
  </separator>
  <separator name="External order field" >
   <i name="OFIELD_KAPPA">      0.00000000</i>
   <v name="OFIELD_K">      0.00000000      0.00000000      0.00000000</v>
   <i name="OFIELD_Q6_NEAR">      0.00000000</i>
   <i name="OFIELD_Q6_FAR">      0.00000000</i>
   <i name="OFIELD_A">      0.00000000</i>
  </separator>
 </parameters>
 <atominfo>
  <atoms>      36 </atoms>
  <types>       4 </types>
  <array name="atoms" >
   <dimension dim="1">ion</dimension>
   <field type="string">element</field>
   <field type="int">atomtype</field>
   <set>
    <rc><c>Ta</c><c>   1</c></rc>
    <rc><c>Ta</c><c>   1</c></rc>
    <rc><c>Ta</c><c>   1</c></rc>
    <rc><c>Ta</c><c>   1</c></rc>
    <rc><c>Ta</c><c>   1</c></rc>
    <rc><c>Ta</c><c>   1</c></rc>
    <rc><c>Ta</c><c>   1</c></rc>
    <rc><c>Ta</c><c>   1</c></rc>
    <rc><c>Ta</c><c>   1</c></rc>
    <rc><c>Ta</c><c>   1</c></rc>
    <rc><c>Ta</c><c>   1</c></rc>
    <rc><c>Ta</c><c>   1</c></rc>
    <rc><c>Ta</c><c>   1</c></rc>
    <rc><c>Ta</c><c>   1</c></rc>
    <rc><c>Hf</c><c>   2</c></rc>
    <rc><c>Hf</c><c>   2</c></rc>
    <rc><c>Hf</c><c>   2</c></rc>
    <rc><c>Hf</c><c>   2</c></rc>
    <rc><c>Hf</c><c>   2</c></rc>
    <rc><c>Hf</c><c>   2</c></rc>
    <rc><c>Hf</c><c>   2</c></rc>
    <rc><c>Nb</c><c>   3</c></rc>
    <rc><c>Nb</c><c>   3</c></rc>
    <rc><c>Nb</c><c>   3</c></rc>
    <rc><c>Nb</c><c>   3</c></rc>
    <rc><c>Nb</c><c>   3</c></rc>
    <rc><c>Nb</c><c>   3</c></rc>
    <rc><c>Nb</c><c>   3</c></rc>
    <rc><c>Nb</c><c>   3</c></rc>
    <rc><c>Zr</c><c>   4</c></rc>
    <rc><c>Zr</c><c>   4</c></rc>
    <rc><c>Zr</c><c>   4</c></rc>
    <rc><c>Zr</c><c>   4</c></rc>
    <rc><c>Zr</c><c>   4</c></rc>
    <rc><c>Zr</c><c>   4</c></rc>
    <rc><c>Zr</c><c>   4</c></rc>
   </set>
  </array>
  <array name="atomtypes" >
   <dimension dim="1">type</dimension>
   <field type="int">atomspertype</field>
   <field type="string">element</field>
   <field>mass</field>
   <field>valence</field>
   <field type="string">pseudopotential</field>
   <set>
    <rc><c>  14</c><c>Ta</c><c>    180.94800000</c><c>      5.00000000</c><c>  PAW_PBE Ta 17Jan2003                  </c></rc>
    <rc><c>   7</c><c>Hf</c><c>    178.49000000</c><c>      4.00000000</c><c>  PAW_PBE Hf 20Jan2003                  </c></rc>
    <rc><c>   8</c><c>Nb</c><c>     92.91000000</c><c>     13.00000000</c><c>  PAW_PBE Nb_sv 25May2007               </c></rc>
    <rc><c>   7</c><c>Zr</c><c>     91.22400000</c><c>     12.00000000</c><c>  PAW_PBE Zr_sv 04Jan2005               </c></rc>
   </set>
  </array>
 </atominfo>
 <structure name="initialpos" >
  <crystal>
   <varray name="basis" >
    <v>       6.84772749       0.00083804      -0.00143663 </v>
    <v>       0.00177085      10.14912574       0.00105253 </v>
    <v>      -0.00201029       0.00085300      10.21029239 </v>
   </varray>
   <i name="volume">    709.59941769 </i>
   <varray name="rec_basis" >
    <v>       0.14603386      -0.00002548       0.00002875 </v>
    <v>      -0.00001206       0.09853066      -0.00000823 </v>
    <v>       0.00002055      -0.00001016       0.09794039 </v>
   </varray>
  </crystal>
  <varray name="positions" >
   <v>       0.23699800       0.84160900       0.50012700 </v>
   <v>       0.76305800       0.84295500       0.49778200 </v>
   <v>       0.23931000       0.49942200       0.17447500 </v>
   <v>       0.99260900       0.66911300       0.00597300 </v>
   <v>       0.22756500       0.83422400       0.17195700 </v>
   <v>       0.76052700       0.49520800       0.49498700 </v>
   <v>       0.77004100       0.83631700       0.17444300 </v>
   <v>       0.99856200       0.99137300       0.00555600 </v>
   <v>       0.76529100       0.51392000       0.83145600 </v>
   <v>       0.00022300       0.66831400       0.33517500 </v>
   <v>       0.25939700       0.15836800       0.49747400 </v>
   <v>       0.23931700       0.14356500       0.82175000 </v>
   <v>       0.49908400       0.99079300       0.66074200 </v>
   <v>       0.48204800       0.34783100       0.35332700 </v>
   <v>       0.49289900       0.33993700       0.66965100 </v>
   <v>       0.50327900       0.98883100       0.00299500 </v>
   <v>       0.74402100       0.16468300       0.49392000 </v>
   <v>       0.01102000       0.33549100       0.66700100 </v>
   <v>       0.76325700       0.15032800       0.82834400 </v>
   <v>       0.50694700       0.66925900       0.66012100 </v>
   <v>       0.48373400       0.33881700       0.98236700 </v>
   <v>       0.75815300       0.83435200       0.82695200 </v>
   <v>       0.23849300       0.50465300       0.49649500 </v>
   <v>       0.49800600       0.98726200       0.33383300 </v>
   <v>       0.00349400       0.99247800       0.33302500 </v>
   <v>       0.00355200       0.99964200       0.65865900 </v>
   <v>       0.99116400       0.66456800       0.66087500 </v>
   <v>       0.01941500       0.34254900       0.34894500 </v>
   <v>       0.22831200       0.52515200       0.83221800 </v>
   <v>       0.75106100       0.16688900       0.17462200 </v>
   <v>       0.23974000       0.83261300       0.82705100 </v>
   <v>       0.75544300       0.48782800       0.17416000 </v>
   <v>       0.49784900       0.66822100       0.33690300 </v>
   <v>       0.01988100       0.33526100       0.98588300 </v>
   <v>       0.50187800       0.66989600       0.00255100 </v>
   <v>       0.25436800       0.16829000       0.17820300 </v>
  </varray>
 </structure>
 <calculation>
  <scstep>
   <time name="dav">    0.99    0.99</time>
   <time name="total">    1.11    1.43</time>
   <energy>
    <i name="alphaZ">   1540.77132183 </i>
    <i name="ewald"> -18684.62789739 </i>
    <i name="hartreedc">  -6210.71031941 </i>
    <i name="XCdc">   -500.20993626 </i>
    <i name="pawpsdc">  20413.51498109 </i>
    <i name="pawaedc"> -18679.22278012 </i>
    <i name="eentropy">      0.00694569 </i>
    <i name="bandstr">     52.70129152 </i>
    <i name="atom">  23790.41883159 </i>
    <i name="e_fr_energy">   1722.64243855 </i>
    <i name="e_wo_entrp">   1722.63549286 </i>
    <i name="e_0_energy">   1722.64012332 </i>
   </energy>
  </scstep>
  <scstep>
   <time name="dav">    1.28    1.29</time>
   <time name="total">    1.29    1.42</time>
   <energy>
    <i name="e_fr_energy">   -118.15958196 </i>
    <i name="e_wo_entrp">   -118.15140793 </i>
    <i name="e_0_energy">   -118.15685728 </i>
   </energy>
  </scstep>
  <scstep>
   <time name="dav">    1.48    1.51</time>
   <time name="total">    1.49    1.54</time>
   <energy>
    <i name="e_fr_energy">   -358.62199841 </i>
    <i name="e_wo_entrp">   -358.61611807 </i>
    <i name="e_0_energy">   -358.62003830 </i>
   </energy>
  </scstep>
  <scstep>
   <time name="dav">    1.46    1.47</time>
   <time name="total">    1.46    1.50</time>
   <energy>
    <i name="e_fr_energy">   -386.54620834 </i>
    <i name="e_wo_entrp">   -386.55530920 </i>
    <i name="e_0_energy">   -386.54924196 </i>
   </energy>
  </scstep>
  <scstep>
   <time name="dav">    1.28    1.29</time>
   <time name="total">    1.31    1.46</time>
   <energy>
    <i name="e_fr_energy">   -389.31732503 </i>
    <i name="e_wo_entrp">   -389.32775608 </i>
    <i name="e_0_energy">   -389.32080204 </i>
   </energy>
  </scstep>
  <scstep>
   <time name="diag">    0.07    0.07</time>
   <time name="diis">    0.72    0.72</time>
   <time name="orth">    0.01    0.01</time>
   <time name="total">    0.87    0.90</time>
   <energy>
    <i name="e_fr_energy">   -378.76911193 </i>
    <i name="e_wo_entrp">   -378.77947402 </i>
    <i name="e_0_energy">   -378.77256596 </i>
   </energy>
  </scstep>
  <scstep>
   <time name="diag">    0.07    0.07</time>
   <time name="diis">    0.77    0.77</time>
   <time name="orth">    0.01    0.01</time>
   <time name="total">    0.92    0.95</time>
   <energy>
    <i name="e_fr_energy">   -381.27252449 </i>
    <i name="e_wo_entrp">   -381.27085417 </i>
    <i name="e_0_energy">   -381.27196771 </i>
   </energy>
  </scstep>
  <scstep>
   <time name="diag">    0.07    0.07</time>
   <time name="diis">    0.75    0.75</time>
   <time name="orth">    0.01    0.01</time>
   <time name="total">    0.90    0.93</time>
   <energy>
    <i name="e_fr_energy">   -374.06524167 </i>
    <i name="e_wo_entrp">   -374.08354262 </i>
    <i name="e_0_energy">   -374.07134199 </i>
   </energy>
  </scstep>
  <scstep>
   <time name="diag">    0.08    0.09</time>
   <time name="diis">    0.77    0.78</time>
   <time name="orth">    0.01    0.01</time>
   <time name="total">    0.94    0.97</time>
   <energy>
    <i name="e_fr_energy">   -373.95552122 </i>
    <i name="e_wo_entrp">   -373.97472150 </i>
    <i name="e_0_energy">   -373.96192131 </i>
   </energy>
  </scstep>
  <scstep>
   <time name="diag">    0.08    0.08</time>
   <time name="diis">    0.88    0.89</time>
   <time name="orth">    0.01    0.01</time>
   <time name="total">    1.04    1.08</time>
   <energy>
    <i name="e_fr_energy">   -373.90102175 </i>
    <i name="e_wo_entrp">   -373.92261107 </i>
    <i name="e_0_energy">   -373.90821819 </i>
   </energy>
  </scstep>
  <scstep>
   <time name="diag">    0.08    0.08</time>
   <time name="diis">    0.84    0.85</time>
   <time name="orth">    0.07    0.07</time>
   <time name="total">    1.06    1.10</time>
   <energy>
    <i name="e_fr_energy">   -373.87294440 </i>
    <i name="e_wo_entrp">   -373.89147433 </i>
    <i name="e_0_energy">   -373.87912105 </i>
   </energy>
  </scstep>
  <scstep>
   <time name="diag">    0.09    0.09</time>
   <time name="diis">    0.77    0.78</time>
   <time name="orth">    0.01    0.01</time>
   <time name="total">    0.96    1.04</time>
   <energy>
    <i name="e_fr_energy">   -373.86745584 </i>
    <i name="e_wo_entrp">   -373.88579641 </i>
    <i name="e_0_energy">   -373.87356936 </i>
   </energy>
  </scstep>
  <scstep>
   <time name="diag">    0.07    0.07</time>
   <time name="diis">    0.84    0.85</time>
   <time name="orth">    0.01    0.01</time>
   <time name="total">    1.02    1.05</time>
   <energy>
    <i name="e_fr_energy">   -373.86677980 </i>
    <i name="e_wo_entrp">   -373.88577277 </i>
    <i name="e_0_energy">   -373.87311079 </i>
   </energy>
  </scstep>
  <scstep>
   <time name="diag">    0.07    0.07</time>
   <time name="diis">    0.84    0.84</time>
   <time name="orth">    0.01    0.01</time>
   <time name="total">    0.99    1.02</time>
   <energy>
    <i name="e_fr_energy">   -373.86644555 </i>
    <i name="e_wo_entrp">   -373.88490201 </i>
    <i name="e_0_energy">   -373.87259770 </i>
   </energy>
  </scstep>
  <scstep>
   <time name="diag">    0.08    0.08</time>
   <time name="diis">    0.78    0.79</time>
   <time name="orth">    0.01    0.01</time>
   <time name="total">    0.94    0.98</time>
   <energy>
    <i name="e_fr_energy">   -373.86657869 </i>
    <i name="e_wo_entrp">   -373.88540932 </i>
    <i name="e_0_energy">   -373.87285556 </i>
   </energy>
  </scstep>
  <scstep>
   <time name="diag">    0.08    0.08</time>
   <time name="diis">    0.73    0.73</time>
   <time name="orth">    0.01    0.01</time>
   <time name="total">    0.90    0.94</time>
   <energy>
    <i name="e_fr_energy">   -373.86658877 </i>
    <i name="e_wo_entrp">   -373.88530023 </i>
    <i name="e_0_energy">   -373.87282592 </i>
   </energy>
  </scstep>
  <scstep>
   <time name="diag">    0.07    0.07</time>
   <time name="diis">    0.70    0.70</time>
   <time name="orth">    0.01    0.01</time>
   <time name="total">    0.85    0.89</time>
   <energy>
    <i name="e_fr_energy">   -373.86659646 </i>
    <i name="e_wo_entrp">   -373.88533666 </i>
    <i name="e_0_energy">   -373.87284320 </i>
   </energy>
  </scstep>
  <scstep>
   <time name="diag">    0.08    0.08</time>
   <time name="diis">    0.60    0.60</time>
   <time name="orth">    0.01    0.01</time>
   <time name="total">    0.76    0.79</time>
   <energy>
    <i name="e_fr_energy">   -373.86660484 </i>
    <i name="e_wo_entrp">   -373.88532335 </i>
    <i name="e_0_energy">   -373.87284435 </i>
   </energy>
  </scstep>
  <scstep>
   <time name="diag">    0.11    0.11</time>
   <time name="diis">    0.49    0.49</time>
   <time name="orth">    0.01    0.01</time>
   <time name="total">    0.68    0.73</time>
   <energy>
    <i name="e_fr_energy">   -373.86661105 </i>
    <i name="e_wo_entrp">   -373.88532657 </i>
    <i name="e_0_energy">   -373.87284956 </i>
   </energy>
  </scstep>
  <scstep>
   <time name="diag">    0.09    0.09</time>
   <time name="diis">    0.43    0.43</time>
   <time name="orth">    0.01    0.01</time>
   <time name="total">    0.58    0.61</time>
   <energy>
    <i name="alphaZ">   1540.77132183 </i>
    <i name="ewald"> -18684.62789739 </i>
    <i name="hartreedc">  -5992.57170559 </i>
    <i name="XCdc">   -497.77175760 </i>
    <i name="pawpsdc">  33178.57679391 </i>
    <i name="pawaedc"> -31429.61521589 </i>
    <i name="eentropy">      0.01871596 </i>
    <i name="bandstr">  -2279.06569775 </i>
    <i name="atom">  23790.41883159 </i>
    <i name="e_fr_energy">   -373.86661092 </i>
    <i name="e_wo_entrp">   -373.88532689 </i>
    <i name="e_0_energy">   -373.87284958 </i>
   </energy>
  </scstep>
  <structure>
   <crystal>
    <varray name="basis" >
     <v>       6.84772749       0.00083804      -0.00143663 </v>
     <v>       0.00177085      10.14912574       0.00105253 </v>
     <v>      -0.00201029       0.00085300      10.21029239 </v>
    </varray>
    <i name="volume">    709.59941769 </i>
    <varray name="rec_basis" >
     <v>       0.14603386      -0.00002548       0.00002875 </v>
     <v>      -0.00001206       0.09853066      -0.00000823 </v>
     <v>       0.00002055      -0.00001016       0.09794039 </v>
    </varray>
   </crystal>
   <varray name="positions" >
    <v>       0.23699800       0.84160900       0.50012700 </v>
    <v>       0.76305800       0.84295500       0.49778200 </v>
    <v>       0.23931000       0.49942200       0.17447500 </v>
    <v>       0.99260900       0.66911300       0.00597300 </v>
    <v>       0.22756500       0.83422400       0.17195700 </v>
    <v>       0.76052700       0.49520800       0.49498700 </v>
    <v>       0.77004100       0.83631700       0.17444300 </v>
    <v>       0.99856200       0.99137300       0.00555600 </v>
    <v>       0.76529100       0.51392000       0.83145600 </v>
    <v>       0.00022300       0.66831400       0.33517500 </v>
    <v>       0.25939700       0.15836800       0.49747400 </v>
    <v>       0.23931700       0.14356500       0.82175000 </v>
    <v>       0.49908400       0.99079300       0.66074200 </v>
    <v>       0.48204800       0.34783100       0.35332700 </v>
    <v>       0.49289900       0.33993700       0.66965100 </v>
    <v>       0.50327900       0.98883100       0.00299500 </v>
    <v>       0.74402100       0.16468300       0.49392000 </v>
    <v>       0.01102000       0.33549100       0.66700100 </v>
    <v>       0.76325700       0.15032800       0.82834400 </v>
    <v>       0.50694700       0.66925900       0.66012100 </v>
    <v>       0.48373400       0.33881700       0.98236700 </v>
    <v>       0.75815300       0.83435200       0.82695200 </v>
    <v>       0.23849300       0.50465300       0.49649500 </v>
    <v>       0.49800600       0.98726200       0.33383300 </v>
    <v>       0.00349400       0.99247800       0.33302500 </v>
    <v>       0.00355200       0.99964200       0.65865900 </v>
    <v>       0.99116400       0.66456800       0.66087500 </v>
    <v>       0.01941500       0.34254900       0.34894500 </v>
    <v>       0.22831200       0.52515200       0.83221800 </v>
    <v>       0.75106100       0.16688900       0.17462200 </v>
    <v>       0.23974000       0.83261300       0.82705100 </v>
    <v>       0.75544300       0.48782800       0.17416000 </v>
    <v>       0.49784900       0.66822100       0.33690300 </v>
    <v>       0.01988100       0.33526100       0.98588300 </v>
    <v>       0.50187800       0.66989600       0.00255100 </v>
    <v>       0.25436800       0.16829000       0.17820300 </v>
   </varray>
  </structure>
  <varray name="forces" >
   <v>       0.00819669      -0.00126804       0.00931217 </v>
   <v>      -0.01221385      -0.00474226       0.00601786 </v>
   <v>       0.04266303      -0.06864248      -0.04353928 </v>
   <v>      -0.00355871       0.02098165       0.00189560 </v>
   <v>      -0.00309161       0.00266624      -0.00296824 </v>
   <v>      -0.01112884      -0.00604448      -0.01283540 </v>
   <v>      -0.00016755       0.00604963      -0.01818436 </v>
   <v>      -0.00641631      -0.01760040       0.00199999 </v>
   <v>      -0.03712682      -0.04630567       0.04246256 </v>
   <v>       0.00291230       0.01615951       0.00813561 </v>
   <v>       0.00960314       0.01611573       0.00542118 </v>
   <v>       0.04990473       0.06078865       0.05178967 </v>
   <v>      -0.00225340       0.00276918      -0.01334526 </v>
   <v>       0.00229581       0.00601732      -0.03476808 </v>
   <v>      -0.01010148       0.00747843       0.10987876 </v>
   <v>       0.00059722       0.06359328       0.00544603 </v>
   <v>      -0.00655204       0.01066947       0.00363082 </v>
   <v>       0.00469202      -0.00515454      -0.01687630 </v>
   <v>      -0.02717083       0.03213612       0.03424208 </v>
   <v>       0.00576299       0.00501527      -0.00796134 </v>
   <v>      -0.08073402       0.05372034      -0.10913593 </v>
   <v>      -0.00686259      -0.01357853       0.01700921 </v>
   <v>      -0.00137272      -0.00429261      -0.01746612 </v>
   <v>       0.00118668      -0.01068464       0.00552968 </v>
   <v>       0.00281734      -0.01672064       0.00050213 </v>
   <v>       0.00444768      -0.00175555      -0.01921406 </v>
   <v>       0.00763416       0.01905731      -0.01581697 </v>
   <v>       0.00113214      -0.00539097       0.00923744 </v>
   <v>       0.00990193      -0.03910831       0.02485716 </v>
   <v>      -0.01784100       0.01522714      -0.02037959 </v>
   <v>       0.00915194      -0.00870281       0.00545874 </v>
   <v>      -0.00870367      -0.01611985      -0.00431740 </v>
   <v>      -0.01107767       0.00388054       0.01355044 </v>
   <v>       0.06827415      -0.00352384      -0.00967026 </v>
   <v>       0.00747427      -0.08812807      -0.00070644 </v>
   <v>       0.00772488       0.01543786      -0.00919209 </v>
  </varray>
  <varray name="stress" >
   <v>      -1.22664307      -0.03859682      -0.00571379 </v>
   <v>      -0.03859676      -0.88239142      -0.16900780 </v>
   <v>      -0.00571379      -0.16900778      -0.57339552 </v>
  </varray>
  <energy>
   <i name="e_fr_energy">   -373.86661092 </i>
   <i name="e_wo_entrp">   -373.87284958 </i>
   <i name="e_0_energy">      0.01871596 </i>
  </energy>
  <time name="totalsc">   21.68   23.06</time>
 </calculation>
 <calculation>
  <scstep>
   <time name="dav">    1.06    1.07</time>
   <time name="total">    1.19    1.32</time>
   <energy>
    <i name="alphaZ">   1541.50746358 </i>
    <i name="ewald"> -18688.38219817 </i>
    <i name="hartreedc">  -5992.79887586 </i>
    <i name="XCdc">   -497.64717196 </i>
    <i name="pawpsdc">  33178.64022910 </i>
    <i name="pawaedc"> -31429.67582659 </i>
    <i name="eentropy">      0.01905286 </i>
    <i name="bandstr">  -2275.94982555 </i>
    <i name="atom">  23790.41883159 </i>
    <i name="e_fr_energy">   -373.86832101 </i>
    <i name="e_wo_entrp">   -373.88737387 </i>
    <i name="e_0_energy">   -373.87467196 </i>
   </energy>
  </scstep>
  <scstep>
   <time name="diag">    0.08    0.08</time>
   <time name="diis">    0.81    0.81</time>
   <time name="orth">    0.01    0.01</time>
   <time name="total">    1.09    1.13</time>
   <energy>
    <i name="e_fr_energy">   -373.86817465 </i>
    <i name="e_wo_entrp">   -373.88700146 </i>
    <i name="e_0_energy">   -373.87445025 </i>
   </energy>
  </scstep>
  <scstep>
   <time name="diag">    0.08    0.13</time>
   <time name="diis">    0.77    0.77</time>
   <time name="orth">    0.01    0.01</time>
   <time name="total">    0.93    1.04</time>
   <energy>
    <i name="e_fr_energy">   -373.86801200 </i>
    <i name="e_wo_entrp">   -373.88701109 </i>
    <i name="e_0_energy">   -373.87434503 </i>
   </energy>
  </scstep>
  <scstep>
   <time name="diag">    0.07    0.07</time>
   <time name="diis">    0.74    0.75</time>
   <time name="orth">    0.01    0.01</time>
   <time name="total">    0.89    0.93</time>
   <energy>
    <i name="e_fr_energy">   -373.86794834 </i>
    <i name="e_wo_entrp">   -373.88685269 </i>
    <i name="e_0_energy">   -373.87424979 </i>
   </energy>
  </scstep>
  <scstep>
   <time name="diag">    0.08    0.09</time>
   <time name="diis">    0.70    0.70</time>
   <time name="orth">    0.01    0.01</time>
   <time name="total">    0.85    0.91</time>
   <energy>
    <i name="e_fr_energy">   -373.86793242 </i>
    <i name="e_wo_entrp">   -373.88684680 </i>
    <i name="e_0_energy">   -373.87423721 </i>
   </energy>
  </scstep>
  <scstep>
   <time name="diag">    0.09    0.09</time>
   <time name="diis">    0.36    0.36</time>
   <time name="orth">    0.01    0.01</time>
   <time name="total">    0.49    0.53</time>
   <energy>
    <i name="alphaZ">   1541.50746358 </i>
    <i name="ewald"> -18688.38219817 </i>
    <i name="hartreedc">  -5990.84300818 </i>
    <i name="XCdc">   -497.72722195 </i>
    <i name="pawpsdc">  33200.61395306 </i>
    <i name="pawaedc"> -31451.71697492 </i>
    <i name="eentropy">      0.01893316 </i>
    <i name="bandstr">  -2277.75771514 </i>
    <i name="atom">  23790.41883159 </i>
    <i name="e_fr_energy">   -373.86793697 </i>
    <i name="e_wo_entrp">   -373.88687013 </i>
    <i name="e_0_energy">   -373.87424803 </i>
   </energy>
  </scstep>
  <structure>
   <crystal>
    <varray name="basis" >
     <v>       6.84623188       0.00079089      -0.00144348 </v>
     <v>       0.00170071      10.14753113       0.00074701 </v>
     <v>      -0.00202024       0.00054563      10.20924994 </v>
    </varray>
    <i name="volume">    709.26055085 </i>
    <varray name="rec_basis" >
     <v>       0.14606576      -0.00002448       0.00002891 </v>
     <v>      -0.00001139       0.09854614      -0.00000527 </v>
     <v>       0.00002065      -0.00000721       0.09795039 </v>
    </varray>
   </crystal>
   <varray name="positions" >
    <v>       0.23701533       0.84160719       0.50014020 </v>
    <v>       0.76303219       0.84294824       0.49779053 </v>
    <v>       0.23940018       0.49932411       0.17441331 </v>
    <v>       0.99260147       0.66914292       0.00597568 </v>
    <v>       0.22755846       0.83422780       0.17195279 </v>
    <v>       0.76050348       0.49519938       0.49496880 </v>
    <v>       0.77004064       0.83632563       0.17441722 </v>
    <v>       0.99854845       0.99134790       0.00555884 </v>
    <v>       0.76521257       0.51385397       0.83151619 </v>
    <v>       0.00022915       0.66833704       0.33518653 </v>
    <v>       0.25941729       0.15839098       0.49748168 </v>
    <v>       0.23942247       0.14365167       0.82182342 </v>
    <v>       0.49907923       0.99079695       0.66072308 </v>
    <v>       0.48205284       0.34783958       0.35327772 </v>
    <v>       0.49287769       0.33994765       0.66980675 </v>
    <v>       0.50328024       0.98892168       0.00300271 </v>
    <v>       0.74400715       0.16469822       0.49392514 </v>
    <v>       0.01102991       0.33548365       0.66697708 </v>
    <v>       0.76319958       0.15037383       0.82839252 </v>
    <v>       0.50695918       0.66926615       0.66010972 </v>
    <v>       0.48356330       0.33889363       0.98221227 </v>
    <v>       0.75813851       0.83433264       0.82697611 </v>
    <v>       0.23849009       0.50464688       0.49647024 </v>
    <v>       0.49800851       0.98724676       0.33384084 </v>
    <v>       0.00349996       0.99245416       0.33302572 </v>
    <v>       0.00356139       0.99963950       0.65863177 </v>
    <v>       0.99118012       0.66459518       0.66085258 </v>
    <v>       0.01941740       0.34254131       0.34895809 </v>
    <v>       0.22833295       0.52509623       0.83225324 </v>
    <v>       0.75102328       0.16691072       0.17459310 </v>
    <v>       0.23975935       0.83260059       0.82705874 </v>
    <v>       0.75542461       0.48780501       0.17415388 </v>
    <v>       0.49782559       0.66822653       0.33692220 </v>
    <v>       0.02002530       0.33525596       0.98586931 </v>
    <v>       0.50189383       0.66977033       0.00255001 </v>
    <v>       0.25438432       0.16831201       0.17818997 </v>
   </varray>
  </structure>
  <varray name="forces" >
   <v>       0.00903632      -0.00254974       0.00934022 </v>
   <v>      -0.01237854      -0.00512421       0.00563815 </v>
   <v>       0.04030352      -0.06148371      -0.03778359 </v>
   <v>      -0.00472760       0.01779146       0.00171563 </v>
   <v>       0.00069222       0.00280250      -0.00267271 </v>
   <v>      -0.01053672      -0.00428805      -0.01150012 </v>
   <v>      -0.00346134       0.00432544      -0.01646938 </v>
   <v>      -0.00632753      -0.01431955       0.00097981 </v>
   <v>      -0.03116971      -0.04397305       0.03957375 </v>
   <v>       0.00247045       0.01221725       0.00551160 </v>
   <v>       0.00838100       0.01495131       0.00494395 </v>
   <v>       0.04498087       0.05182375       0.04470264 </v>
   <v>      -0.00078827       0.00444882      -0.00950469 </v>
   <v>       0.00347025       0.00459781      -0.03307984 </v>
   <v>      -0.00854927       0.00620294       0.09759662 </v>
   <v>       0.00012122       0.05623061       0.00605655 </v>
   <v>      -0.00604381       0.00983920       0.00434139 </v>
   <v>       0.00271371      -0.00579819      -0.01501291 </v>
   <v>      -0.02418211       0.03287164       0.03211484 </v>
   <v>       0.00458658       0.00367845      -0.00707039 </v>
   <v>      -0.07054057       0.04730237      -0.09679477 </v>
   <v>      -0.00636690      -0.01269479       0.01565914 </v>
   <v>       0.00070524      -0.00204811      -0.01465623 </v>
   <v>       0.00150983      -0.00714848       0.00217599 </v>
   <v>       0.00119583      -0.01052277      -0.00011963 </v>
   <v>       0.00415144       0.00186591      -0.01150511 </v>
   <v>       0.00536561       0.01626742      -0.01263681 </v>
   <v>      -0.00106724      -0.00795938       0.00601862 </v>
   <v>       0.00910251      -0.03331034       0.02145925 </v>
   <v>      -0.01586654       0.01552298      -0.02000929 </v>
   <v>       0.00896290      -0.00713563       0.00434211 </v>
   <v>      -0.00977351      -0.01624210      -0.00645904 </v>
   <v>      -0.00946604       0.00183629       0.00989737 </v>
   <v>       0.05867439      -0.00596754      -0.00747991 </v>
   <v>       0.00690654      -0.07891874       0.00043694 </v>
   <v>       0.00791528       0.01490823      -0.00975014 </v>
  </varray>
  <varray name="stress" >
   <v>      -0.53259279      -0.02446145       0.00311972 </v>
   <v>      -0.02446140      -0.28217201      -0.16116645 </v>
   <v>       0.00311967      -0.16116649      -0.00072506 </v>
  </varray>
  <energy>
   <i name="e_fr_energy">   -373.86793697 </i>
   <i name="e_wo_entrp">   -373.87424803 </i>
   <i name="e_0_energy">      0.01893316 </i>
  </energy>
  <time name="totalsc">    7.12    7.68</time>
 </calculation>
 <calculation>
  <scstep>
   <time name="dav">    1.07    1.08</time>
   <time name="total">    1.22    1.35</time>
   <energy>
    <i name="alphaZ">   1543.71878494 </i>
    <i name="ewald"> -18699.62524718 </i>
    <i name="hartreedc">  -5991.56628551 </i>
    <i name="XCdc">   -497.35069464 </i>
    <i name="pawpsdc">  33199.22413520 </i>
    <i name="pawaedc"> -31450.31159679 </i>
    <i name="eentropy">      0.01988119 </i>
    <i name="bandstr">  -2268.40145781 </i>
    <i name="atom">  23790.41883159 </i>
    <i name="e_fr_energy">   -373.87364901 </i>
    <i name="e_wo_entrp">   -373.89353020 </i>
    <i name="e_0_energy">   -373.88027607 </i>
   </energy>
  </scstep>
  <scstep>
   <time name="diag">    0.07    0.07</time>
   <time name="diis">    0.74    0.75</time>
   <time name="orth">    0.01    0.01</time>
   <time name="total">    0.89    0.92</time>
   <energy>
    <i name="e_fr_energy">   -373.87234827 </i>
    <i name="e_wo_entrp">   -373.89159616 </i>
    <i name="e_0_energy">   -373.87876423 </i>
   </energy>
  </scstep>
  <scstep>
   <time name="diag">    0.07    0.07</time>
   <time name="diis">    0.78    0.78</time>
   <time name="orth">    0.02    0.02</time>
   <time name="total">    0.94    0.98</time>
   <energy>
    <i name="e_fr_energy">   -373.87086530 </i>
    <i name="e_wo_entrp">   -373.89060243 </i>
    <i name="e_0_energy">   -373.87744434 </i>
   </energy>
  </scstep>
  <scstep>
   <time name="diag">    0.10    0.10</time>
   <time name="diis">    0.80    0.81</time>
   <time name="orth">    0.01    0.01</time>
   <time name="total">    0.98    1.02</time>
   <energy>
    <i name="e_fr_energy">   -373.87028608 </i>
    <i name="e_wo_entrp">   -373.88975679 </i>
    <i name="e_0_energy">   -373.87677632 </i>
   </energy>
  </scstep>
  <scstep>
   <time name="diag">    0.12    0.12</time>
   <time name="diis">    0.83    0.84</time>
   <time name="orth">    0.01    0.01</time>
   <time name="total">    1.02    1.09</time>
   <energy>
    <i name="e_fr_energy">   -373.87013636 </i>
    <i name="e_wo_entrp">   -373.88963770 </i>
    <i name="e_0_energy">   -373.87663681 </i>
   </energy>
  </scstep>
  <scstep>
   <time name="diag">    0.07    0.07</time>
   <time name="diis">    0.72    0.72</time>
   <time name="orth">    0.01    0.01</time>
   <time name="total">    0.87    0.90</time>
   <energy>
    <i name="e_fr_energy">   -373.87016181 </i>
    <i name="e_wo_entrp">   -373.88971799 </i>
    <i name="e_0_energy">   -373.87668053 </i>
   </energy>
  </scstep>
  <scstep>
   <time name="diag">    0.07    0.07</time>
   <time name="diis">    0.64    0.64</time>
   <time name="orth">    0.01    0.01</time>
   <time name="total">    0.79    0.83</time>
   <energy>
    <i name="e_fr_energy">   -373.87018236 </i>
    <i name="e_wo_entrp">   -373.88967939 </i>
    <i name="e_0_energy">   -373.87668137 </i>
   </energy>
  </scstep>
  <scstep>
   <time name="diag">    0.07    0.07</time>
   <time name="diis">    0.46    0.46</time>
   <time name="orth">    0.01    0.01</time>
   <time name="total">    0.61    0.64</time>
   <energy>
    <i name="e_fr_energy">   -373.87019768 </i>
    <i name="e_wo_entrp">   -373.88974473 </i>
    <i name="e_0_energy">   -373.87671336 </i>
   </energy>
  </scstep>
  <scstep>
   <time name="diag">    0.07    0.07</time>
   <time name="diis">    0.44    0.44</time>
   <time name="orth">    0.01    0.01</time>
   <time name="total">    0.60    0.63</time>
   <energy>
    <i name="e_fr_energy">   -373.87020960 </i>
    <i name="e_wo_entrp">   -373.88974135 </i>
    <i name="e_0_energy">   -373.87672018 </i>
   </energy>
  </scstep>
  <scstep>
   <time name="diag">    0.08    0.08</time>
   <time name="diis">    0.36    0.37</time>
   <time name="orth">    0.01    0.01</time>
   <time name="total">    0.48    0.52</time>
   <energy>
    <i name="alphaZ">   1543.71878494 </i>
    <i name="ewald"> -18699.62524718 </i>
    <i name="hartreedc">  -5986.08331081 </i>
    <i name="XCdc">   -497.57245593 </i>
    <i name="pawpsdc">  33259.33799936 </i>
    <i name="pawaedc"> -31510.33609357 </i>
    <i name="eentropy">      0.01953477 </i>
    <i name="bandstr">  -2273.74825900 </i>
    <i name="atom">  23790.41883159 </i>
    <i name="e_fr_energy">   -373.87021582 </i>
    <i name="e_wo_entrp">   -373.88975059 </i>
    <i name="e_0_energy">   -373.87672741 </i>
   </energy>
  </scstep>
  <structure>
   <crystal>
    <varray name="basis" >
     <v>       6.84174505       0.00064944      -0.00146401 </v>
     <v>       0.00149031      10.14274730      -0.00016956 </v>
     <v>      -0.00205011      -0.00037650      10.20612260 </v>
    </varray>
    <i name="volume">    708.24456075 </i>
    <varray name="rec_basis" >
     <v>       0.14616155      -0.00002148       0.00002936 </v>
     <v>      -0.00000936       0.09859262       0.00000364 </v>
     <v>       0.00002097       0.00000163       0.09798041 </v>
    </varray>
   </crystal>
   <varray name="positions" >
    <v>       0.23706732       0.84160176       0.50017981 </v>
    <v>       0.76295474       0.84292795       0.49781611 </v>
    <v>       0.23967076       0.49903040       0.17422820 </v>
    <v>       0.99257888       0.66923270       0.00598373 </v>
    <v>       0.22753885       0.83423921       0.17194016 </v>
    <v>       0.76043289       0.49517353       0.49491421 </v>
    <v>       0.77003954       0.83635152       0.17433989 </v>
    <v>       0.99850778       0.99127260       0.00556734 </v>
    <v>       0.76497721       0.51365585       0.83169675 </v>
    <v>       0.00024762       0.66840618       0.33522113 </v>
    <v>       0.25947818       0.15845993       0.49750474 </v>
    <v>       0.23973897       0.14391173       0.82204370 </v>
    <v>       0.49906492       0.99080880       0.66066632 </v>
    <v>       0.48206735       0.34786534       0.35312985 </v>
    <v>       0.49281376       0.33997963       0.67027403 </v>
    <v>       0.50328397       0.98919378       0.00302585 </v>
    <v>       0.74396559       0.16474387       0.49394058 </v>
    <v>       0.01105965       0.33546160       0.66690531 </v>
    <v>       0.76302727       0.15051133       0.82853812 </v>
    <v>       0.50699571       0.66928761       0.66007586 </v>
    <v>       0.48305110       0.33912355       0.98174804 </v>
    <v>       0.75809502       0.83427454       0.82704845 </v>
    <v>       0.23848137       0.50462852       0.49639596 </v>
    <v>       0.49801606       0.98720104       0.33386436 </v>
    <v>       0.00351785       0.99238261       0.33302786 </v>
    <v>       0.00358958       0.99963199       0.65855006 </v>
    <v>       0.99122850       0.66467672       0.66078531 </v>
    <v>       0.01942460       0.34251824       0.34899738 </v>
    <v>       0.22839582       0.52492888       0.83235898 </v>
    <v>       0.75091009       0.16697589       0.17450641 </v>
    <v>       0.23981741       0.83256334       0.82708197 </v>
    <v>       0.75536942       0.48773605       0.17413552 </v>
    <v>       0.49775535       0.66824314       0.33697982 </v>
    <v>       0.02045828       0.33524086       0.98582825 </v>
    <v>       0.50194132       0.66939325       0.00254704 </v>
    <v>       0.25443328       0.16837807       0.17815088 </v>
   </varray>
  </structure>
  <varray name="forces" >
   <v>       0.01212254      -0.00814061       0.01069348 </v>
   <v>      -0.01362853      -0.00802518       0.00565338 </v>
   <v>       0.03450956      -0.04065101      -0.02097960 </v>
   <v>      -0.00754685       0.00857541      -0.00081998 </v>
   <v>       0.01108593       0.00145313      -0.00303679 </v>
   <v>      -0.01029063       0.00159744      -0.00810950 </v>
   <v>      -0.01238178      -0.00248490      -0.01286395 </v>
   <v>      -0.00653518      -0.00774039      -0.00122459 </v>
   <v>      -0.01611851      -0.03618284       0.03199342 </v>
   <v>       0.00125819       0.00118965      -0.00110983 </v>
   <v>       0.00560643       0.01286192       0.00320694 </v>
   <v>       0.03162574       0.02547746       0.02434425 </v>
   <v>       0.00365844       0.00727027      -0.00060600 </v>
   <v>       0.00804546       0.00026040      -0.02921727 </v>
   <v>      -0.00335858       0.00467305       0.06059900 </v>
   <v>      -0.00095636       0.03361655       0.00790339 </v>
   <v>      -0.00506627       0.00802315       0.00590239 </v>
   <v>      -0.00315808      -0.00560554      -0.01058826 </v>
   <v>      -0.01615493       0.03551762       0.02619892 </v>
   <v>       0.00175738      -0.00053911      -0.00365976 </v>
   <v>      -0.04071987       0.03117861      -0.06026553 </v>
   <v>      -0.00357715      -0.00900890       0.01115754 </v>
   <v>       0.00547653       0.00426141      -0.00524413 </v>
   <v>       0.00257149       0.00161990      -0.00751024 </v>
   <v>      -0.00358320       0.00653897      -0.00095648 </v>
   <v>       0.00341184       0.01090171       0.00991007 </v>
   <v>      -0.00052962       0.00669174      -0.00221344 </v>
   <v>      -0.00690787      -0.01205372      -0.00047400 </v>
   <v>       0.00399700      -0.01273640       0.00870285 </v>
   <v>      -0.00864976       0.01514109      -0.01811277 </v>
   <v>       0.00856161      -0.00396125       0.00107836 </v>
   <v>      -0.01147939      -0.01586903      -0.01253072 </v>
   <v>      -0.00578290      -0.00406603       0.00057925 </v>
   <v>       0.03109908      -0.00927265      -0.00189039 </v>
   <v>       0.00481149      -0.05298146       0.00296234 </v>
   <v>       0.00682674       0.01246951      -0.00947232 </v>
  </varray>
  <varray name="stress" >
   <v>       1.73479006       0.00667187       0.02946955 </v>
   <v>       0.00667187       1.79274117      -0.09174131 </v>
   <v>       0.02946955      -0.09174127       1.87262744 </v>
  </varray>
  <energy>
   <i name="e_fr_energy">   -373.87021582 </i>
   <i name="e_wo_entrp">   -373.87672741 </i>
   <i name="e_0_energy">      0.01953477 </i>
  </energy>
  <time name="totalsc">    9.98   10.61</time>
 </calculation>
 <calculation>
  <scstep>
   <time name="dav">    1.08    1.09</time>
   <time name="total">    1.20    1.34</time>
   <energy>
    <i name="alphaZ">   1544.56050728 </i>
    <i name="ewald"> -18703.89143200 </i>
    <i name="hartreedc">  -5986.37474929 </i>
    <i name="XCdc">   -497.42895800 </i>
    <i name="pawpsdc">  33259.70155106 </i>
    <i name="pawaedc"> -31510.66649742 </i>
    <i name="eentropy">      0.01990089 </i>
    <i name="bandstr">  -2270.21002534 </i>
    <i name="atom">  23790.41883159 </i>
    <i name="e_fr_energy">   -373.87087122 </i>
    <i name="e_wo_entrp">   -373.89077211 </i>
    <i name="e_0_energy">   -373.87750485 </i>
   </energy>
  </scstep>
  <scstep>
   <time name="diag">    0.07    0.07</time>
   <time name="diis">    0.74    0.74</time>
   <time name="orth">    0.01    0.01</time>
   <time name="total">    0.89    0.92</time>
   <energy>
    <i name="e_fr_energy">   -373.87068066 </i>
    <i name="e_wo_entrp">   -373.89033719 </i>
    <i name="e_0_energy">   -373.87723284 </i>
   </energy>
  </scstep>
  <scstep>
   <time name="diag">    0.08    0.08</time>
   <time name="diis">    0.77    0.77</time>
   <time name="orth">    0.01    0.01</time>
   <time name="total">    0.94    0.99</time>
   <energy>
    <i name="e_fr_energy">   -373.87047043 </i>
    <i name="e_wo_entrp">   -373.89031529 </i>
    <i name="e_0_energy">   -373.87708538 </i>
   </energy>
  </scstep>
  <scstep>
   <time name="diag">    0.07    0.07</time>
   <time name="diis">    0.82    0.82</time>
   <time name="orth">    0.02    0.02</time>
   <time name="total">    1.00    1.03</time>
   <energy>
    <i name="e_fr_energy">   -373.87039251 </i>
    <i name="e_wo_entrp">   -373.89013075 </i>
    <i name="e_0_energy">   -373.87697192 </i>
   </energy>
  </scstep>
  <scstep>
   <time name="diag">    0.08    0.10</time>
   <time name="diis">    0.61    0.66</time>
   <time name="orth">    0.02    0.03</time>
   <time name="total">    0.80    0.96</time>
   <energy>
    <i name="e_fr_energy">   -373.87037387 </i>
    <i name="e_wo_entrp">   -373.89012511 </i>
    <i name="e_0_energy">   -373.87695762 </i>
   </energy>
  </scstep>
  <scstep>
   <time name="diag">    0.08    0.08</time>
   <time name="diis">    0.38    0.39</time>
   <time name="orth">    0.01    0.01</time>
   <time name="total">    0.50    0.54</time>
   <energy>
    <i name="alphaZ">   1544.56050728 </i>
    <i name="ewald"> -18703.89143200 </i>
    <i name="hartreedc">  -5984.20668684 </i>
    <i name="XCdc">   -497.51741615 </i>
    <i name="pawpsdc">  33285.67807456 </i>
    <i name="pawaedc"> -31536.67566048 </i>
    <i name="eentropy">      0.01977138 </i>
    <i name="bandstr">  -2272.25636949 </i>
    <i name="atom">  23790.41883159 </i>
    <i name="e_fr_energy">   -373.87038014 </i>
    <i name="e_wo_entrp">   -373.89015153 </i>
    <i name="e_0_energy">   -373.87697060 </i>
   </energy>
  </scstep>
  <structure>
   <crystal>
    <varray name="basis" >
     <v>       6.84003949       0.00059568      -0.00147182 </v>
     <v>       0.00141032      10.14092884      -0.00051797 </v>
     <v>      -0.00206146      -0.00072702      10.20493381 </v>
    </varray>
    <i name="volume">    707.85859642 </i>
    <varray name="rec_basis" >
     <v>       0.14619799      -0.00002033       0.00002953 </v>
     <v>      -0.00000859       0.09861030       0.00000702 </v>
     <v>       0.00002109       0.00000500       0.09799182 </v>
    </varray>
   </crystal>
   <varray name="positions" >
    <v>       0.23708710       0.84159969       0.50019487 </v>
    <v>       0.76292528       0.84292024       0.49782584 </v>
    <v>       0.23977368       0.49891869       0.17415781 </v>
    <v>       0.99257029       0.66926684       0.00598680 </v>
    <v>       0.22753139       0.83424355       0.17193536 </v>
    <v>       0.76040604       0.49516370       0.49489345 </v>
    <v>       0.77003913       0.83636136       0.17431048 </v>
    <v>       0.99849230       0.99124396       0.00557057 </v>
    <v>       0.76488769       0.51358051       0.83176541 </v>
    <v>       0.00025464       0.66843248       0.33523429 </v>
    <v>       0.25950135       0.15848615       0.49751351 </v>
    <v>       0.23985936       0.14401064       0.82212746 </v>
    <v>       0.49905948       0.99081331       0.66064474 </v>
    <v>       0.48207286       0.34787513       0.35307363 </v>
    <v>       0.49278944       0.33999181       0.67045172 </v>
    <v>       0.50328539       0.98929726       0.00303466 </v>
    <v>       0.74394978       0.16476123       0.49394644 </v>
    <v>       0.01107096       0.33545321       0.66687802 </v>
    <v>       0.76296173       0.15056363       0.82859348 </v>
    <v>       0.50700960       0.66929577       0.66006299 </v>
    <v>       0.48285627       0.33921097       0.98157153 </v>
    <v>       0.75807848       0.83425244       0.82707595 </v>
    <v>       0.23847805       0.50462153       0.49636772 </v>
    <v>       0.49801893       0.98718366       0.33387330 </v>
    <v>       0.00352465       0.99235540       0.33302867 </v>
    <v>       0.00360030       0.99962913       0.65851899 </v>
    <v>       0.99124690       0.66470773       0.66075974 </v>
    <v>       0.01942733       0.34250947       0.34901232 </v>
    <v>       0.22841974       0.52486524       0.83239918 </v>
    <v>       0.75086704       0.16700067       0.17447345 </v>
    <v>       0.23983949       0.83254918       0.82709080 </v>
    <v>       0.75534843       0.48770982       0.17412853 </v>
    <v>       0.49772863       0.66824946       0.33700173 </v>
    <v>       0.02062297       0.33523511       0.98581264 </v>
    <v>       0.50195938       0.66924984       0.00254590 </v>
    <v>       0.25445190       0.16840319       0.17813602 </v>
   </varray>
  </structure>
  <varray name="forces" >
   <v>       0.01297932      -0.00945274       0.01089805 </v>
   <v>      -0.01371478      -0.00838036       0.00536759 </v>
   <v>       0.03184913      -0.03272975      -0.01447270 </v>
   <v>      -0.00869049       0.00518024      -0.00123187 </v>
   <v>       0.01507359       0.00156470      -0.00258758 </v>
   <v>      -0.00970174       0.00365178      -0.00683403 </v>
   <v>      -0.01596563      -0.00440490      -0.01084341 </v>
   <v>      -0.00652251      -0.00425683      -0.00240901 </v>
   <v>      -0.00924432      -0.03356688       0.02875777 </v>
   <v>       0.00073170      -0.00334018      -0.00394314 </v>
   <v>       0.00422318       0.01152284       0.00267897 </v>
   <v>       0.02606923       0.01531431       0.01629215 </v>
   <v>       0.00531858       0.00915417       0.00329775 </v>
   <v>       0.00948674      -0.00130232      -0.02724578 </v>
   <v>      -0.00149558       0.00315871       0.04584186 </v>
   <v>      -0.00134988       0.02566458       0.00866600 </v>
   <v>      -0.00400156       0.00691660       0.00687407 </v>
   <v>      -0.00532645      -0.00602303      -0.00885557 </v>
   <v>      -0.01253858       0.03658423       0.02362403 </v>
   <v>       0.00025127      -0.00214023      -0.00278780 </v>
   <v>      -0.02907006       0.02373680      -0.04599704 </v>
   <v>      -0.00343891      -0.00774781       0.01014932 </v>
   <v>       0.00770625       0.00627818      -0.00222137 </v>
   <v>       0.00301416       0.00519712      -0.01050282 </v>
   <v>      -0.00529224       0.01262584      -0.00169145 </v>
   <v>       0.00334670       0.01547073       0.01789827 </v>
   <v>      -0.00296882       0.00297336       0.00076963 </v>
   <v>      -0.00920095      -0.01417929      -0.00266630 </v>
   <v>       0.00179139      -0.00599320       0.00420442 </v>
   <v>      -0.00595804       0.01503213      -0.01782959 </v>
   <v>       0.00831503      -0.00154529      -0.00021795 </v>
   <v>      -0.01188339      -0.01597069      -0.01510015 </v>
   <v>      -0.00426535      -0.00654143      -0.00299971 </v>
   <v>       0.01985319      -0.01161178       0.00059475 </v>
   <v>       0.00404230      -0.04215035       0.00460651 </v>
   <v>       0.00657752       0.01131076      -0.01008384 </v>
  </varray>
  <varray name="stress" >
   <v>       2.59914333       0.02042692       0.03965513 </v>
   <v>       0.02042683       2.54497102      -0.08360831 </v>
   <v>       0.03965516      -0.08360831       2.58433518 </v>
  </varray>
  <energy>
   <i name="e_fr_energy">   -373.87038014 </i>
   <i name="e_wo_entrp">   -373.87697060 </i>
   <i name="e_0_energy">      0.01977138 </i>
  </energy>
  <time name="totalsc">    6.93    7.52</time>
 </calculation>
 <calculation>
  <scstep>
   <time name="dav">    0.95    0.96</time>
   <time name="total">    1.10    1.25</time>
   <energy>
    <i name="alphaZ">   1543.82607094 </i>
    <i name="ewald"> -18701.87377076 </i>
    <i name="hartreedc">  -5982.40664177 </i>
    <i name="XCdc">   -497.64625835 </i>
    <i name="pawpsdc">  33284.23507054 </i>
    <i name="pawaedc"> -31535.20906019 </i>
    <i name="eentropy">      0.01992734 </i>
    <i name="bandstr">  -2275.23592700 </i>
    <i name="atom">  23790.41883159 </i>
    <i name="e_fr_energy">   -373.87175766 </i>
    <i name="e_wo_entrp">   -373.89168500 </i>
    <i name="e_0_energy">   -373.87840010 </i>
   </energy>
  </scstep>
  <scstep>
   <time name="diag">    0.07    0.07</time>
   <time name="diis">    0.75    0.75</time>
   <time name="orth">    0.01    0.01</time>
   <time name="total">    0.90    0.93</time>
   <energy>
    <i name="e_fr_energy">   -373.87164445 </i>
    <i name="e_wo_entrp">   -373.89168390 </i>
    <i name="e_0_energy">   -373.87832427 </i>
   </energy>
  </scstep>
  <scstep>
   <time name="diag">    0.07    0.08</time>
   <time name="diis">    0.85    0.88</time>
   <time name="orth">    0.01    0.01</time>
   <time name="total">    1.01    1.07</time>
   <energy>
    <i name="e_fr_energy">   -373.87153909 </i>
    <i name="e_wo_entrp">   -373.89147787 </i>
    <i name="e_0_energy">   -373.87818535 </i>
   </energy>
  </scstep>
  <scstep>
   <time name="diag">    0.07    0.07</time>
   <time name="diis">    0.75    0.75</time>
   <time name="orth">    0.01    0.01</time>
   <time name="total">    0.90    0.94</time>
   <energy>
    <i name="e_fr_energy">   -373.87147185 </i>
    <i name="e_wo_entrp">   -373.89148652 </i>
    <i name="e_0_energy">   -373.87814341 </i>
   </energy>
  </scstep>
  <scstep>
   <time name="diag">    0.07    0.07</time>
   <time name="diis">    0.61    0.61</time>
   <time name="orth">    0.01    0.01</time>
   <time name="total">    0.76    0.79</time>
   <energy>
    <i name="e_fr_energy">   -373.87145541 </i>
    <i name="e_wo_entrp">   -373.89144564 </i>
    <i name="e_0_energy">   -373.87811882 </i>
   </energy>
  </scstep>
  <scstep>
   <time name="diag">    0.07    0.07</time>
   <time name="diis">    0.35    0.35</time>
   <time name="orth">    0.02    0.02</time>
   <time name="total">    0.48    0.51</time>
   <energy>
    <i name="alphaZ">   1543.82607094 </i>
    <i name="ewald"> -18701.87377076 </i>
    <i name="hartreedc">  -5984.27768216 </i>
    <i name="XCdc">   -497.56698912 </i>
    <i name="pawpsdc">  33259.83609219 </i>
    <i name="pawaedc"> -31510.66582458 </i>
    <i name="eentropy">      0.01997893 </i>
    <i name="bandstr">  -2273.58815761 </i>
    <i name="atom">  23790.41883159 </i>
    <i name="e_fr_energy">   -373.87145056 </i>
    <i name="e_wo_entrp">   -373.89142950 </i>
    <i name="e_0_energy">   -373.87811021 </i>
   </energy>
  </scstep>
  <structure>
   <crystal>
    <varray name="basis" >
     <v>       6.84081633       0.00057361      -0.00144758 </v>
     <v>       0.00137756      10.14251859      -0.00085734 </v>
     <v>      -0.00202504      -0.00106854      10.20702905 </v>
    </varray>
    <i name="volume">    708.19534230 </i>
    <varray name="rec_basis" >
     <v>       0.14618139      -0.00001985       0.00002900 </v>
     <v>      -0.00000827       0.09859484       0.00001032 </v>
     <v>       0.00002073       0.00000828       0.09797171 </v>
    </varray>
   </crystal>
   <varray name="positions" >
    <v>       0.23711822       0.84158980       0.50021516 </v>
    <v>       0.76288638       0.84290732       0.49783745 </v>
    <v>       0.23988834       0.49881079       0.17409539 </v>
    <v>       0.99255273       0.66929551       0.00598786 </v>
    <v>       0.22754610       0.83424800       0.17192969 </v>
    <v>       0.76037428       0.49516003       0.49487276 </v>
    <v>       0.77001769       0.83636436       0.17428015 </v>
    <v>       0.99847277       0.99121999       0.00557071 </v>
    <v>       0.76481241       0.51349747       0.83183927 </v>
    <v>       0.00026055       0.66844801       0.33524005 </v>
    <v>       0.25952325       0.15851491       0.49752207 </v>
    <v>       0.23997866       0.14409398       0.82220092 </v>
    <v>       0.49906269       0.99082466       0.66063247 </v>
    <v>       0.48208931       0.34788085       0.35300986 </v>
    <v>       0.49277035       0.34000321       0.67061752 </v>
    <v>       0.50328460       0.98939306       0.00304856 </v>
    <v>       0.74393335       0.16477964       0.49395668 </v>
    <v>       0.01107188       0.33544192       0.66685095 </v>
    <v>       0.76289897       0.15063314       0.82865344 </v>
    <v>       0.50701972       0.66929960       0.66005145 </v>
    <v>       0.48268055       0.33929373       0.98140641 </v>
    <v>       0.75806228       0.83422997       0.82710432 </v>
    <v>       0.23848592       0.50462222       0.49634586 </v>
    <v>       0.49802494       0.98717606       0.33387028 </v>
    <v>       0.00352243       0.99234752       0.33302774 </v>
    <v>       0.00361228       0.99964094       0.65851300 </v>
    <v>       0.99125593       0.66473222       0.66074241 </v>
    <v>       0.01941708       0.34249063       0.34902047 </v>
    <v>       0.22843895       0.52481508       0.83243121 </v>
    <v>       0.75082882       0.16703154       0.17443442 </v>
    <v>       0.23986605       0.83253783       0.82709682 </v>
    <v>       0.75531791       0.48767708       0.17411021 </v>
    <v>       0.49770417       0.66824806       0.33701449 </v>
    <v>       0.02076525       0.33522069       0.98580217 </v>
    <v>       0.50197746       0.66911121       0.00254918 </v>
    <v>       0.25447373       0.16843098       0.17811661 </v>
   </varray>
  </structure>
  <varray name="forces" >
   <v>       0.01093173      -0.00740816       0.01041563 </v>
   <v>      -0.01121808      -0.00637521       0.00436071 </v>
   <v>       0.02705108      -0.02633393      -0.00596446 </v>
   <v>      -0.00872148       0.00208642      -0.00181901 </v>
   <v>       0.01137953       0.00255274      -0.00160235 </v>
   <v>      -0.00742117       0.00424496      -0.00806922 </v>
   <v>      -0.01201267      -0.00524204      -0.00825113 </v>
   <v>      -0.00659181      -0.00606533      -0.00113408 </v>
   <v>      -0.00115049      -0.02754949       0.02559356 </v>
   <v>       0.00139150      -0.00467239      -0.00620883 </v>
   <v>       0.00464839       0.00937633       0.00042517 </v>
   <v>       0.01909622       0.00377902       0.00820685 </v>
   <v>       0.00530259       0.00734718       0.00390432 </v>
   <v>       0.00777156       0.00010430      -0.02206245 </v>
   <v>      -0.00107097       0.00430537       0.03087720 </v>
   <v>      -0.00113348       0.01597502       0.00981874 </v>
   <v>      -0.00492168       0.00493017       0.00597383 </v>
   <v>      -0.00546676      -0.00401986      -0.00769047 </v>
   <v>      -0.00868219       0.03398217       0.02140236 </v>
   <v>       0.00077981      -0.00255528      -0.00123446 </v>
   <v>      -0.02136177       0.02045002      -0.03439060 </v>
   <v>      -0.00136022      -0.00564878       0.00836626 </v>
   <v>       0.00632765       0.00593154      -0.00335201 </v>
   <v>       0.00255028       0.00496096      -0.01136073 </v>
   <v>      -0.00554069       0.01152422      -0.00104453 </v>
   <v>       0.00462660       0.01741003       0.02122650 </v>
   <v>      -0.00576742      -0.00102227       0.00425077 </v>
   <v>      -0.00726564      -0.01104615      -0.00128238 </v>
   <v>      -0.00392377       0.00261214       0.00007279 </v>
   <v>      -0.00321858       0.01246320      -0.01566357 </v>
   <v>       0.00657806      -0.00014115      -0.00128587 </v>
   <v>      -0.01059438      -0.01495608      -0.01488001 </v>
   <v>      -0.00350572      -0.00791049      -0.00515841 </v>
   <v>       0.01335093      -0.00949069       0.00019256 </v>
   <v>       0.00359057      -0.03304073       0.00450857 </v>
   <v>       0.00555246       0.00944225      -0.00714124 </v>
  </varray>
  <varray name="stress" >
   <v>       2.02622311       0.02124383       0.04175285 </v>
   <v>       0.02124386       1.96325943      -0.05315027 </v>
   <v>       0.04175288      -0.05315020       1.93914273 </v>
  </varray>
  <energy>
   <i name="e_fr_energy">   -373.87145056 </i>
   <i name="e_wo_entrp">   -373.87811021 </i>
   <i name="e_0_energy">      0.01997893 </i>
  </energy>
  <time name="totalsc">    6.83    7.44</time>
 </calculation>
 <calculation>
  <scstep>
   <time name="dav">    0.95    0.96</time>
   <time name="total">    1.09    1.23</time>
   <energy>
    <i name="alphaZ">   1541.62561380 </i>
    <i name="ewald"> -18695.79331555 </i>
    <i name="hartreedc">  -5978.77042530 </i>
    <i name="XCdc">   -497.96004382 </i>
    <i name="pawpsdc">  33261.30251131 </i>
    <i name="pawaedc"> -31512.13889379 </i>
    <i name="eentropy">      0.02051833 </i>
    <i name="bandstr">  -2282.58018253 </i>
    <i name="atom">  23790.41883159 </i>
    <i name="e_fr_energy">   -373.87538595 </i>
    <i name="e_wo_entrp">   -373.89590428 </i>
    <i name="e_0_energy">   -373.88222539 </i>
   </energy>
  </scstep>
  <scstep>
   <time name="diag">    0.09    0.09</time>
   <time name="diis">    0.82    0.82</time>
   <time name="orth">    0.01    0.01</time>
   <time name="total">    0.99    1.03</time>
   <energy>
    <i name="e_fr_energy">   -373.87423531 </i>
    <i name="e_wo_entrp">   -373.89498831 </i>
    <i name="e_0_energy">   -373.88115298 </i>
   </energy>
  </scstep>
  <scstep>
   <time name="diag">    0.12    0.12</time>
   <time name="diis">    0.80    0.82</time>
   <time name="orth">    0.01    0.01</time>
   <time name="total">    1.00    1.05</time>
   <energy>
    <i name="e_fr_energy">   -373.87322519 </i>
    <i name="e_wo_entrp">   -373.89379956 </i>
    <i name="e_0_energy">   -373.88008331 </i>
   </energy>
  </scstep>
  <scstep>
   <time name="diag">    0.09    0.09</time>
   <time name="diis">    0.78    0.79</time>
   <time name="orth">    0.01    0.01</time>
   <time name="total">    0.96    1.00</time>
   <energy>
    <i name="e_fr_energy">   -373.87271392 </i>
    <i name="e_wo_entrp">   -373.89343227 </i>
    <i name="e_0_energy">   -373.87962004 </i>
   </energy>
  </scstep>
  <scstep>
   <time name="diag">    0.07    0.07</time>
   <time name="diis">    0.79    0.79</time>
   <time name="orth">    0.01    0.01</time>
   <time name="total">    0.94    0.97</time>
   <energy>
    <i name="e_fr_energy">   -373.87261592 </i>
    <i name="e_wo_entrp">   -373.89327886 </i>
    <i name="e_0_energy">   -373.87950357 </i>
   </energy>
  </scstep>
  <scstep>
   <time name="diag">    0.07    0.07</time>
   <time name="diis">    0.79    0.81</time>
   <time name="orth">    0.01    0.01</time>
   <time name="total">    0.94    0.99</time>
   <energy>
    <i name="e_fr_energy">   -373.87260829 </i>
    <i name="e_wo_entrp">   -373.89324455 </i>
    <i name="e_0_energy">   -373.87948704 </i>
   </energy>
  </scstep>
  <scstep>
   <time name="diag">    0.07    0.07</time>
   <time name="diis">    0.64    0.64</time>
   <time name="orth">    0.01    0.01</time>
   <time name="total">    0.79    0.82</time>
   <energy>
    <i name="e_fr_energy">   -373.87260257 </i>
    <i name="e_wo_entrp">   -373.89327347 </i>
    <i name="e_0_energy">   -373.87949287 </i>
   </energy>
  </scstep>
  <scstep>
   <time name="diag">    0.07    0.08</time>
   <time name="diis">    0.46    0.46</time>
   <time name="orth">    0.01    0.01</time>
   <time name="total">    0.58    0.63</time>
   <energy>
    <i name="alphaZ">   1541.62561380 </i>
    <i name="ewald"> -18695.79331555 </i>
    <i name="hartreedc">  -5983.82237236 </i>
    <i name="XCdc">   -497.74751967 </i>
    <i name="pawpsdc">  33195.27262724 </i>
    <i name="pawaedc"> -31446.09488857 </i>
    <i name="eentropy">      0.02064766 </i>
    <i name="bandstr">  -2277.75222410 </i>
    <i name="atom">  23790.41883159 </i>
    <i name="e_fr_energy">   -373.87259996 </i>
    <i name="e_wo_entrp">   -373.89324762 </i>
    <i name="e_0_energy">   -373.87948251 </i>
   </energy>
  </scstep>
  <structure>
   <crystal>
    <varray name="basis" >
     <v>       6.84314683       0.00050741      -0.00137485 </v>
     <v>       0.00127925      10.14728786      -0.00187546 </v>
     <v>      -0.00191578      -0.00209310      10.21331477 </v>
    </varray>
    <i name="volume">    709.20619311 </i>
    <varray name="rec_basis" >
     <v>       0.14613161      -0.00001842       0.00002741 </v>
     <v>      -0.00000730       0.09854850       0.00002019 </v>
     <v>       0.00001967       0.00001809       0.09791141 </v>
    </varray>
   </crystal>
   <varray name="positions" >
    <v>       0.23721158       0.84156011       0.50027598 </v>
    <v>       0.76276968       0.84286858       0.49787227 </v>
    <v>       0.24023227       0.49848713       0.17390818 </v>
    <v>       0.99250006       0.66938151       0.00599106 </v>
    <v>       0.22759021       0.83426136       0.17191267 </v>
    <v>       0.76027901       0.49514904       0.49481072 </v>
    <v>       0.76995339       0.83637334       0.17418916 </v>
    <v>       0.99841418       0.99114810       0.00557111 </v>
    <v>       0.76458661       0.51324842       0.83206080 </v>
    <v>       0.00027830       0.66849460       0.33525735 </v>
    <v>       0.25958895       0.15860117       0.49754773 </v>
    <v>       0.24033655       0.14434394       0.82242124 </v>
    <v>       0.49907231       0.99085870       0.66059568 </v>
    <v>       0.48213863       0.34789802       0.35281859 </v>
    <v>       0.49271307       0.34003743       0.67111483 </v>
    <v>       0.50328224       0.98968040       0.00309025 </v>
    <v>       0.74388407       0.16483485       0.49398738 </v>
    <v>       0.01107461       0.33540806       0.66676973 </v>
    <v>       0.76271071       0.15084164       0.82883327 </v>
    <v>       0.50705008       0.66931110       0.66001684 </v>
    <v>       0.48215346       0.33954194       0.98091116 </v>
    <v>       0.75801369       0.83416255       0.82718942 </v>
    <v>       0.23850951       0.50462428       0.49628029 </v>
    <v>       0.49804296       0.98715325       0.33386120 </v>
    <v>       0.00351577       0.99232388       0.33302495 </v>
    <v>       0.00364823       0.99967635       0.65849503 </v>
    <v>       0.99128301       0.66480568       0.66069045 </v>
    <v>       0.01938632       0.34243411       0.34904491 </v>
    <v>       0.22849658       0.52466461       0.83252730 </v>
    <v>       0.75071418       0.16712415       0.17431734 </v>
    <v>       0.23994573       0.83250377       0.82711490 </v>
    <v>       0.75522635       0.48757889       0.17405524 </v>
    <v>       0.49763079       0.66824388       0.33705278 </v>
    <v>       0.02119204       0.33517744       0.98577078 </v>
    <v>       0.50203170       0.66869538       0.00255901 </v>
    <v>       0.25453919       0.16851433       0.17805838 </v>
   </varray>
  </structure>
  <varray name="forces" >
   <v>       0.00301683       0.00052035       0.00938657 </v>
   <v>      -0.00190356       0.00105232       0.00159978 </v>
   <v>       0.01271054      -0.00827268       0.01907030 </v>
   <v>      -0.01067949      -0.00515655      -0.00143458 </v>
   <v>       0.00084787       0.00592554       0.00278871 </v>
   <v>       0.00088835       0.00534036      -0.01195198 </v>
   <v>      -0.00131976      -0.00716487       0.00079348 </v>
   <v>      -0.00699496      -0.00941399      -0.00035691 </v>
   <v>       0.02494231      -0.01220506       0.01574037 </v>
   <v>       0.00292261      -0.01039697      -0.01312193 </v>
   <v>       0.00371961       0.00224264      -0.00503935 </v>
   <v>      -0.00250205      -0.02847536      -0.01660591 </v>
   <v>       0.00530716       0.00441102       0.00879193 </v>
   <v>       0.00157573       0.00671398      -0.00522682 </v>
   <v>      -0.00084072       0.00480043      -0.01489438 </v>
   <v>      -0.00075899      -0.01083860       0.01097200 </v>
   <v>      -0.00502778      -0.00135349       0.00647440 </v>
   <v>      -0.00500492      -0.00042022      -0.00474193 </v>
   <v>       0.00473224       0.02695244       0.01279445 </v>
   <v>       0.00165983      -0.00411120       0.00199726 </v>
   <v>       0.00306444       0.00610587       0.00169422 </v>
   <v>       0.00416432       0.00028230       0.00269747 </v>
   <v>       0.00257752       0.00372405      -0.00658912 </v>
   <v>       0.00129155       0.00588339      -0.01375059 </v>
   <v>      -0.00626668       0.00859072      -0.00024784 </v>
   <v>       0.00797879       0.02318455       0.03277068 </v>
   <v>      -0.01344457      -0.01163418       0.01247179 </v>
   <v>      -0.00135902      -0.00147800       0.00300307 </v>
   <v>      -0.02158432       0.02689567      -0.01267447 </v>
   <v>       0.00465608       0.00595460      -0.01054304 </v>
   <v>       0.00062721       0.00533172      -0.00544381 </v>
   <v>      -0.00634374      -0.01240515      -0.01444995 </v>
   <v>      -0.00188156      -0.01355908      -0.01029677 </v>
   <v>      -0.00629428      -0.00649979       0.00024201 </v>
   <v>       0.00267402      -0.00528300       0.00422577 </v>
   <v>       0.00284940       0.00475623      -0.00014489 </v>
  </varray>
  <varray name="stress" >
   <v>       0.08451087       0.03700362       0.05478921 </v>
   <v>       0.03700363      -0.14043890      -0.02196028 </v>
   <v>       0.05478921      -0.02196024      -0.29939868 </v>
  </varray>
  <energy>
   <i name="e_fr_energy">   -373.87259996 </i>
   <i name="e_wo_entrp">   -373.87948251 </i>
[...]
    <v>       0.49939870       0.99100053       0.66082465 </v>
    <v>       0.48251492       0.34790176       0.35256789 </v>
    <v>       0.49250811       0.34033256       0.67084245 </v>
    <v>       0.50330059       0.98942116       0.00341598 </v>
    <v>       0.74364495       0.16474531       0.49418538 </v>
    <v>       0.01105081       0.33530996       0.66645809 </v>
    <v>       0.76249171       0.15193679       0.82951137 </v>
    <v>       0.50741122       0.66925518       0.66007779 </v>
    <v>       0.48160315       0.33982645       0.98057280 </v>
    <v>       0.75800928       0.83413735       0.82734110 </v>
    <v>       0.23856818       0.50475399       0.49611852 </v>
    <v>       0.49806659       0.98726171       0.33354301 </v>
    <v>       0.00342664       0.99244799       0.33313867 </v>
    <v>       0.00368498       0.00015473       0.65906925 </v>
    <v>       0.99068379       0.66482856       0.66091279 </v>
    <v>       0.01921114       0.34228712       0.34908482 </v>
    <v>       0.22741377       0.52536669       0.83204046 </v>
    <v>       0.75094874       0.16721768       0.17391011 </v>
    <v>       0.24010598       0.83260338       0.82706879 </v>
    <v>       0.75493266       0.48710997       0.17351806 </v>
    <v>       0.49754634       0.66803946       0.33682168 </v>
    <v>       0.02181285       0.33499687       0.98578567 </v>
    <v>       0.50210030       0.66842814       0.00258058 </v>
    <v>       0.25456707       0.16861134       0.17802866 </v>
   </varray>
  </structure>
  <varray name="forces" >
   <v>       0.00266027       0.00140766      -0.00312066 </v>
   <v>      -0.00066542       0.00063023       0.00220963 </v>
   <v>      -0.00578630       0.00561742       0.00168034 </v>
   <v>      -0.00198621      -0.00024319       0.00084162 </v>
   <v>       0.00001823      -0.00177137       0.00172701 </v>
   <v>       0.00309237       0.00271963      -0.00227750 </v>
   <v>       0.00290793       0.00130244      -0.00026618 </v>
   <v>      -0.00138973       0.00125178      -0.00062318 </v>
   <v>      -0.00528978      -0.01081158       0.00290739 </v>
   <v>      -0.00115607      -0.00623608       0.00390811 </v>
   <v>       0.00100360      -0.00159302      -0.00148274 </v>
   <v>       0.00262765       0.00003423      -0.00032841 </v>
   <v>       0.00034134      -0.00220705       0.00173399 </v>
   <v>       0.00061419      -0.00329013       0.00351587 </v>
   <v>      -0.00257021       0.00450734      -0.00422530 </v>
   <v>       0.00080473      -0.00373840       0.00233342 </v>
   <v>      -0.00005165      -0.00454544      -0.00281553 </v>
   <v>       0.00525278      -0.00177709      -0.00286826 </v>
   <v>      -0.00703586       0.00746798       0.00070587 </v>
   <v>       0.00314659       0.00202897       0.00264217 </v>
   <v>      -0.01118792      -0.00000794      -0.00257687 </v>
   <v>      -0.00103385       0.00389359      -0.00371093 </v>
   <v>       0.00034915       0.00096386      -0.00535992 </v>
   <v>       0.00072267      -0.00400388       0.00802587 </v>
   <v>       0.00082255       0.00228225       0.00344750 </v>
   <v>      -0.00472522      -0.00108165       0.00469808 </v>
   <v>      -0.00161353       0.00556544      -0.00296627 </v>
   <v>      -0.00071393       0.00157934      -0.00246275 </v>
   <v>       0.00315462       0.00180908      -0.00912284 </v>
   <v>       0.00274797      -0.01130231       0.00232766 </v>
   <v>      -0.00162513       0.00215178      -0.00173514 </v>
   <v>       0.00346633       0.00732263       0.00130159 </v>
   <v>      -0.00051650       0.00420786       0.00408241 </v>
   <v>       0.01663479       0.00297869      -0.00131391 </v>
   <v>      -0.00300244       0.00010146      -0.00127385 </v>
   <v>      -0.00001801      -0.00721450       0.00044171 </v>
  </varray>
  <varray name="stress" >
   <v>      -0.32004659      -0.00312492       0.09436900 </v>
   <v>      -0.00312497      -0.29669694      -0.08819188 </v>
   <v>       0.09436899      -0.08819187      -0.26171032 </v>
  </varray>
  <energy>
   <i name="e_fr_energy">   -373.87408725 </i>
   <i name="e_wo_entrp">   -373.88087870 </i>
   <i name="e_0_energy">      0.02037436 </i>
  </energy>
  <time name="totalsc">    2.71    2.99</time>
 </calculation>
 <calculation>
  <scstep>
   <time name="dav">    0.58    0.58</time>
   <time name="total">    0.70    0.83</time>
   <energy>
    <i name="alphaZ">   1541.66424038 </i>
    <i name="ewald"> -18696.45437116 </i>
    <i name="hartreedc">  -5983.16424230 </i>
    <i name="XCdc">   -497.74684146 </i>
    <i name="pawpsdc">  33197.22830675 </i>
    <i name="pawaedc"> -31448.22603650 </i>
    <i name="eentropy">      0.02037435 </i>
    <i name="bandstr">  -2277.61434892 </i>
    <i name="atom">  23790.41883159 </i>
    <i name="e_fr_energy">   -373.87408726 </i>
    <i name="e_wo_entrp">   -373.89446160 </i>
    <i name="e_0_energy">   -373.88087871 </i>
   </energy>
  </scstep>
  <scstep>
   <time name="diag">    0.07    0.07</time>
   <time name="diis">    0.22    0.22</time>
   <time name="orth">    0.01    0.01</time>
   <time name="total">    0.34    0.36</time>
   <energy>
    <i name="alphaZ">   1541.66424038 </i>
    <i name="ewald"> -18696.45437116 </i>
    <i name="hartreedc">  -5983.16436812 </i>
    <i name="XCdc">   -497.74683612 </i>
    <i name="pawpsdc">  33197.23425095 </i>
    <i name="pawaedc"> -31448.23182194 </i>
    <i name="eentropy">      0.02037438 </i>
    <i name="bandstr">  -2277.61438723 </i>
    <i name="atom">  23790.41883159 </i>
    <i name="e_fr_energy">   -373.87408726 </i>
    <i name="e_wo_entrp">   -373.89446164 </i>
    <i name="e_0_energy">   -373.88087872 </i>
   </energy>
  </scstep>
  <structure>
   <crystal>
    <varray name="basis" >
     <v>       6.84591711       0.00071248      -0.00199087 </v>
     <v>       0.00158432      10.14705406      -0.00142354 </v>
     <v>      -0.00283572      -0.00163909      10.20916163 </v>
    </varray>
    <i name="volume">    709.18842387 </i>
    <varray name="rec_basis" >
     <v>       0.14607248      -0.00002280       0.00004057 </v>
     <v>      -0.00001025       0.09855077       0.00001582 </v>
     <v>       0.00002848       0.00001374       0.09795125 </v>
    </varray>
   </crystal>
   <varray name="positions" >
    <v>       0.23715157       0.84166189       0.50044953 </v>
    <v>       0.76294209       0.84290841       0.49804679 </v>
    <v>       0.24077963       0.49793743       0.17421798 </v>
    <v>       0.99214914       0.66943186       0.00607314 </v>
    <v>       0.22739259       0.83442743       0.17213096 </v>
    <v>       0.76028348       0.49531890       0.49436907 </v>
    <v>       0.76993358       0.83615498       0.17427952 </v>
    <v>       0.99813128       0.99085193       0.00547616 </v>
    <v>       0.76521751       0.51240790       0.83275544 </v>
    <v>       0.00046193       0.66831955       0.33501761 </v>
    <v>       0.25991560       0.15869993       0.49745474 </v>
    <v>       0.24063512       0.14391710       0.82230848 </v>
    <v>       0.49939870       0.99100053       0.66082465 </v>
    <v>       0.48251492       0.34790176       0.35256789 </v>
    <v>       0.49250811       0.34033256       0.67084245 </v>
    <v>       0.50330059       0.98942116       0.00341598 </v>
    <v>       0.74364495       0.16474531       0.49418538 </v>
    <v>       0.01105081       0.33530996       0.66645809 </v>
    <v>       0.76249171       0.15193679       0.82951137 </v>
    <v>       0.50741122       0.66925518       0.66007779 </v>
    <v>       0.48160315       0.33982645       0.98057280 </v>
    <v>       0.75800928       0.83413735       0.82734110 </v>
    <v>       0.23856818       0.50475399       0.49611852 </v>
    <v>       0.49806659       0.98726171       0.33354301 </v>
    <v>       0.00342664       0.99244799       0.33313867 </v>
    <v>       0.00368498       0.00015473       0.65906925 </v>
    <v>       0.99068379       0.66482856       0.66091279 </v>
    <v>       0.01921114       0.34228712       0.34908482 </v>
    <v>       0.22741377       0.52536669       0.83204046 </v>
    <v>       0.75094874       0.16721768       0.17391011 </v>
    <v>       0.24010598       0.83260338       0.82706879 </v>
    <v>       0.75493266       0.48710997       0.17351806 </v>
    <v>       0.49754634       0.66803946       0.33682168 </v>
    <v>       0.02181285       0.33499687       0.98578567 </v>
    <v>       0.50210030       0.66842814       0.00258058 </v>
    <v>       0.25456707       0.16861134       0.17802866 </v>
   </varray>
  </structure>
  <varray name="forces" >
   <v>       0.00266076       0.00140927      -0.00312121 </v>
   <v>      -0.00066852       0.00063258       0.00220690 </v>
   <v>      -0.00578800       0.00561923       0.00168289 </v>
   <v>      -0.00198671      -0.00023939       0.00084382 </v>
   <v>       0.00002007      -0.00176801       0.00172818 </v>
   <v>       0.00309210       0.00271905      -0.00227774 </v>
   <v>       0.00290510       0.00130647      -0.00026496 </v>
   <v>      -0.00138936       0.00125241      -0.00062134 </v>
   <v>      -0.00528421      -0.01080296       0.00290370 </v>
   <v>      -0.00115741      -0.00623203       0.00390712 </v>
   <v>       0.00100167      -0.00159418      -0.00148393 </v>
   <v>       0.00262498       0.00003252      -0.00032978 </v>
   <v>       0.00034040      -0.00220568       0.00173275 </v>
   <v>       0.00061140      -0.00328911       0.00351699 </v>
   <v>      -0.00257140       0.00450382      -0.00422763 </v>
   <v>       0.00080373      -0.00373624       0.00233404 </v>
   <v>      -0.00005168      -0.00454659      -0.00281832 </v>
   <v>       0.00525324      -0.00177847      -0.00287079 </v>
   <v>      -0.00703412       0.00746177       0.00070309 </v>
   <v>       0.00314535       0.00203342       0.00263721 </v>
   <v>      -0.01118799      -0.00001135      -0.00257376 </v>
   <v>      -0.00102970       0.00389145      -0.00371337 </v>
   <v>       0.00034541       0.00095472      -0.00534944 </v>
   <v>       0.00072003      -0.00399820       0.00802184 </v>
   <v>       0.00081835       0.00227440       0.00343142 </v>
   <v>      -0.00471314      -0.00108008       0.00469086 </v>
   <v>      -0.00161297       0.00554869      -0.00296187 </v>
   <v>      -0.00070807       0.00158991      -0.00245600 </v>
   <v>       0.00316057       0.00179951      -0.00910666 </v>
   <v>       0.00274622      -0.01130002       0.00232989 </v>
   <v>      -0.00162694       0.00215057      -0.00173600 </v>
   <v>       0.00346679       0.00732487       0.00130464 </v>
   <v>      -0.00051619       0.00420727       0.00408230 </v>
   <v>       0.01663055       0.00297896      -0.00131374 </v>
   <v>      -0.00300184       0.00010462      -0.00127294 </v>
   <v>      -0.00001848      -0.00721321       0.00044183 </v>
  </varray>
  <varray name="stress" >
   <v>      -0.32015333      -0.00312582       0.09437634 </v>
   <v>      -0.00312582      -0.29678988      -0.08819063 </v>
   <v>       0.09437629      -0.08819071      -0.26169936 </v>
  </varray>
  <energy>
   <i name="e_fr_energy">   -373.87408726 </i>
   <i name="e_wo_entrp">   -373.88087872 </i>
   <i name="e_0_energy">      0.02037438 </i>
  </energy>
  <time name="totalsc">    2.61    2.88</time>
 </calculation>
 <calculation>
  <scstep>
   <time name="dav">    1.13    1.14</time>
   <time name="total">    1.25    1.38</time>
   <energy>
    <i name="alphaZ">   1542.84047387 </i>
    <i name="ewald"> -18701.12908743 </i>
    <i name="hartreedc">  -5984.75397569 </i>
    <i name="XCdc">   -497.54243095 </i>
    <i name="pawpsdc">  33197.23571866 </i>
    <i name="pawaedc"> -31448.23325067 </i>
    <i name="eentropy">      0.02053188 </i>
    <i name="bandstr">  -2272.73182714 </i>
    <i name="atom">  23790.41883159 </i>
    <i name="e_fr_energy">   -373.87501589 </i>
    <i name="e_wo_entrp">   -373.89554777 </i>
    <i name="e_0_energy">   -373.88185985 </i>
   </energy>
  </scstep>
  <scstep>
   <time name="diag">    0.08    0.08</time>
   <time name="diis">    0.77    0.77</time>
   <time name="orth">    0.01    0.01</time>
   <time name="total">    0.92    0.95</time>
   <energy>
    <i name="e_fr_energy">   -373.87443016 </i>
    <i name="e_wo_entrp">   -373.89470491 </i>
    <i name="e_0_energy">   -373.88118841 </i>
   </energy>
  </scstep>
  <scstep>
   <time name="diag">    0.08    0.08</time>
   <time name="diis">    0.76    0.77</time>
   <time name="orth">    0.01    0.01</time>
   <time name="total">    0.91    0.95</time>
   <energy>
    <i name="e_fr_energy">   -373.87402990 </i>
    <i name="e_wo_entrp">   -373.89453387 </i>
    <i name="e_0_energy">   -373.88086456 </i>
   </energy>
  </scstep>
  <scstep>
   <time name="diag">    0.07    0.08</time>
   <time name="diis">    0.86    0.86</time>
   <time name="orth">    0.01    0.01</time>
   <time name="total">    1.01    1.06</time>
   <energy>
    <i name="e_fr_energy">   -373.87391936 </i>
    <i name="e_wo_entrp">   -373.89424997 </i>
    <i name="e_0_energy">   -373.88069623 </i>
   </energy>
  </scstep>
  <scstep>
   <time name="diag">    0.13    0.13</time>
   <time name="diis">    0.67    0.67</time>
   <time name="orth">    0.01    0.01</time>
   <time name="total">    0.88    0.94</time>
   <energy>
    <i name="e_fr_energy">   -373.87388974 </i>
    <i name="e_wo_entrp">   -373.89429394 </i>
    <i name="e_0_energy">   -373.88069114 </i>
   </energy>
  </scstep>
  <scstep>
   <time name="diag">    0.08    0.08</time>
   <time name="diis">    0.38    0.38</time>
   <time name="orth">    0.01    0.01</time>
   <time name="total">    0.50    0.53</time>
   <energy>
    <i name="alphaZ">   1542.84047387 </i>
    <i name="ewald"> -18701.12908743 </i>
    <i name="hartreedc">  -5981.75925089 </i>
    <i name="XCdc">   -497.66668224 </i>
    <i name="pawpsdc">  33234.51368554 </i>
    <i name="pawaedc"> -31485.62126792 </i>
    <i name="eentropy">      0.02040796 </i>
    <i name="bandstr">  -2275.49100718 </i>
    <i name="atom">  23790.41883159 </i>
    <i name="e_fr_energy">   -373.87389671 </i>
    <i name="e_wo_entrp">   -373.89430467 </i>
    <i name="e_0_energy">   -373.88069936 </i>
   </energy>
  </scstep>
  <structure>
   <crystal>
    <varray name="basis" >
     <v>       6.84409872       0.00073789      -0.00202245 </v>
     <v>       0.00162186      10.14446447      -0.00133023 </v>
     <v>      -0.00288279      -0.00154514      10.20669354 </v>
    </varray>
    <i name="volume">    708.64775152 </i>
    <varray name="rec_basis" >
     <v>       0.14611129      -0.00002335       0.00004126 </v>
     <v>      -0.00001062       0.09857593       0.00001492 </v>
     <v>       0.00002895       0.00001284       0.09797493 </v>
    </varray>
   </crystal>
   <varray name="positions" >
    <v>       0.23715222       0.84165440       0.50045500 </v>
    <v>       0.76292393       0.84290682       0.49802682 </v>
    <v>       0.24077420       0.49796262       0.17421666 </v>
    <v>       0.99216289       0.66942384       0.00606107 </v>
    <v>       0.22739812       0.83442612       0.17211222 </v>
    <v>       0.76027605       0.49530075       0.49439558 </v>
    <v>       0.76993830       0.83616641       0.17427308 </v>
    <v>       0.99814509       0.99085658       0.00548793 </v>
    <v>       0.76523215       0.51249619       0.83270554 </v>
    <v>       0.00045426       0.66834119       0.33501230 </v>
    <v>       0.25989173       0.15869642       0.49745966 </v>
    <v>       0.24059603       0.14391461       0.82229551 </v>
    <v>       0.49937384       0.99099675       0.66080647 </v>
    <v>       0.48247233       0.34792314       0.35257927 </v>
    <v>       0.49253532       0.34029711       0.67086582 </v>
    <v>       0.50329667       0.98944370       0.00339275 </v>
    <v>       0.74365424       0.16476208       0.49418218 </v>
    <v>       0.01102471       0.33532086       0.66648401 </v>
    <v>       0.76254438       0.15184885       0.82946063 </v>
    <v>       0.50737482       0.66925385       0.66006553 </v>
    <v>       0.48168669       0.33981143       0.98060333 </v>
    <v>       0.75802784       0.83413362       0.82733758 </v>
    <v>       0.23856087       0.50474121       0.49612885 </v>
    <v>       0.49806415       0.98726306       0.33353996 </v>
    <v>       0.00342124       0.99243380       0.33311847 </v>
    <v>       0.00371942       0.00014434       0.65904965 </v>
    <v>       0.99071248       0.66479381       0.66091309 </v>
    <v>       0.01923902       0.34230246       0.34909626 </v>
    <v>       0.22745503       0.52533835       0.83209105 </v>
    <v>       0.75092403       0.16723910       0.17393140 </v>
    <v>       0.24009353       0.83259973       0.82706787 </v>
    <v>       0.75493752       0.48712405       0.17355293 </v>
    <v>       0.49755411       0.66802875       0.33682172 </v>
    <v>       0.02169312       0.33500008       0.98578421 </v>
    <v>       0.50211407       0.66844232       0.00258800 </v>
    <v>       0.25457160       0.16862359       0.17803560 </v>
   </varray>
  </structure>
  <varray name="forces" >
   <v>       0.00430455      -0.00086591      -0.00458025 </v>
   <v>      -0.00151968      -0.00102693       0.00269247 </v>
   <v>      -0.00453327       0.00512929      -0.00209020 </v>
   <v>      -0.00169933       0.00126654       0.00293373 </v>
   <v>       0.00552629      -0.00260542       0.00167968 </v>
   <v>       0.00173101       0.00442127      -0.00087224 </v>
   <v>      -0.00284862       0.00015436      -0.00069042 </v>
   <v>      -0.00090128       0.00443716      -0.00205632 </v>
   <v>      -0.00878153      -0.01441580       0.00380173 </v>
   <v>      -0.00176311      -0.00830080       0.00514622 </v>
   <v>       0.00043738      -0.00084573      -0.00058550 </v>
   <v>       0.00473869       0.00400882       0.00239769 </v>
   <v>       0.00166636      -0.00067935       0.00345341 </v>
   <v>       0.00384051      -0.00637031       0.00109827 </v>
   <v>      -0.00258004       0.00455028      -0.00352245 </v>
   <v>       0.00029660      -0.00261508       0.00283493 </v>
   <v>       0.00078201      -0.00481368      -0.00261623 </v>
   <v>       0.00529247      -0.00332077      -0.00339283 </v>
   <v>      -0.00861796       0.00979860       0.00206447 </v>
   <v>       0.00290187       0.00196792       0.00208852 </v>
   <v>      -0.01117423      -0.00145103      -0.00303001 </v>
   <v>      -0.00349465       0.00280483      -0.00342626 </v>
   <v>       0.00259085       0.00282346      -0.00189275 </v>
   <v>       0.00124299      -0.00177411       0.00765345 </v>
   <v>       0.00015084       0.00673959       0.00386074 </v>
   <v>      -0.00740636      -0.00241345       0.00386605 </v>
   <v>      -0.00064659       0.00921332      -0.00414332 </v>
   <v>      -0.00401618      -0.00214606      -0.00479187 </v>
   <v>       0.00530108      -0.00057796      -0.00941963 </v>
   <v>       0.00238441      -0.01057160       0.00110748 </v>
   <v>       0.00102083       0.00106530      -0.00108017 </v>
   <v>       0.00263836       0.00645210      -0.00060650 </v>
   <v>      -0.00046378       0.00572410       0.00426721 </v>
   <v>       0.01728567       0.00085810       0.00085305 </v>
   <v>      -0.00399610       0.00046492      -0.00103051 </v>
   <v>       0.00030998      -0.00708599      -0.00197163 </v>
  </varray>
  <varray name="stress" >
   <v>       0.75328677       0.00501672       0.10027376 </v>
   <v>       0.00501673       0.75145130      -0.09261479 </v>
   <v>       0.10027376      -0.09261473       0.78190382 </v>
  </varray>
  <energy>
   <i name="e_fr_energy">   -373.87389671 </i>
   <i name="e_wo_entrp">   -373.88069936 </i>
   <i name="e_0_energy">      0.02040796 </i>
  </energy>
