       N       E                     dE             d eps       ncg     rms          rms(c)
DAV:   1     0.169334097110E+04    0.16933E+04   -0.10542E+05  5344   0.103E+03
DAV:   2    -0.123027324945E+03   -0.18164E+04   -0.17540E+04  5576   0.377E+02
DAV:   3    -0.353807528647E+03   -0.23078E+03   -0.21894E+03  8152   0.925E+01
DAV:   4    -0.380760813849E+03   -0.26953E+02   -0.25617E+02  8280   0.293E+01
DAV:   5    -0.383277110564E+03   -0.25163E+01   -0.24616E+01  7672   0.913E+00    0.634E+01
RMM:   6    -0.372788928459E+03    0.10488E+02   -0.24731E+01  6762   0.988E+00    0.307E+01
RMM:   7    -0.373727799453E+03   -0.93887E+00   -0.26159E+01  7201   0.897E+00    0.115E+01
RMM:   8    -0.368258115919E+03    0.54697E+01   -0.70076E+00  7306   0.387E+00    0.421E+00
RMM:   9    -0.368022468062E+03    0.23565E+00   -0.22118E+00  7427   0.205E+00    0.278E+00
RMM:  10    -0.367968212873E+03    0.54255E-01   -0.42341E-01  7347   0.116E+00    0.132E+00
RMM:  11    -0.367940858275E+03    0.27355E-01   -0.11780E-01  7402   0.562E-01    0.693E-01
RMM:  12    -0.367939097273E+03    0.17610E-02   -0.48815E-02  7449   0.317E-01    0.428E-01
RMM:  13    -0.367937025880E+03    0.20714E-02   -0.15908E-02  7557   0.172E-01    0.224E-01
RMM:  14    -0.367937271356E+03   -0.24548E-03   -0.69634E-03  7600   0.102E-01    0.133E-01
RMM:  15    -0.367937353319E+03   -0.81964E-04   -0.30231E-03  7494   0.620E-02    0.620E-02
RMM:  16    -0.367937398820E+03   -0.45501E-04   -0.12597E-03  6691   0.367E-02    0.338E-02
RMM:  17    -0.367937414389E+03   -0.15569E-04   -0.54358E-04  6219   0.259E-02    0.172E-02
RMM:  18    -0.367937425374E+03   -0.10985E-04   -0.22636E-04  5229   0.174E-02    0.902E-03
RMM:  19    -0.367937430381E+03   -0.50067E-05   -0.10138E-04  4260   0.131E-02    0.522E-03
RMM:  20    -0.367937430897E+03   -0.51601E-06   -0.44194E-05  3900   0.113E-02
   1 F= -.36793743E+03 E0= -.36794061E+03  d E =-.367937E+03
       N       E                     dE             d eps       ncg     rms          rms(c)
DAV:   1    -0.368006419951E+03   -0.68990E-01   -0.21859E+00  5616   0.492E+00    0.166E+00
RMM:   2    -0.367992654005E+03    0.13766E-01   -0.23213E-01  7234   0.128E+00    0.636E-01
RMM:   3    -0.367978845132E+03    0.13809E-01   -0.46992E-02  7437   0.375E-01    0.448E-01
RMM:   4    -0.367973635844E+03    0.52093E-02   -0.12835E-02  7507   0.241E-01    0.232E-01
RMM:   5    -0.367972975362E+03    0.66048E-03   -0.40420E-03  7450   0.139E-01    0.165E-01
RMM:   6    -0.367973153802E+03   -0.17844E-03   -0.16873E-03  7691   0.680E-02    0.109E-01
RMM:   7    -0.367973220487E+03   -0.66686E-04   -0.66352E-04  7198   0.463E-02    0.621E-02
RMM:   8    -0.367973289576E+03   -0.69088E-04   -0.37329E-04  6745   0.286E-02    0.420E-02
RMM:   9    -0.367973338248E+03   -0.48672E-04   -0.13698E-04  6123   0.223E-02    0.297E-02
RMM:  10    -0.367973388603E+03   -0.50355E-04   -0.10132E-04  4762   0.179E-02    0.140E-02
RMM:  11    -0.367973402192E+03   -0.13589E-04   -0.43596E-05  4096   0.146E-02    0.508E-03
RMM:  12    -0.367973404188E+03   -0.19964E-05   -0.15717E-05  3395   0.128E-02
   2 F= -.36797340E+03 E0= -.36797668E+03  d E =-.359733E-01
       N       E                     dE             d eps       ncg     rms          rms(c)
DAV:   1    -0.368152066255E+03   -0.17866E+00   -0.97543E+00  5328   0.104E+01    0.354E+00
RMM:   2    -0.368088043224E+03    0.64023E-01   -0.10287E+00  7217   0.270E+00    0.133E+00
RMM:   3    -0.368028114023E+03    0.59929E-01   -0.20855E-01  7446   0.788E-01    0.949E-01
RMM:   4    -0.368004462431E+03    0.23652E-01   -0.56899E-02  7492   0.509E-01    0.492E-01
RMM:   5    -0.368001559988E+03    0.29024E-02   -0.18109E-02  7470   0.292E-01    0.353E-01
RMM:   6    -0.368002263833E+03   -0.70384E-03   -0.74613E-03  7787   0.145E-01    0.223E-01
RMM:   7    -0.368002587943E+03   -0.32411E-03   -0.31598E-03  8104   0.982E-02    0.128E-01
RMM:   8    -0.368002827982E+03   -0.24004E-03   -0.15634E-03  7982   0.562E-02    0.914E-02
RMM:   9    -0.368003007884E+03   -0.17990E-03   -0.56354E-04  7165   0.402E-02    0.653E-02
RMM:  10    -0.368003193088E+03   -0.18520E-03   -0.41991E-04  6937   0.340E-02    0.252E-02
RMM:  11    -0.368003234882E+03   -0.41794E-04   -0.21908E-04  5760   0.230E-02    0.138E-02
RMM:  12    -0.368003241583E+03   -0.67010E-05   -0.68072E-05  4875   0.164E-02
   3 F= -.36800324E+03 E0= -.36800658E+03  d E =-.658107E-01
       N       E                     dE             d eps       ncg     rms          rms(c)
DAV:   1    -0.368029868211E+03   -0.26633E-01   -0.17606E+00  4944   0.356E+00    0.540E-01
RMM:   2    -0.368033171475E+03   -0.33033E-02   -0.72415E-02  7091   0.722E-01    0.279E-01
RMM:   3    -0.368031320553E+03    0.18509E-02   -0.10110E-02  7287   0.206E-01    0.199E-01
RMM:   4    -0.368030803158E+03    0.51739E-03   -0.23961E-03  7468   0.794E-02    0.122E-01
RMM:   5    -0.368030665455E+03    0.13770E-03   -0.10914E-03  7498   0.616E-02    0.656E-02
RMM:   6    -0.368030636575E+03    0.28880E-04   -0.40769E-04  7380   0.344E-02    0.388E-02
RMM:   7    -0.368030632989E+03    0.35862E-05   -0.15463E-04  6225   0.187E-02    0.264E-02
RMM:   8    -0.368030628886E+03    0.41026E-05   -0.55903E-05  4491   0.135E-02
   4 F= -.36803063E+03 E0= -.36803401E+03  d E =-.273873E-01
       N       E                     dE             d eps       ncg     rms          rms(c)
DAV:   1    -0.368071919576E+03   -0.41287E-01   -0.15835E+01  4824   0.107E+01    0.160E+00
RMM:   2    -0.368099899550E+03   -0.27980E-01   -0.64386E-01  7030   0.216E+00    0.803E-01
RMM:   3    -0.368086174386E+03    0.13725E-01   -0.90926E-02  7319   0.613E-01    0.595E-01
RMM:   4    -0.368081497513E+03    0.46769E-02   -0.20654E-02  7506   0.234E-01    0.361E-01
RMM:   5    -0.368080394784E+03    0.11027E-02   -0.98589E-03  7499   0.184E-01    0.200E-01
RMM:   6    -0.368080182260E+03    0.21252E-03   -0.36627E-03  7629   0.103E-01    0.120E-01
RMM:   7    -0.368080199861E+03   -0.17601E-04   -0.14238E-03  8005   0.548E-02    0.828E-02
RMM:   8    -0.368080208819E+03   -0.89580E-05   -0.56252E-04  7100   0.322E-02    0.530E-02
RMM:   9    -0.368080218836E+03   -0.10018E-04   -0.27617E-04  6453   0.259E-02    0.291E-02
RMM:  10    -0.368080219331E+03   -0.49436E-06   -0.11659E-04  5442   0.188E-02    0.157E-02
RMM:  11    -0.368080219265E+03    0.66018E-07   -0.60715E-05  4614   0.147E-02
   5 F= -.36808022E+03 E0= -.36808364E+03  d E =-.769777E-01
       N       E                     dE             d eps       ncg     rms          rms(c)
DAV:   1    -0.367989252545E+03    0.90967E-01   -0.63336E+01  4816   0.213E+01    0.314E+00
RMM:   2    -0.368096025831E+03   -0.10677E+00   -0.26073E+00  7026   0.433E+00    0.152E+00
RMM:   3    -0.368058601402E+03    0.37424E-01   -0.36187E-01  7370   0.124E+00    0.117E+00
RMM:   4    -0.368040368934E+03    0.18232E-01   -0.78912E-02  7525   0.472E-01    0.723E-01
RMM:   5    -0.368036286095E+03    0.40828E-02   -0.39946E-02  7495   0.367E-01    0.415E-01
RMM:   6    -0.368035168591E+03    0.11175E-02   -0.14260E-02  7606   0.207E-01    0.249E-01
RMM:   7    -0.368035233530E+03   -0.64938E-04   -0.56693E-03  8417   0.108E-01    0.168E-01
RMM:   8    -0.368035309083E+03   -0.75553E-04   -0.23667E-03  8101   0.641E-02    0.107E-01
RMM:   9    -0.368035353707E+03   -0.44624E-04   -0.10759E-03  7642   0.460E-02    0.613E-02
RMM:  10    -0.368035375443E+03   -0.21737E-04   -0.47345E-04  7018   0.320E-02    0.341E-02
RMM:  11    -0.368035383054E+03   -0.76105E-05   -0.21517E-04  6137   0.229E-02    0.209E-02
RMM:  12    -0.368035381763E+03    0.12910E-05   -0.87145E-05  5093   0.158E-02
   6 F= -.36803538E+03 E0= -.36803865E+03  d E =-.321402E-01
       N       E                     dE             d eps       ncg     rms          rms(c)
DAV:   1    -0.368078428714E+03   -0.43046E-01   -0.34283E+01  5016   0.156E+01    0.243E+00
RMM:   2    -0.368134976445E+03   -0.56548E-01   -0.13710E+00  7030   0.307E+00    0.118E+00
RMM:   3    -0.368097722269E+03    0.37254E-01   -0.18237E-01  7322   0.860E-01    0.849E-01
RMM:   4    -0.368088663202E+03    0.90591E-02   -0.46283E-02  7630   0.356E-01    0.506E-01
RMM:   5    -0.368086695833E+03    0.19674E-02   -0.20260E-02  7639   0.266E-01    0.290E-01
RMM:   6    -0.368086563939E+03    0.13189E-03   -0.77335E-03  7896   0.146E-01    0.185E-01
RMM:   7    -0.368086671259E+03   -0.10732E-03   -0.29381E-03  8339   0.854E-02    0.123E-01
RMM:   8    -0.368086780083E+03   -0.10882E-03   -0.12456E-03  7873   0.485E-02    0.766E-02
RMM:   9    -0.368086847866E+03   -0.67784E-04   -0.56313E-04  7296   0.371E-02    0.419E-02
RMM:  10    -0.368086885038E+03   -0.37171E-04   -0.23940E-04  6614   0.244E-02    0.238E-02
RMM:  11    -0.368086898863E+03   -0.13826E-04   -0.10364E-04  5517   0.177E-02    0.138E-02
RMM:  12    -0.368086901978E+03   -0.31148E-05   -0.36189E-05  4067   0.130E-02
   7 F= -.36808690E+03 E0= -.36809030E+03  d E =-.836604E-01
       N       E                     dE             d eps       ncg     rms          rms(c)
DAV:   1    -0.368092621998E+03   -0.57231E-02   -0.41589E-01  5008   0.198E+00    0.367E-01
RMM:   2    -0.368093086777E+03   -0.46478E-03   -0.25477E-02  6320   0.443E-01    0.152E-01
RMM:   3    -0.368092570639E+03    0.51614E-03   -0.30689E-03  7235   0.138E-01    0.109E-01
RMM:   4    -0.368092303880E+03    0.26676E-03   -0.83494E-04  7373   0.533E-02    0.635E-02
RMM:   5    -0.368092252690E+03    0.51190E-04   -0.31396E-04  7451   0.333E-02    0.422E-02
RMM:   6    -0.368092241735E+03    0.10955E-04   -0.11855E-04  6276   0.204E-02    0.236E-02
RMM:   7    -0.368092236170E+03    0.55652E-05   -0.51017E-05  4162   0.138E-02
   8 F= -.36809224E+03 E0= -.36809561E+03  d E =-.533419E-02
       N       E                     dE             d eps       ncg     rms          rms(c)
DAV:   1    -0.368102360240E+03   -0.10119E-01   -0.37392E+00  4816   0.594E+00    0.108E+00
RMM:   2    -0.368106476279E+03   -0.41160E-02   -0.22558E-01  6206   0.132E+00    0.446E-01
RMM:   3    -0.368101918968E+03    0.45573E-02   -0.26903E-02  7230   0.413E-01    0.319E-01
RMM:   4    -0.368099665735E+03    0.22532E-02   -0.73462E-03  7402   0.158E-01    0.185E-01
RMM:   5    -0.368099281256E+03    0.38448E-03   -0.27566E-03  7608   0.967E-02    0.126E-01
RMM:   6    -0.368099259601E+03    0.21655E-04   -0.10758E-03  7899   0.591E-02    0.711E-02
RMM:   7    -0.368099264550E+03   -0.49496E-05   -0.53452E-04  7551   0.372E-02    0.430E-02
RMM:   8    -0.368099268314E+03   -0.37643E-05   -0.22837E-04  6489   0.245E-02    0.288E-02
RMM:   9    -0.368099275813E+03   -0.74984E-05   -0.10886E-04  4992   0.193E-02    0.233E-02
RMM:  10    -0.368099277849E+03   -0.20364E-05   -0.54933E-05  4518   0.148E-02
   9 F= -.36809928E+03 E0= -.36810257E+03  d E =-.123759E-01
       N       E                     dE             d eps       ncg     rms          rms(c)
DAV:   1    -0.368104568395E+03   -0.52926E-02   -0.38810E-01  5120   0.198E+00    0.453E-01
RMM:   2    -0.368104433327E+03    0.13507E-03   -0.29290E-02  6750   0.475E-01    0.180E-01
RMM:   3    -0.368103522348E+03    0.91098E-03   -0.42699E-03  7309   0.146E-01    0.130E-01
RMM:   4    -0.368103123972E+03    0.39838E-03   -0.11118E-03  7515   0.629E-02    0.704E-02
RMM:   5    -0.368103072997E+03    0.50975E-04   -0.38141E-04  7437   0.395E-02    0.466E-02
RMM:   6    -0.368103084276E+03   -0.11279E-04   -0.15316E-04  6661   0.220E-02    0.293E-02
RMM:   7    -0.368103093490E+03   -0.92143E-05   -0.60185E-05  4642   0.149E-02
  10 F= -.36810309E+03 E0= -.36810632E+03  d E =-.381564E-02
       N       E                     dE             d eps       ncg     rms          rms(c)
DAV:   1    -0.368117569810E+03   -0.14486E-01   -0.28637E+00  4936   0.538E+00    0.123E+00
RMM:   2    -0.368116432215E+03    0.11376E-02   -0.21282E-01  6548   0.129E+00    0.486E-01
RMM:   3    -0.368109548189E+03    0.68840E-02   -0.30186E-02  7243   0.400E-01    0.342E-01
RMM:   4    -0.368106685437E+03    0.28628E-02   -0.79918E-03  7537   0.170E-01    0.185E-01
RMM:   5    -0.368106358839E+03    0.32660E-03   -0.26455E-03  7535   0.105E-01    0.127E-01
RMM:   6    -0.368106435694E+03   -0.76855E-04   -0.11045E-03  7776   0.573E-02    0.810E-02
RMM:   7    -0.368106498095E+03   -0.62401E-04   -0.50063E-04  7307   0.400E-02    0.430E-02
RMM:   8    -0.368106537602E+03   -0.39506E-04   -0.24465E-04  6447   0.245E-02    0.311E-02
RMM:   9    -0.368106563586E+03   -0.25984E-04   -0.10815E-04  4981   0.194E-02    0.245E-02
RMM:  10    -0.368106588937E+03   -0.25351E-04   -0.54321E-05  4403   0.143E-02    0.119E-02
RMM:  11    -0.368106602734E+03   -0.13798E-04   -0.28906E-05  3732   0.129E-02    0.580E-03
RMM:  12    -0.368106604879E+03   -0.21448E-05   -0.14907E-05  3343   0.125E-02
  11 F= -.36810660E+03 E0= -.36810966E+03  d E =-.732703E-02
       N       E                     dE             d eps       ncg     rms          rms(c)
DAV:   1    -0.368107031889E+03   -0.42915E-03   -0.69976E-02  5256   0.841E-01    0.194E-01
RMM:   2    -0.368107024051E+03    0.78373E-05   -0.52742E-03  6691   0.202E-01    0.777E-02
RMM:   3    -0.368106850994E+03    0.17306E-03   -0.76174E-04  7231   0.622E-02    0.565E-02
RMM:   4    -0.368106770472E+03    0.80522E-04   -0.18906E-04  7021   0.269E-02    0.308E-02
RMM:   5    -0.368106754281E+03    0.16191E-04   -0.58525E-05  4792   0.180E-02    0.199E-02
RMM:   6    -0.368106748886E+03    0.53949E-05   -0.22423E-05  2997   0.115E-02
  12 F= -.36810675E+03 E0= -.36810983E+03  d E =-.747104E-02
       N       E                     dE             d eps       ncg     rms          rms(c)
DAV:   1    -0.368107749017E+03   -0.99474E-03   -0.13575E-01  4896   0.108E+00    0.790E-02
RMM:   2    -0.368108179438E+03   -0.43042E-03   -0.51617E-03  5705   0.214E-01    0.376E-02
RMM:   3    -0.368108149474E+03    0.29964E-04   -0.53435E-04  6961   0.625E-02    0.357E-02
RMM:   4    -0.368108142640E+03    0.68342E-05   -0.10889E-04  5515   0.153E-02    0.260E-02
RMM:   5    -0.368108139177E+03    0.34624E-05   -0.27060E-05  3303   0.105E-02
  13 F= -.36810814E+03 E0= -.36811120E+03  d E =-.139029E-02
       N       E                     dE             d eps       ncg     rms          rms(c)
DAV:   1    -0.368107974989E+03    0.16765E-03   -0.12199E+00  4816   0.324E+00    0.240E-01
RMM:   2    -0.368111887827E+03   -0.39128E-02   -0.46977E-02  6013   0.643E-01    0.121E-01
RMM:   3    -0.368111662964E+03    0.22486E-03   -0.52545E-03  7289   0.183E-01    0.112E-01
RMM:   4    -0.368111615254E+03    0.47710E-04   -0.10957E-03  8247   0.456E-02    0.816E-02
RMM:   5    -0.368111597807E+03    0.17447E-04   -0.34628E-04  7245   0.326E-02    0.506E-02
RMM:   6    -0.368111579915E+03    0.17892E-04   -0.19468E-04  7163   0.309E-02    0.183E-02
RMM:   7    -0.368111575077E+03    0.48381E-05   -0.50603E-05  4179   0.128E-02
  14 F= -.36811158E+03 E0= -.36811457E+03  d E =-.482619E-02
       N       E                     dE             d eps       ncg     rms          rms(c)
DAV:   1    -0.368100423976E+03    0.11156E-01   -0.48901E+00  4816   0.650E+00    0.485E-01
RMM:   2    -0.368116249857E+03   -0.15826E-01   -0.18973E-01  6004   0.130E+00    0.242E-01
RMM:   3    -0.368115372703E+03    0.87715E-03   -0.20888E-02  7309   0.368E-01    0.228E-01
RMM:   4    -0.368115188501E+03    0.18420E-03   -0.43348E-03  8538   0.913E-02    0.168E-01
RMM:   5    -0.368115113363E+03    0.75138E-04   -0.13295E-03  7547   0.635E-02    0.106E-01
RMM:   6    -0.368115044027E+03    0.69335E-04   -0.79944E-04  7356   0.641E-02    0.373E-02
RMM:   7    -0.368115033941E+03    0.10087E-04   -0.27222E-04  7201   0.249E-02    0.259E-02
RMM:   8    -0.368115028517E+03    0.54241E-05   -0.66843E-05  4762   0.155E-02
  15 F= -.36811503E+03 E0= -.36811789E+03  d E =-.827963E-02
       N       E                     dE             d eps       ncg     rms          rms(c)
DAV:   1    -0.368114592303E+03    0.44164E-03   -0.18471E-01  5056   0.126E+00    0.917E-02
RMM:   2    -0.368115208387E+03   -0.61608E-03   -0.72681E-03  6295   0.251E-01    0.487E-02
RMM:   3    -0.368115180415E+03    0.27972E-04   -0.84220E-04  7095   0.699E-02    0.429E-02
RMM:   4    -0.368115177232E+03    0.31830E-05   -0.20600E-04  5926   0.193E-02    0.317E-02
RMM:   5    -0.368115174319E+03    0.29132E-05   -0.57823E-05  4589   0.131E-02
  16 F= -.36811517E+03 E0= -.36811801E+03  d E =-.842543E-02
       N       E                     dE             d eps       ncg     rms          rms(c)
DAV:   1    -0.368116958699E+03   -0.17815E-02   -0.50714E-01  4872   0.214E+00    0.380E-01
RMM:   2    -0.368117676422E+03   -0.71772E-03   -0.30407E-02  6469   0.474E-01    0.165E-01
RMM:   3    -0.368116950111E+03    0.72631E-03   -0.35961E-03  7207   0.144E-01    0.116E-01
RMM:   4    -0.368116697445E+03    0.25267E-03   -0.98603E-04  7465   0.561E-02    0.652E-02
RMM:   5    -0.368116657499E+03    0.39946E-04   -0.37944E-04  7478   0.370E-02    0.416E-02
RMM:   6    -0.368116666396E+03   -0.88976E-05   -0.14128E-04  6526   0.218E-02    0.255E-02
RMM:   7    -0.368116675014E+03   -0.86181E-05   -0.54961E-05  4408   0.143E-02
  17 F= -.36811668E+03 E0= -.36811948E+03  d E =-.150070E-02
       N       E                     dE             d eps       ncg     rms          rms(c)
DAV:   1    -0.368117012919E+03   -0.34652E-03   -0.25295E-01  4880   0.151E+00    0.263E-01
RMM:   2    -0.368117367776E+03   -0.35486E-03   -0.14904E-02  6415   0.333E-01    0.112E-01
RMM:   3    -0.368117032939E+03    0.33484E-03   -0.17248E-03  7149   0.101E-01    0.786E-02
RMM:   4    -0.368116923597E+03    0.10934E-03   -0.48171E-04  7363   0.387E-02    0.450E-02
RMM:   5    -0.368116912665E+03    0.10933E-04   -0.19431E-04  7115   0.263E-02    0.295E-02
RMM:   6    -0.368116922470E+03   -0.98050E-05   -0.70086E-05  4985   0.161E-02
  18 F= -.36811692E+03 E0= -.36811971E+03  d E =-.174815E-02
       N       E                     dE             d eps       ncg     rms          rms(c)
DAV:   1    -0.368117793661E+03   -0.88100E-03   -0.19360E-01  5032   0.132E+00    0.230E-01
RMM:   2    -0.368118147902E+03   -0.35424E-03   -0.11181E-02  6703   0.291E-01    0.100E-01
RMM:   3    -0.368117899474E+03    0.24843E-03   -0.14042E-03  7274   0.882E-02    0.724E-02
RMM:   4    -0.368117799485E+03    0.99989E-04   -0.38402E-04  7365   0.348E-02    0.405E-02
RMM:   5    -0.368117779036E+03    0.20449E-04   -0.14698E-04  6869   0.241E-02    0.244E-02
RMM:   6    -0.368117772907E+03    0.61296E-05   -0.48814E-05  4227   0.137E-02
  19 F= -.36811777E+03 E0= -.36812056E+03  d E =-.850437E-03
       N       E                     dE             d eps       ncg     rms          rms(c)
DAV:   1    -0.368118105292E+03   -0.32626E-03   -0.98834E-02  4960   0.948E-01    0.156E-01
RMM:   2    -0.368118290236E+03   -0.18494E-03   -0.55759E-03  6564   0.205E-01    0.670E-02
RMM:   3    -0.368118158134E+03    0.13210E-03   -0.64808E-04  7194   0.606E-02    0.479E-02
RMM:   4    -0.368118113718E+03    0.44416E-04   -0.17991E-04  6756   0.234E-02    0.280E-02
RMM:   5    -0.368118103098E+03    0.10620E-04   -0.69433E-05  5009   0.169E-02    0.181E-02
RMM:   6    -0.368118099404E+03    0.36936E-05   -0.25678E-05  3224   0.112E-02
  20 F= -.36811810E+03 E0= -.36812089E+03  d E =-.117693E-02
       N       E                     dE             d eps       ncg     rms          rms(c)
DAV:   1    -0.368118129139E+03   -0.26041E-04   -0.39556E-01  4824   0.190E+00    0.314E-01
RMM:   2    -0.368118855613E+03   -0.72647E-03   -0.22265E-02  6454   0.410E-01    0.133E-01
RMM:   3    -0.368118337188E+03    0.51843E-03   -0.25489E-03  7196   0.123E-01    0.955E-02
RMM:   4    -0.368118158081E+03    0.17911E-03   -0.67696E-04  7367   0.460E-02    0.553E-02
RMM:   5    -0.368118122902E+03    0.35179E-04   -0.26977E-04  7391   0.316E-02    0.351E-02
RMM:   6    -0.368118116797E+03    0.61048E-05   -0.11085E-04  6064   0.190E-02    0.222E-02
RMM:   7    -0.368118111906E+03    0.48912E-05   -0.45512E-05  3926   0.129E-02
  21 F= -.36811811E+03 E0= -.36812091E+03  d E =-.118944E-02
       N       E                     dE             d eps       ncg     rms          rms(c)
DAV:   1    -0.368118226730E+03   -0.10993E-03   -0.78195E-02  4992   0.843E-01    0.145E-01
RMM:   2    -0.368118349293E+03   -0.12256E-03   -0.44910E-03  6380   0.185E-01    0.622E-02
RMM:   3    -0.368118244204E+03    0.10509E-03   -0.51330E-04  7143   0.574E-02    0.455E-02
RMM:   4    -0.368118204182E+03    0.40022E-04   -0.13238E-04  6550   0.216E-02    0.253E-02
RMM:   5    -0.368118196161E+03    0.80209E-05   -0.37786E-05  3548   0.150E-02
  22 F= -.36811820E+03 E0= -.36812099E+03  d E =-.127369E-02
       N       E                     dE             d eps       ncg     rms          rms(c)
DAV:   1    -0.368118395992E+03   -0.19181E-03   -0.23172E-02  5008   0.446E-01    0.326E-02
RMM:   2    -0.368118471036E+03   -0.75045E-04   -0.89123E-04  6336   0.886E-02    0.177E-02
RMM:   3    -0.368118462616E+03    0.84205E-05   -0.78102E-05  5029   0.267E-02
  23 F= -.36811846E+03 E0= -.36812126E+03  d E =-.266455E-03
       N       E                     dE             d eps       ncg     rms          rms(c)
DAV:   1    -0.368118449264E+03    0.21772E-04   -0.20829E-01  4840   0.133E+00    0.101E-01
RMM:   2    -0.368119092318E+03   -0.64305E-03   -0.80054E-03  6624   0.266E-01    0.564E-02
RMM:   3    -0.368119049581E+03    0.42737E-04   -0.95397E-04  7196   0.733E-02    0.461E-02
RMM:   4    -0.368119037289E+03    0.12293E-04   -0.21109E-04  6527   0.216E-02    0.293E-02
RMM:   5    -0.368119034405E+03    0.28839E-05   -0.77964E-05  5529   0.143E-02
  24 F= -.36811903E+03 E0= -.36812184E+03  d E =-.838244E-03
       N       E                     dE             d eps       ncg     rms          rms(c)
DAV:   1    -0.368116889881E+03    0.21474E-02   -0.83067E-01  4816   0.267E+00    0.195E-01
RMM:   2    -0.368119460231E+03   -0.25703E-02   -0.31516E-02  6494   0.530E-01    0.106E-01
RMM:   3    -0.368119293164E+03    0.16707E-03   -0.36142E-03  7284   0.148E-01    0.868E-02
RMM:   4    -0.368119249091E+03    0.44072E-04   -0.75838E-04  7898   0.404E-02    0.565E-02
RMM:   5    -0.368119241368E+03    0.77236E-05   -0.28950E-04  6998   0.302E-02    0.305E-02
RMM:   6    -0.368119232876E+03    0.84923E-05   -0.11990E-04  6628   0.221E-02    0.116E-02
RMM:   7    -0.368119231783E+03    0.10929E-05   -0.24727E-05  3392   0.105E-02
  25 F= -.36811923E+03 E0= -.36812202E+03  d E =-.103562E-02
       N       E                     dE             d eps       ncg     rms          rms(c)
DAV:   1    -0.368118972132E+03    0.26074E-03   -0.12791E-01  4840   0.105E+00    0.752E-02
RMM:   2    -0.368119354637E+03   -0.38251E-03   -0.47353E-03  5853   0.207E-01    0.399E-02
RMM:   3    -0.368119314169E+03    0.40468E-04   -0.46862E-04  6829   0.615E-02    0.330E-02
RMM:   4    -0.368119304713E+03    0.94560E-05   -0.10034E-04  5610   0.159E-02    0.209E-02
RMM:   5    -0.368119302674E+03    0.20396E-05   -0.31181E-05  3492   0.113E-02
  26 F= -.36811930E+03 E0= -.36812210E+03  d E =-.110651E-02
       N       E                     dE             d eps       ncg     rms          rms(c)
DAV:   1    -0.368119895135E+03   -0.59042E-03   -0.56975E-02  5144   0.792E-01    0.225E-01
RMM:   2    -0.368119660110E+03    0.23502E-03   -0.51634E-03  7161   0.203E-01    0.812E-02
RMM:   3    -0.368119503983E+03    0.15613E-03   -0.84637E-04  7385   0.590E-02    0.622E-02
RMM:   4    -0.368119402680E+03    0.10130E-03   -0.22724E-04  7190   0.318E-02    0.322E-02
RMM:   5    -0.368119392463E+03    0.10218E-04   -0.77316E-05  5903   0.198E-02    0.216E-02
RMM:   6    -0.368119398850E+03   -0.63877E-05   -0.26991E-05  3198   0.117E-02
  27 F= -.36811940E+03 E0= -.36812221E+03  d E =-.961769E-04
       N       E                     dE             d eps       ncg     rms          rms(c)
DAV:   1    -0.368119410771E+03   -0.18308E-04   -0.32072E-04  5976   0.560E-02    0.219E-02
RMM:   2    -0.368119415627E+03   -0.48563E-05   -0.45745E-05  4124   0.160E-02
  28 F= -.36811942E+03 E0= -.36812223E+03  d E =-.112953E-03
       N       E                     dE             d eps       ncg     rms          rms(c)
DAV:   1    -0.368119474316E+03   -0.63545E-04   -0.28706E-02  4912   0.505E-01    0.598E-02
RMM:   2    -0.368119557179E+03   -0.82863E-04   -0.13902E-03  7260   0.105E-01    0.316E-02
RMM:   3    -0.368119540019E+03    0.17161E-04   -0.14670E-04  6275   0.263E-02    0.231E-02
RMM:   4    -0.368119531447E+03    0.85721E-05   -0.37758E-05  3918   0.124E-02
  29 F= -.36811953E+03 E0= -.36812237E+03  d E =-.115820E-03
