<?xml version="1.0" encoding="ISO-8859-1"?>
<modeling>
 <generator>
  <i name="program" type="string">vasp </i>
  <i name="version" type="string">5.4.1  </i>
  <i name="subversion" type="string">05Feb16 (build Jan 29 2020 16:04:39) complex                          parallel </i>
  <i name="platform" type="string">IFC91_ompi </i>
  <i name="date" type="string">2020 06 15 </i>
  <i name="time" type="string">11:55:33 </i>
 </generator>
 <incar>
  <i type="string" name="SYSTEM"> automatically generated by mexm</i>
  <i type="int" name="ISTART">     0</i>
  <i type="string" name="PREC">accurate               ! avoid wrap aro</i>
  <i type="string" name="ALGO"> Fast                   ! blocked Davids</i>
  <i type="int" name="ISPIN">     1</i>
  <i type="int" name="ICHARG">     2</i>
  <i type="int" name="NELM">    70</i>
  <i type="int" name="IBRION">     2</i>
  <i name="EDIFF">      0.00001000</i>
  <i name="EDIFFG">     -0.01000000</i>
  <i type="int" name="NSW">   300</i>
  <i type="int" name="ISIF">     3</i>
  <i type="int" name="ISYM">     1</i>
  <i name="ENCUT">    300.00000000</i>
  <i name="POTIM">      0.15000000</i>
  <i type="string" name="LREAL"> Auto                  ! unpublished met</i>
  <i type="int" name="ISMEAR">     1</i>
  <i name="SIGMA">      0.15000000</i>
  <i type="logical" name="LWAVE"> F  </i>
  <i type="logical" name="LCHARG"> F  </i>
  <i type="logical" name="LVTOT"> F  </i>
  <v type="int" name="KPOINT_BSE">    -1     0     0     0</v>
  <i type="int" name="NELM">    70</i>
 </incar>
 <kpoints>
  <generation param="Gamma">
   <v type="int" name="divisions">       3        3        3 </v>
   <v name="usershift">      0.00000000       0.00000000       0.00000000 </v>
   <v name="genvec1">      0.33333333       0.00000000       0.00000000 </v>
   <v name="genvec2">      0.00000000       0.33333333       0.00000000 </v>
   <v name="genvec3">      0.00000000      -0.00000000       0.33333333 </v>
   <v name="shift">      0.00000000       0.00000000       0.00000000 </v>
  </generation>
  <varray name="kpointlist" >
   <v>       0.00000000       0.00000000       0.00000000 </v>
   <v>       0.33333333       0.00000000       0.00000000 </v>
   <v>      -0.00000000       0.33333333       0.00000000 </v>
   <v>       0.33333333       0.33333333       0.00000000 </v>
   <v>      -0.33333333       0.33333333      -0.00000000 </v>
   <v>       0.00000000      -0.00000000       0.33333333 </v>
   <v>       0.33333333      -0.00000000       0.33333333 </v>
   <v>      -0.33333333       0.00000000       0.33333333 </v>
   <v>      -0.00000000       0.33333333       0.33333333 </v>
   <v>       0.33333333       0.33333333       0.33333333 </v>
   <v>      -0.33333333       0.33333333       0.33333333 </v>
   <v>       0.00000000      -0.33333333       0.33333333 </v>
   <v>       0.33333333      -0.33333333       0.33333333 </v>
   <v>      -0.33333333      -0.33333333       0.33333333 </v>
  </varray>
  <varray name="weights" >
   <v>       0.03703704 </v>
   <v>       0.07407407 </v>
   <v>       0.07407407 </v>
   <v>       0.07407407 </v>
   <v>       0.07407407 </v>
   <v>       0.07407407 </v>
   <v>       0.07407407 </v>
   <v>       0.07407407 </v>
   <v>       0.07407407 </v>
   <v>       0.07407407 </v>
   <v>       0.07407407 </v>
   <v>       0.07407407 </v>
   <v>       0.07407407 </v>
   <v>       0.07407407 </v>
  </varray>
 </kpoints>
 <parameters>
  <separator name="general" >
   <i type="string" name="SYSTEM">automatically generated by mexm</i>
   <i type="logical" name="LCOMPAT"> F  </i>
  </separator>
  <separator name="electronic" >
   <i type="string" name="PREC">accura</i>
   <i name="ENMAX">    300.00000000</i>
   <i name="ENAUG">    461.25700000</i>
   <i name="EDIFF">      0.00001000</i>
   <i type="int" name="IALGO">    68</i>
   <i type="int" name="IWAVPR">    11</i>
   <i type="int" name="NBANDS">   180</i>
   <i name="NELECT">    295.00000000</i>
   <i type="int" name="TURBO">     0</i>
   <i type="int" name="IRESTART">     0</i>
   <i type="int" name="NREBOOT">     0</i>
   <i type="int" name="NMIN">     0</i>
   <i name="EREF">      0.00000000</i>
   <separator name="electronic smearing" >
    <i type="int" name="ISMEAR">     1</i>
    <i name="SIGMA">      0.15000000</i>
    <i name="KSPACING">      0.50000000</i>
    <i type="logical" name="KGAMMA"> T  </i>
   </separator>
   <separator name="electronic projectors" >
    <i type="logical" name="LREAL"> T  </i>
    <v name="ROPT">     -0.00025000     -0.00025000     -0.00025000     -0.00025000</v>
    <i type="int" name="LMAXPAW">  -100</i>
    <i type="int" name="LMAXMIX">     2</i>
    <i type="logical" name="NLSPLINE"> F  </i>
   </separator>
   <separator name="electronic startup" >
    <i type="int" name="ISTART">     0</i>
    <i type="int" name="ICHARG">     2</i>
    <i type="int" name="INIWAV">     1</i>
   </separator>
   <separator name="electronic spin" >
    <i type="int" name="ISPIN">     1</i>
    <i type="logical" name="LNONCOLLINEAR"> F  </i>
    <v name="MAGMOM">      1.00000000      1.00000000      1.00000000      1.00000000      1.00000000      1.00000000      1.00000000      1.00000000      1.00000000      1.00000000      1.00000000      1.00000000      1.00000000      1.00000000      1.00000000      1.00000000      1.00000000      1.00000000      1.00000000      1.00000000
      1.00000000      1.00000000      1.00000000      1.00000000      1.00000000      1.00000000      1.00000000      1.00000000      1.00000000      1.00000000      1.00000000      1.00000000      1.00000000      1.00000000      1.00000000      1.00000000</v>
    <i name="NUPDOWN">     -1.00000000</i>
    <i type="logical" name="LSORBIT"> F  </i>
    <v name="SAXIS">      0.00000000      0.00000000      1.00000000</v>
    <i type="logical" name="LSPIRAL"> F  </i>
    <v name="QSPIRAL">      0.00000000      0.00000000      0.00000000</v>
    <i type="logical" name="LZEROZ"> F  </i>
   </separator>
   <separator name="electronic exchange-correlation" >
    <i type="logical" name="LASPH"> F  </i>
    <i type="logical" name="LMETAGGA"> F  </i>
   </separator>
   <separator name="electronic convergence" >
    <i type="int" name="NELM">    70</i>
    <i type="int" name="NELMDL">    -5</i>
    <i type="int" name="NELMIN">     2</i>
    <i name="ENINI">    300.00000000</i>
    <separator name="electronic convergence detail" >
     <i type="logical" name="LDIAG"> T  </i>
     <i type="logical" name="LSUBROT"> F  </i>
     <i name="WEIMIN">      0.00100000</i>
     <i name="EBREAK">      0.00000001</i>
     <i name="DEPER">      0.30000000</i>
     <i type="int" name="NRMM">     4</i>
     <i name="TIME">      0.40000000</i>
    </separator>
   </separator>
   <separator name="electronic mixer" >
    <i name="AMIX">      0.40000000</i>
    <i name="BMIX">      1.00000000</i>
    <i name="AMIN">      0.10000000</i>
    <i name="AMIX_MAG">      1.60000000</i>
    <i name="BMIX_MAG">      1.00000000</i>
    <separator name="electronic mixer details" >
     <i type="int" name="IMIX">     4</i>
     <i type="logical" name="MIXFIRST"> F  </i>
     <i type="int" name="MAXMIX">   -45</i>
     <i name="WC">    100.00000000</i>
     <i type="int" name="INIMIX">     1</i>
     <i type="int" name="MIXPRE">     1</i>
     <i type="int" name="MREMOVE">     5</i>
    </separator>
   </separator>
   <separator name="electronic dipolcorrection" >
    <i type="logical" name="LDIPOL"> F  </i>
    <i type="logical" name="LMONO"> F  </i>
    <i type="int" name="IDIPOL">     0</i>
    <i name="EPSILON">      1.00000000</i>
    <v name="DIPOL">   -100.00000000   -100.00000000   -100.00000000</v>
    <i name="EFIELD">      0.00000000</i>
   </separator>
  </separator>
  <separator name="grids" >
   <i type="int" name="NGX">    40</i>
   <i type="int" name="NGY">    60</i>
   <i type="int" name="NGZ">    60</i>
   <i type="int" name="NGXF">    80</i>
   <i type="int" name="NGYF">   120</i>
   <i type="int" name="NGZF">   120</i>
   <i type="logical" name="ADDGRID"> F  </i>
  </separator>
  <separator name="ionic" >
   <i type="int" name="NSW">   300</i>
   <i type="int" name="IBRION">     2</i>
   <i type="int" name="ISIF">     3</i>
   <i name="PSTRESS">      0.00000000</i>
   <i name="EDIFFG">     -0.01000000</i>
   <i type="int" name="NFREE">     1</i>
   <i name="POTIM">      0.15000000</i>
   <i name="SMASS">     -3.00000000</i>
   <i name="SCALEE">      1.00000000</i>
  </separator>
  <separator name="ionic md" >
   <i name="TEBEG">      0.00010000</i>
   <i name="TEEND">      0.00010000</i>
   <i type="int" name="NBLOCK">     1</i>
   <i type="int" name="KBLOCK">   300</i>
   <i type="int" name="NPACO">   256</i>
   <i name="APACO">     16.00000000</i>
  </separator>
  <separator name="symmetry" >
   <i type="int" name="ISYM">     1</i>
   <i name="SYMPREC">      0.00001000</i>
  </separator>
  <separator name="dos" >
   <i type="logical" name="LORBIT"> F  </i>
   <v name="RWIGS">     -1.00000000     -1.00000000     -1.00000000     -1.00000000</v>
   <i type="int" name="NEDOS">   301</i>
   <i name="EMIN">     10.00000000</i>
   <i name="EMAX">    -10.00000000</i>
   <i name="EFERMI">      0.00000000</i>
  </separator>
  <separator name="writing" >
   <i type="int" name="NWRITE">     2</i>
   <i type="logical" name="LWAVE"> F  </i>
   <i type="logical" name="LCHARG"> F  </i>
   <i type="logical" name="LPARD"> F  </i>
   <i type="logical" name="LVTOT"> F  </i>
   <i type="logical" name="LVHAR"> F  </i>
   <i type="logical" name="LELF"> F  </i>
   <i type="logical" name="LOPTICS"> F  </i>
   <v name="STM">      0.00000000      0.00000000      0.00000000      0.00000000      0.00000000      0.00000000      0.00000000</v>
  </separator>
  <separator name="performance" >
   <i type="int" name="NPAR">     4</i>
   <i type="int" name="NSIM">     4</i>
   <i type="int" name="NBLK">    -1</i>
   <i type="logical" name="LPLANE"> T  </i>
   <i type="logical" name="LSCALAPACK"> T  </i>
   <i type="logical" name="LSCAAWARE"> F  </i>
   <i type="logical" name="LSCALU"> F  </i>
   <i type="logical" name="LASYNC"> F  </i>
   <i type="logical" name="LORBITALREAL"> F  </i>
  </separator>
  <separator name="miscellaneous" >
   <i type="int" name="IDIOT">     3</i>
   <i type="logical" name="LMUSIC"> F  </i>
   <v name="POMASS">    180.94800000    178.49000000     92.91000000     91.22400000</v>
   <v name="DARWINR">      0.00000000      0.00000000      0.00000000      0.00000000</v>
   <v name="DARWINV">      1.00000000      1.00000000      1.00000000      1.00000000</v>
   <i type="logical" name="LCORR"> T  </i>
  </separator>
  <i type="logical" name="GGA_COMPAT"> T  </i>
  <i type="logical" name="LBERRY"> F  </i>
  <i type="int" name="ICORELEVEL">     0</i>
  <i type="logical" name="LDAU"> F  </i>
  <i type="int" name="I_CONSTRAINED_M">     0</i>
  <separator name="electronic exchange-correlation" >
   <i type="string" name="GGA">--</i>
   <i type="int" name="VOSKOWN">     0</i>
   <i type="logical" name="LHFCALC"> F  </i>
   <i type="string" name="PRECFOCK"></i>
   <i type="logical" name="LSYMGRAD"> F  </i>
   <i type="logical" name="LHFONE"> F  </i>
   <i type="logical" name="LRHFCALC"> F  </i>
   <i type="logical" name="LTHOMAS"> F  </i>
   <i type="logical" name="LMODELHF"> F  </i>
   <i name="ENCUT4O">     -1.00000000</i>
   <i type="int" name="EXXOEP">     0</i>
   <i type="int" name="FOURORBIT">     0</i>
   <i name="AEXX">      0.00000000</i>
   <i name="HFALPHA">      0.00000000</i>
   <i name="MCALPHA">      0.00000000</i>
   <i name="ALDAX">      1.00000000</i>
   <i name="AGGAX">      1.00000000</i>
   <i name="ALDAC">      1.00000000</i>
   <i name="AGGAC">      1.00000000</i>
   <i type="int" name="NKREDX">     1</i>
   <i type="int" name="NKREDY">     1</i>
   <i type="int" name="NKREDZ">     1</i>
   <i type="logical" name="SHIFTRED"> F  </i>
   <i type="logical" name="ODDONLY"> F  </i>
   <i type="logical" name="EVENONLY"> F  </i>
   <i type="int" name="LMAXFOCK">     0</i>
   <i type="int" name="NMAXFOCKAE">     0</i>
   <i type="logical" name="LFOCKAEDFT"> F  </i>
   <i name="HFSCREEN">      0.00000000</i>
   <i name="HFSCREENC">      0.00000000</i>
   <i type="int" name="NBANDSGWLOW">     0</i>
  </separator>
  <separator name="vdW DFT" >
   <i type="logical" name="LUSE_VDW"> F  </i>
   <i name="Zab_VDW">     -0.84910000</i>
   <i name="PARAM1">      0.12340000</i>
   <i name="PARAM2">      1.00000000</i>
   <i name="PARAM3">      0.00000000</i>
  </separator>
  <separator name="model GW" >
   <i type="int" name="MODEL_GW">     0</i>
   <i name="MODEL_EPS0">     12.36848960</i>
   <i name="MODEL_ALPHA">      1.00000000</i>
  </separator>
  <separator name="linear response parameters" >
   <i type="logical" name="LEPSILON"> F  </i>
   <i type="logical" name="LRPA"> F  </i>
   <i type="logical" name="LNABLA"> F  </i>
   <i type="logical" name="LVEL"> F  </i>
   <i type="int" name="KINTER">     0</i>
   <i name="CSHIFT">      0.10000000</i>
   <i name="OMEGAMAX">     -1.00000000</i>
   <i name="DEG_THRESHOLD">      0.00200000</i>
  </separator>
  <separator name="orbital magnetization" >
   <i type="logical" name="NUCIND"> F  </i>
   <v name="MAGPOS">      0.00000000      0.00000000      0.00000000</v>
   <i type="logical" name="LNICSALL"> T  </i>
   <i type="logical" name="ORBITALMAG"> F  </i>
   <i type="logical" name="LMAGBLOCH"> F  </i>
   <i type="logical" name="LCHIMAG"> F  </i>
   <i type="logical" name="LGAUGE"> T  </i>
   <i type="int" name="MAGATOM">     0</i>
   <v name="MAGDIPOL">      0.00000000      0.00000000      0.00000000</v>
   <v name="AVECCONST">      0.00000000      0.00000000      0.00000000</v>
  </separator>
  <separator name="response functions" >
   <i type="logical" name="LADDER"> F  </i>
   <i type="logical" name="LFXC"> F  </i>
   <i type="logical" name="LHARTREE"> T  </i>
   <i type="int" name="IBSE">     0</i>
   <v type="int" name="KPOINT">    -1     0     0     0</v>
   <i type="logical" name="LTCTE"> F  </i>
   <i type="logical" name="LTETE"> F  </i>
   <i type="logical" name="LTRIPLET"> F  </i>
   <i type="logical" name="LFXCEPS"> F  </i>
   <i type="logical" name="LFXHEG"> F  </i>
   <i type="int" name="NATURALO">     0</i>
   <i type="logical" name="L2ORDER"> F  </i>
   <i type="logical" name="LUSEW"> F  </i>
   <i name="ENCUTGW">     -2.00000000</i>
   <i name="ENCUTGWSOFT">     -2.00000000</i>
   <i name="ENCUTLF">     -1.00000000</i>
   <i type="int" name="LMAXMP2">    -1</i>
   <i name="SCISSOR">      0.00000000</i>
   <i type="int" name="NOMEGA">     0</i>
   <i type="int" name="NOMEGAR">     0</i>
   <i type="int" name="NBANDSGW">    -1</i>
   <i type="int" name="NBANDSO">    -1</i>
   <i type="int" name="NBANDSV">    -1</i>
   <i type="int" name="NELM">    70</i>
   <i type="int" name="NELMHF">     1</i>
   <i type="int" name="DIM">     3</i>
   <i type="int" name="ANTIRES">     0</i>
   <i name="OMEGAMAX">    -30.00000000</i>
   <i name="OMEGAMIN">    -30.00000000</i>
   <i name="OMEGATL">   -200.00000000</i>
   <i type="int" name="OMEGAGRID">     0</i>
   <i name="CSHIFT">     -0.10000000</i>
   <i type="logical" name="SELFENERGY"> F  </i>
   <i type="logical" name="LSPECTRAL"> F  </i>
   <i type="logical" name="LSPECTRALGW"> F  </i>
   <i type="logical" name="LSINGLES"> F  </i>
   <i type="logical" name="LFERMIGW"> F  </i>
   <i type="logical" name="ODDONLYGW"> F  </i>
   <i type="logical" name="EVENONLYGW"> F  </i>
   <i type="int" name="NKREDLFX">     1</i>
   <i type="int" name="NKREDLFY">     1</i>
   <i type="int" name="NKREDLFZ">     1</i>
   <i type="int" name="MAXMEM">  1800</i>
   <i type="int" name="TELESCOPE">     0</i>
   <i type="int" name="TAUPAR">     1</i>
   <i type="int" name="OMEGAPAR">    -1</i>
   <i name="LAMBDA">      1.00000000</i>
  </separator>
  <separator name="External order field" >
   <i name="OFIELD_KAPPA">      0.00000000</i>
   <v name="OFIELD_K">      0.00000000      0.00000000      0.00000000</v>
   <i name="OFIELD_Q6_NEAR">      0.00000000</i>
   <i name="OFIELD_Q6_FAR">      0.00000000</i>
   <i name="OFIELD_A">      0.00000000</i>
  </separator>
 </parameters>
 <atominfo>
  <atoms>      36 </atoms>
  <types>       4 </types>
  <array name="atoms" >
   <dimension dim="1">ion</dimension>
   <field type="string">element</field>
   <field type="int">atomtype</field>
   <set>
    <rc><c>Ta</c><c>   1</c></rc>
    <rc><c>Ta</c><c>   1</c></rc>
    <rc><c>Ta</c><c>   1</c></rc>
    <rc><c>Ta</c><c>   1</c></rc>
    <rc><c>Ta</c><c>   1</c></rc>
    <rc><c>Ta</c><c>   1</c></rc>
    <rc><c>Ta</c><c>   1</c></rc>
    <rc><c>Ta</c><c>   1</c></rc>
    <rc><c>Ta</c><c>   1</c></rc>
    <rc><c>Ta</c><c>   1</c></rc>
    <rc><c>Hf</c><c>   2</c></rc>
    <rc><c>Hf</c><c>   2</c></rc>
    <rc><c>Hf</c><c>   2</c></rc>
    <rc><c>Hf</c><c>   2</c></rc>
    <rc><c>Hf</c><c>   2</c></rc>
    <rc><c>Hf</c><c>   2</c></rc>
    <rc><c>Hf</c><c>   2</c></rc>
    <rc><c>Hf</c><c>   2</c></rc>
    <rc><c>Hf</c><c>   2</c></rc>
    <rc><c>Nb</c><c>   3</c></rc>
    <rc><c>Nb</c><c>   3</c></rc>
    <rc><c>Nb</c><c>   3</c></rc>
    <rc><c>Nb</c><c>   3</c></rc>
    <rc><c>Nb</c><c>   3</c></rc>
    <rc><c>Zr</c><c>   4</c></rc>
    <rc><c>Zr</c><c>   4</c></rc>
    <rc><c>Zr</c><c>   4</c></rc>
    <rc><c>Zr</c><c>   4</c></rc>
    <rc><c>Zr</c><c>   4</c></rc>
    <rc><c>Zr</c><c>   4</c></rc>
    <rc><c>Zr</c><c>   4</c></rc>
    <rc><c>Zr</c><c>   4</c></rc>
    <rc><c>Zr</c><c>   4</c></rc>
    <rc><c>Zr</c><c>   4</c></rc>
    <rc><c>Zr</c><c>   4</c></rc>
    <rc><c>Zr</c><c>   4</c></rc>
   </set>
  </array>
  <array name="atomtypes" >
   <dimension dim="1">type</dimension>
   <field type="int">atomspertype</field>
   <field type="string">element</field>
   <field>mass</field>
   <field>valence</field>
   <field type="string">pseudopotential</field>
   <set>
    <rc><c>  10</c><c>Ta</c><c>    180.94800000</c><c>      5.00000000</c><c>  PAW_PBE Ta 17Jan2003                  </c></rc>
    <rc><c>   9</c><c>Hf</c><c>    178.49000000</c><c>      4.00000000</c><c>  PAW_PBE Hf 20Jan2003                  </c></rc>
    <rc><c>   5</c><c>Nb</c><c>     92.91000000</c><c>     13.00000000</c><c>  PAW_PBE Nb_sv 25May2007               </c></rc>
    <rc><c>  12</c><c>Zr</c><c>     91.22400000</c><c>     12.00000000</c><c>  PAW_PBE Zr_sv 04Jan2005               </c></rc>
   </set>
  </array>
 </atominfo>
 <structure name="initialpos" >
  <crystal>
   <varray name="basis" >
    <v>       7.03989216       0.01301450       0.01095932 </v>
    <v>       0.01943944      10.26240028       0.01294965 </v>
    <v>       0.01552861       0.01276010      10.27202772 </v>
   </varray>
   <i name="volume">    742.10937613 </i>
   <varray name="rec_basis" >
    <v>       0.14204846      -0.00026880      -0.00021441 </v>
    <v>      -0.00017995       0.09744358      -0.00012077 </v>
    <v>      -0.00015133      -0.00012256       0.09735214 </v>
   </varray>
  </crystal>
  <varray name="positions" >
   <v>       0.73767800       0.83470300       0.15749300 </v>
   <v>       0.98354600       0.98520800       0.31630100 </v>
   <v>       0.26006100       0.84664800       0.16577800 </v>
   <v>       0.78441400       0.15411400       0.48774700 </v>
   <v>       0.49207300       0.67596700       0.00851200 </v>
   <v>       0.46463800       0.67749400       0.66100500 </v>
   <v>       0.24132100       0.51372300       0.51401800 </v>
   <v>       0.03182200       0.68146300       0.67434200 </v>
   <v>       0.72702000       0.50432800       0.15332100 </v>
   <v>       0.23753900       0.83248400       0.49766900 </v>
   <v>       0.49418300       0.00623900       0.65478000 </v>
   <v>       0.28248200       0.17302400       0.84993700 </v>
   <v>       0.99279800       0.99889000       0.99739600 </v>
   <v>       0.00525800       0.99909300       0.68453300 </v>
   <v>       0.00554600       0.66769000       0.32365800 </v>
   <v>       0.51214200       0.99671300       0.33548500 </v>
   <v>       0.50615700       0.32159800       0.65041100 </v>
   <v>       0.97331900       0.32698600       0.99757300 </v>
   <v>       0.73851200       0.51392300       0.83141400 </v>
   <v>       0.74697100       0.15878300       0.16800000 </v>
   <v>       0.72125700       0.16162000       0.84106300 </v>
   <v>       0.26787400       0.83170500       0.83729200 </v>
   <v>       0.53778900       0.32769000       0.00348700 </v>
   <v>       0.51105000       0.99467700       0.00617300 </v>
   <v>       0.51462800       0.33279100       0.34311000 </v>
   <v>       0.99294100       0.32469500       0.67457400 </v>
   <v>       0.27566400       0.48418100       0.15286900 </v>
   <v>       0.98553200       0.34829700       0.32733000 </v>
   <v>       0.49195400       0.66764900       0.33349300 </v>
   <v>       0.21193600       0.15549500       0.48392300 </v>
   <v>       0.00590100       0.67034900       0.00895000 </v>
   <v>       0.75839100       0.52013600       0.52227800 </v>
   <v>       0.76063500       0.82926500       0.50943400 </v>
   <v>       0.25968800       0.49627900       0.83306300 </v>
   <v>       0.25558100       0.16213900       0.16237800 </v>
   <v>       0.73168300       0.82396400       0.83120600 </v>
  </varray>
 </structure>
 <calculation>
  <scstep>
   <time name="dav">    1.01    1.02</time>
   <time name="total">    1.20    1.32</time>
   <energy>
    <i name="alphaZ">   1492.23084573 </i>
    <i name="ewald"> -19680.95829385 </i>
    <i name="hartreedc">  -6329.43246814 </i>
    <i name="XCdc">   -260.96912625 </i>
    <i name="pawpsdc">  21222.44937796 </i>
    <i name="pawaedc"> -19630.83424102 </i>
    <i name="eentropy">      0.00359475 </i>
    <i name="bandstr">   -143.88583880 </i>
    <i name="atom">  25175.14332663 </i>
    <i name="e_fr_energy">   1843.74717701 </i>
    <i name="e_wo_entrp">   1843.74358226 </i>
    <i name="e_0_energy">   1843.74597876 </i>
   </energy>
  </scstep>
  <scstep>
   <time name="dav">    1.16    1.16</time>
   <time name="total">    1.16    1.21</time>
   <energy>
    <i name="e_fr_energy">    -69.14984661 </i>
    <i name="e_wo_entrp">    -69.15548172 </i>
    <i name="e_0_energy">    -69.15172498 </i>
   </energy>
  </scstep>
  <scstep>
   <time name="dav">    1.63    1.65</time>
   <time name="total">    1.63    1.66</time>
   <energy>
    <i name="e_fr_energy">   -335.85443216 </i>
    <i name="e_wo_entrp">   -335.85706294 </i>
    <i name="e_0_energy">   -335.85530909 </i>
   </energy>
  </scstep>
  <scstep>
   <time name="dav">    1.78    1.83</time>
   <time name="total">    1.78    1.84</time>
   <energy>
    <i name="e_fr_energy">   -369.25762920 </i>
    <i name="e_wo_entrp">   -369.26632023 </i>
    <i name="e_0_energy">   -369.26052621 </i>
   </energy>
  </scstep>
  <scstep>
   <time name="dav">    1.38    1.40</time>
   <time name="total">    1.42    1.45</time>
   <energy>
    <i name="e_fr_energy">   -372.59346302 </i>
    <i name="e_wo_entrp">   -372.60372874 </i>
    <i name="e_0_energy">   -372.59688492 </i>
   </energy>
  </scstep>
  <scstep>
   <time name="diag">    0.09    0.09</time>
   <time name="diis">    0.80    0.80</time>
   <time name="orth">    0.01    0.01</time>
   <time name="total">    0.98    0.99</time>
   <energy>
    <i name="e_fr_energy">   -362.52385135 </i>
    <i name="e_wo_entrp">   -362.53331211 </i>
    <i name="e_0_energy">   -362.52700494 </i>
   </energy>
  </scstep>
  <scstep>
   <time name="diag">    0.11    0.11</time>
   <time name="diis">    0.83    0.83</time>
   <time name="orth">    0.01    0.01</time>
   <time name="total">    1.08    1.09</time>
   <energy>
    <i name="e_fr_energy">   -365.47191415 </i>
    <i name="e_wo_entrp">   -365.47775037 </i>
    <i name="e_0_energy">   -365.47385956 </i>
   </energy>
  </scstep>
  <scstep>
   <time name="diag">    0.15    0.16</time>
   <time name="diis">    0.78    0.79</time>
   <time name="orth">    0.01    0.01</time>
   <time name="total">    1.02    1.06</time>
   <energy>
    <i name="e_fr_energy">   -358.32695575 </i>
    <i name="e_wo_entrp">   -358.35476351 </i>
    <i name="e_0_energy">   -358.33622501 </i>
   </energy>
  </scstep>
  <scstep>
   <time name="diag">    0.08    0.08</time>
   <time name="diis">    0.80    0.80</time>
   <time name="orth">    0.01    0.01</time>
   <time name="total">    0.97    0.98</time>
   <energy>
    <i name="e_fr_energy">   -357.95086497 </i>
    <i name="e_wo_entrp">   -357.97304188 </i>
    <i name="e_0_energy">   -357.95825727 </i>
   </energy>
  </scstep>
  <scstep>
   <time name="diag">    0.08    0.08</time>
   <time name="diis">    0.80    0.80</time>
   <time name="orth">    0.01    0.01</time>
   <time name="total">    0.96    0.98</time>
   <energy>
    <i name="e_fr_energy">   -357.93477260 </i>
    <i name="e_wo_entrp">   -357.95946596 </i>
    <i name="e_0_energy">   -357.94300372 </i>
   </energy>
  </scstep>
  <scstep>
   <time name="diag">    0.08    0.08</time>
   <time name="diis">    0.85    0.90</time>
   <time name="orth">    0.01    0.01</time>
   <time name="total">    1.02    1.08</time>
   <energy>
    <i name="e_fr_energy">   -357.91134063 </i>
    <i name="e_wo_entrp">   -357.93562702 </i>
    <i name="e_0_energy">   -357.91943609 </i>
   </energy>
  </scstep>
  <scstep>
   <time name="diag">    0.08    0.14</time>
   <time name="diis">    0.79    0.81</time>
   <time name="orth">    0.01    0.01</time>
   <time name="total">    0.95    1.04</time>
   <energy>
    <i name="e_fr_energy">   -357.90701679 </i>
    <i name="e_wo_entrp">   -357.93232818 </i>
    <i name="e_0_energy">   -357.91545392 </i>
   </energy>
  </scstep>
  <scstep>
   <time name="diag">    0.08    0.08</time>
   <time name="diis">    0.81    0.81</time>
   <time name="orth">    0.03    0.03</time>
   <time name="total">    1.07    1.09</time>
   <energy>
    <i name="e_fr_energy">   -357.90442808 </i>
    <i name="e_wo_entrp">   -357.92986418 </i>
    <i name="e_0_energy">   -357.91290678 </i>
   </energy>
  </scstep>
  <scstep>
   <time name="diag">    0.14    0.14</time>
   <time name="diis">    0.87    0.88</time>
   <time name="orth">    0.01    0.01</time>
   <time name="total">    1.12    1.17</time>
   <energy>
    <i name="e_fr_energy">   -357.90453963 </i>
    <i name="e_wo_entrp">   -357.92987144 </i>
    <i name="e_0_energy">   -357.91298356 </i>
   </energy>
  </scstep>
  <scstep>
   <time name="diag">    0.09    0.09</time>
   <time name="diis">    0.83    0.83</time>
   <time name="orth">    0.02    0.02</time>
   <time name="total">    1.02    1.05</time>
   <energy>
    <i name="e_fr_energy">   -357.90470089 </i>
    <i name="e_wo_entrp">   -357.92996372 </i>
    <i name="e_0_energy">   -357.91312184 </i>
   </energy>
  </scstep>
  <scstep>
   <time name="diag">    0.09    0.09</time>
   <time name="diis">    0.68    0.73</time>
   <time name="orth">    0.01    0.01</time>
   <time name="total">    0.84    0.92</time>
   <energy>
    <i name="e_fr_energy">   -357.90473613 </i>
    <i name="e_wo_entrp">   -357.93003188 </i>
    <i name="e_0_energy">   -357.91316805 </i>
   </energy>
  </scstep>
  <scstep>
   <time name="diag">    0.08    0.09</time>
   <time name="diis">    0.70    0.71</time>
   <time name="orth">    0.02    0.02</time>
   <time name="total">    0.89    0.92</time>
   <energy>
    <i name="e_fr_energy">   -357.90473509 </i>
    <i name="e_wo_entrp">   -357.93006803 </i>
    <i name="e_0_energy">   -357.91317940 </i>
   </energy>
  </scstep>
  <scstep>
   <time name="diag">    0.09    0.09</time>
   <time name="diis">    0.65    0.65</time>
   <time name="orth">    0.01    0.01</time>
   <time name="total">    0.86    0.87</time>
   <energy>
    <i name="e_fr_energy">   -357.90474879 </i>
    <i name="e_wo_entrp">   -357.93009994 </i>
    <i name="e_0_energy">   -357.91319917 </i>
   </energy>
  </scstep>
  <scstep>
   <time name="diag">    0.08    0.08</time>
   <time name="diis">    0.51    0.51</time>
   <time name="orth">    0.01    0.01</time>
   <time name="total">    0.65    0.66</time>
   <energy>
    <i name="alphaZ">   1492.23084573 </i>
    <i name="ewald"> -19680.95829385 </i>
    <i name="hartreedc">  -6086.43581028 </i>
    <i name="XCdc">   -261.41823777 </i>
    <i name="pawpsdc">  34367.65291512 </i>
    <i name="pawaedc"> -32759.76531017 </i>
    <i name="eentropy">      0.02535690 </i>
    <i name="bandstr">  -2604.37954456 </i>
    <i name="atom">  25175.14332663 </i>
    <i name="e_fr_energy">   -357.90475226 </i>
    <i name="e_wo_entrp">   -357.93010916 </i>
    <i name="e_0_energy">   -357.91320456 </i>
   </energy>
  </scstep>
  <structure>
   <crystal>
    <varray name="basis" >
     <v>       7.03989216       0.01301450       0.01095932 </v>
     <v>       0.01943944      10.26240028       0.01294965 </v>
     <v>       0.01552861       0.01276010      10.27202772 </v>
    </varray>
    <i name="volume">    742.10937613 </i>
    <varray name="rec_basis" >
     <v>       0.14204846      -0.00026880      -0.00021441 </v>
     <v>      -0.00017995       0.09744358      -0.00012077 </v>
     <v>      -0.00015133      -0.00012256       0.09735214 </v>
    </varray>
   </crystal>
   <varray name="positions" >
    <v>       0.73767800       0.83470300       0.15749300 </v>
    <v>       0.98354600       0.98520800       0.31630100 </v>
    <v>       0.26006100       0.84664800       0.16577800 </v>
    <v>       0.78441400       0.15411400       0.48774700 </v>
    <v>       0.49207300       0.67596700       0.00851200 </v>
    <v>       0.46463800       0.67749400       0.66100500 </v>
    <v>       0.24132100       0.51372300       0.51401800 </v>
    <v>       0.03182200       0.68146300       0.67434200 </v>
    <v>       0.72702000       0.50432800       0.15332100 </v>
    <v>       0.23753900       0.83248400       0.49766900 </v>
    <v>       0.49418300       0.00623900       0.65478000 </v>
    <v>       0.28248200       0.17302400       0.84993700 </v>
    <v>       0.99279800       0.99889000       0.99739600 </v>
    <v>       0.00525800       0.99909300       0.68453300 </v>
    <v>       0.00554600       0.66769000       0.32365800 </v>
    <v>       0.51214200       0.99671300       0.33548500 </v>
    <v>       0.50615700       0.32159800       0.65041100 </v>
    <v>       0.97331900       0.32698600       0.99757300 </v>
    <v>       0.73851200       0.51392300       0.83141400 </v>
    <v>       0.74697100       0.15878300       0.16800000 </v>
    <v>       0.72125700       0.16162000       0.84106300 </v>
    <v>       0.26787400       0.83170500       0.83729200 </v>
    <v>       0.53778900       0.32769000       0.00348700 </v>
    <v>       0.51105000       0.99467700       0.00617300 </v>
    <v>       0.51462800       0.33279100       0.34311000 </v>
    <v>       0.99294100       0.32469500       0.67457400 </v>
    <v>       0.27566400       0.48418100       0.15286900 </v>
    <v>       0.98553200       0.34829700       0.32733000 </v>
    <v>       0.49195400       0.66764900       0.33349300 </v>
    <v>       0.21193600       0.15549500       0.48392300 </v>
    <v>       0.00590100       0.67034900       0.00895000 </v>
    <v>       0.75839100       0.52013600       0.52227800 </v>
    <v>       0.76063500       0.82926500       0.50943400 </v>
    <v>       0.25968800       0.49627900       0.83306300 </v>
    <v>       0.25558100       0.16213900       0.16237800 </v>
    <v>       0.73168300       0.82396400       0.83120600 </v>
   </varray>
  </structure>
  <varray name="forces" >
   <v>      -0.01475183       0.01371595       0.10053392 </v>
   <v>      -0.00307276       0.00730954       0.00677019 </v>
   <v>       0.00033431      -0.01049202      -0.02301736 </v>
   <v>      -0.00367091      -0.01650111       0.00021293 </v>
   <v>      -0.03189016      -0.03196155       0.03758469 </v>
   <v>      -0.03551409      -0.04311326      -0.05033889 </v>
   <v>      -0.00640024       0.00675424       0.01070277 </v>
   <v>       0.05791284      -0.05652725      -0.06217226 </v>
   <v>      -0.00406162       0.00075802      -0.02534996 </v>
   <v>      -0.00898179       0.00910535       0.01805286 </v>
   <v>      -0.03922867       0.03557425      -0.02543733 </v>
   <v>       0.00070550      -0.01565488      -0.00823688 </v>
   <v>       0.01037430       0.00900118       0.02093119 </v>
   <v>       0.02013066       0.02883354      -0.03868517 </v>
   <v>       0.00304686      -0.00967353      -0.00644488 </v>
   <v>       0.00346790      -0.00029209       0.01698641 </v>
   <v>       0.00069845      -0.00236375       0.00216318 </v>
   <v>      -0.00400464       0.00093298      -0.00363384 </v>
   <v>       0.00036226      -0.09682573       0.00178117 </v>
   <v>       0.00365858      -0.00784037      -0.00707484 </v>
   <v>      -0.00259291       0.07051125       0.01497262 </v>
   <v>      -0.10312968       0.01616885       0.00587362 </v>
   <v>       0.02011810      -0.00013325      -0.00794086 </v>
   <v>      -0.00375324       0.01436136       0.01789917 </v>
   <v>      -0.00326474       0.00290295       0.00964776 </v>
   <v>      -0.00277469       0.00290317      -0.00307386 </v>
   <v>       0.00059124       0.01448485      -0.00337980 </v>
   <v>       0.00604154       0.00053304       0.00175762 </v>
   <v>      -0.00267677      -0.00817904       0.00597304 </v>
   <v>       0.00852747      -0.00463745       0.00520882 </v>
   <v>       0.03751876      -0.01594658       0.05838495 </v>
   <v>      -0.00952646       0.01599544       0.01464470 </v>
   <v>       0.00962885       0.01891054      -0.09532518 </v>
   <v>       0.00065983       0.01014731       0.00320986 </v>
   <v>      -0.00420215       0.00415578      -0.00265198 </v>
   <v>       0.09971990       0.03708226       0.00947163 </v>
  </varray>
  <varray name="stress" >
   <v>       1.54522730      -0.03169832       0.14244997 </v>
   <v>      -0.03169830       1.51935534      -0.03261194 </v>
   <v>       0.14244999      -0.03261194       1.86420549 </v>
  </varray>
  <energy>
   <i name="e_fr_energy">   -357.90475226 </i>
   <i name="e_wo_entrp">   -357.91320456 </i>
   <i name="e_0_energy">      0.02535690 </i>
  </energy>
  <time name="totalsc">   22.34   23.13</time>
 </calculation>
 <calculation>
  <scstep>
   <time name="dav">    1.10    1.11</time>
   <time name="total">    1.26    1.31</time>
   <energy>
    <i name="alphaZ">   1490.86211884 </i>
    <i name="ewald"> -19675.44921711 </i>
    <i name="hartreedc">  -6084.09376586 </i>
    <i name="XCdc">   -261.68693820 </i>
    <i name="pawpsdc">  34367.90472022 </i>
    <i name="pawaedc"> -32760.00504385 </i>
    <i name="eentropy">      0.02534916 </i>
    <i name="bandstr">  -2610.60848793 </i>
    <i name="atom">  25175.14332663 </i>
    <i name="e_fr_energy">   -357.90793811 </i>
    <i name="e_wo_entrp">   -357.93328727 </i>
    <i name="e_0_energy">   -357.91638783 </i>
   </energy>
  </scstep>
  <scstep>
   <time name="diag">    0.09    0.09</time>
   <time name="diis">    0.75    0.75</time>
   <time name="orth">    0.01    0.01</time>
   <time name="total">    1.04    1.06</time>
   <energy>
    <i name="e_fr_energy">   -357.90705787 </i>
    <i name="e_wo_entrp">   -357.93240517 </i>
    <i name="e_0_energy">   -357.91550697 </i>
   </energy>
  </scstep>
  <scstep>
   <time name="diag">    0.08    0.08</time>
   <time name="diis">    0.82    0.82</time>
   <time name="orth">    0.01    0.01</time>
   <time name="total">    0.98    1.00</time>
   <energy>
    <i name="e_fr_energy">   -357.90684351 </i>
    <i name="e_wo_entrp">   -357.93225366 </i>
    <i name="e_0_energy">   -357.91531356 </i>
   </energy>
  </scstep>
  <scstep>
   <time name="diag">    0.08    0.08</time>
   <time name="diis">    0.81    0.81</time>
   <time name="orth">    0.01    0.01</time>
   <time name="total">    0.97    0.99</time>
   <energy>
    <i name="e_fr_energy">   -357.90654069 </i>
    <i name="e_wo_entrp">   -357.93182201 </i>
    <i name="e_0_energy">   -357.91496780 </i>
   </energy>
  </scstep>
  <scstep>
   <time name="diag">    0.09    0.09</time>
   <time name="diis">    0.74    0.74</time>
   <time name="orth">    0.01    0.01</time>
   <time name="total">    0.91    0.92</time>
   <energy>
    <i name="e_fr_energy">   -357.90651462 </i>
    <i name="e_wo_entrp">   -357.93184506 </i>
    <i name="e_0_energy">   -357.91495810 </i>
   </energy>
  </scstep>
  <scstep>
   <time name="diag">    0.08    0.08</time>
   <time name="diis">    0.55    0.55</time>
   <time name="orth">    0.01    0.01</time>
   <time name="total">    0.68    0.70</time>
   <energy>
    <i name="alphaZ">   1490.86211884 </i>
    <i name="ewald"> -19675.44921711 </i>
    <i name="hartreedc">  -6087.85645262 </i>
    <i name="XCdc">   -261.52075961 </i>
    <i name="pawpsdc">  34320.72260073 </i>
    <i name="pawaedc"> -32712.69762668 </i>
    <i name="eentropy">      0.02532275 </i>
    <i name="bandstr">  -2607.13582112 </i>
    <i name="atom">  25175.14332663 </i>
    <i name="e_fr_energy">   -357.90650820 </i>
    <i name="e_wo_entrp">   -357.93183095 </i>
    <i name="e_0_energy">   -357.91494912 </i>
   </energy>
  </scstep>
  <structure>
   <crystal>
    <varray name="basis" >
     <v>       7.04191803       0.01297656       0.01114978 </v>
     <v>       0.01938481      10.26530354       0.01289234 </v>
     <v>       0.01580548       0.01270124      10.27559385 </v>
    </varray>
    <i name="volume">    742.79069001 </i>
    <varray name="rec_basis" >
     <v>       0.14200760      -0.00026789      -0.00021810 </v>
     <v>      -0.00017932       0.09741602      -0.00012014 </v>
     <v>      -0.00015386      -0.00012193       0.09731836 </v>
    </varray>
   </crystal>
   <varray name="positions" >
    <v>       0.73764731       0.83472221       0.15763466 </v>
    <v>       0.98353963       0.98521830       0.31631053 </v>
    <v>       0.26006180       0.84663324       0.16574559 </v>
    <v>       0.78440652       0.15409074       0.48774734 </v>
    <v>       0.49200745       0.67592194       0.00856508 </v>
    <v>       0.46456531       0.67743338       0.66093423 </v>
    <v>       0.24130778       0.51373252       0.51403308 </v>
    <v>       0.03194147       0.68138324       0.67425438 </v>
    <v>       0.72701173       0.50432912       0.15328529 </v>
    <v>       0.23752044       0.83249683       0.49769444 </v>
    <v>       0.49410229       0.00628932       0.65474418 </v>
    <v>       0.28248354       0.17300193       0.84992542 </v>
    <v>       0.99281923       0.99890263       0.99742545 </v>
    <v>       0.00529939       0.99913368       0.68447840 </v>
    <v>       0.00555232       0.66767636       0.32364893 </v>
    <v>       0.51214908       0.99671255       0.33550893 </v>
    <v>       0.50615844       0.32159466       0.65041405 </v>
    <v>       0.97331077       0.32698733       0.99756789 </v>
    <v>       0.73851312       0.51378644       0.83141668 </v>
    <v>       0.74697857       0.15877195       0.16799004 </v>
    <v>       0.72125135       0.16171942       0.84108398 </v>
    <v>       0.26766190       0.83172806       0.83730047 </v>
    <v>       0.53783038       0.32768977       0.00347577 </v>
    <v>       0.51104217       0.99469723       0.00619820 </v>
    <v>       0.51462125       0.33279509       0.34312360 </v>
    <v>       0.99293529       0.32469911       0.67456967 </v>
    <v>       0.27566517       0.48420143       0.15286421 </v>
    <v>       0.98554441       0.34829773       0.32733246 </v>
    <v>       0.49194851       0.66763746       0.33350144 </v>
    <v>       0.21195353       0.15548843       0.48393033 </v>
    <v>       0.00597801       0.67032631       0.00903221 </v>
    <v>       0.75837131       0.52015856       0.52229863 </v>
    <v>       0.76065502       0.82929181       0.50929964 </v>
    <v>       0.25968931       0.49629330       0.83306750 </v>
    <v>       0.25557235       0.16214488       0.16237427 </v>
    <v>       0.73188783       0.82401602       0.83121906 </v>
   </varray>
  </structure>
  <varray name="forces" >
   <v>      -0.01504671       0.01229347       0.08902857 </v>
   <v>      -0.00310044       0.00593546       0.00315848 </v>
   <v>       0.00259237      -0.00908837      -0.02157886 </v>
   <v>      -0.00237601      -0.01491936      -0.00248526 </v>
   <v>      -0.02570228      -0.02092091       0.03179953 </v>
   <v>      -0.03300563      -0.03290552      -0.04276444 </v>
   <v>      -0.00467347       0.00607943       0.00879592 </v>
   <v>       0.05124112      -0.04967762      -0.05976936 </v>
   <v>      -0.00522566      -0.00045285      -0.02514761 </v>
   <v>      -0.00813643       0.00614498       0.01813070 </v>
   <v>      -0.03454682       0.03028633      -0.02112859 </v>
   <v>       0.00292712      -0.01510697      -0.00588860 </v>
   <v>       0.00685661       0.00829963       0.01947858 </v>
   <v>       0.01762713       0.02650819      -0.03209769 </v>
   <v>       0.00352284      -0.00864482      -0.00575847 </v>
   <v>       0.00221917       0.00119876       0.01412581 </v>
   <v>       0.00064080      -0.00171604       0.00125526 </v>
   <v>      -0.00405255      -0.00045190      -0.00221901 </v>
   <v>      -0.00032963      -0.08343382       0.00321060 </v>
   <v>       0.00323946      -0.00738722      -0.00577816 </v>
   <v>      -0.00551922       0.06484470       0.01485362 </v>
   <v>      -0.09294991       0.00915009       0.00339416 </v>
   <v>       0.01914268      -0.00134845      -0.00569347 </v>
   <v>      -0.00137463       0.01076392       0.01818057 </v>
   <v>      -0.00110133       0.00237096       0.00832115 </v>
   <v>      -0.00272624       0.00158474      -0.00359365 </v>
   <v>       0.00322031       0.01112469      -0.00354719 </v>
   <v>       0.00279590       0.00083376       0.00148192 </v>
   <v>      -0.00342511      -0.00830090       0.00626841 </v>
   <v>       0.00489593      -0.00310447       0.00184185 </v>
   <v>       0.03254674      -0.01269981       0.05590404 </v>
   <v>      -0.00822252       0.01615692       0.01517957 </v>
   <v>       0.00976287       0.01676848      -0.08489145 </v>
   <v>       0.00141882       0.01013906       0.00306646 </v>
   <v>      -0.00291002       0.00359255      -0.00255572 </v>
   <v>       0.08977476       0.02608289       0.00742235 </v>
  </varray>
  <varray name="stress" >
   <v>       0.56410640      -0.04023277       0.11528397 </v>
   <v>      -0.04023277       0.54565947      -0.03369519 </v>
   <v>       0.11528395      -0.03369519       0.88745656 </v>
  </varray>
  <energy>
   <i name="e_fr_energy">   -357.90650820 </i>
   <i name="e_wo_entrp">   -357.91494912 </i>
   <i name="e_0_energy">      0.02532275 </i>
  </energy>
  <time name="totalsc">    7.55    7.74</time>
 </calculation>
 <calculation>
  <scstep>
   <time name="dav">    1.13    1.13</time>
   <time name="total">    1.28    1.33</time>
   <energy>
    <i name="alphaZ">   1487.30506869 </i>
    <i name="ewald"> -19661.08390601 </i>
    <i name="hartreedc">  -6081.68650447 </i>
    <i name="XCdc">   -262.22211487 </i>
    <i name="pawpsdc">  34323.86239306 </i>
    <i name="pawaedc"> -32715.88231409 </i>
    <i name="eentropy">      0.02528129 </i>
    <i name="bandstr">  -2623.37908171 </i>
    <i name="atom">  25175.14332663 </i>
    <i name="e_fr_energy">   -357.91785149 </i>
    <i name="e_wo_entrp">   -357.94313278 </i>
    <i name="e_0_energy">   -357.92627859 </i>
   </energy>
  </scstep>
  <scstep>
   <time name="diag">    0.08    0.09</time>
   <time name="diis">    0.83    0.84</time>
   <time name="orth">    0.01    0.01</time>
   <time name="total">    1.02    1.03</time>
   <energy>
    <i name="e_fr_energy">   -357.91157634 </i>
    <i name="e_wo_entrp">   -357.93684818 </i>
    <i name="e_0_energy">   -357.92000029 </i>
   </energy>
  </scstep>
  <scstep>
   <time name="diag">    0.08    0.08</time>
   <time name="diis">    0.82    0.82</time>
   <time name="orth">    0.01    0.01</time>
   <time name="total">    1.08    1.10</time>
   <energy>
    <i name="e_fr_energy">   -357.91001568 </i>
    <i name="e_wo_entrp">   -357.93545513 </i>
    <i name="e_0_energy">   -357.91849550 </i>
   </energy>
  </scstep>
  <scstep>
   <time name="diag">    0.10    0.10</time>
   <time name="diis">    0.82    0.83</time>
   <time name="orth">    0.01    0.01</time>
   <time name="total">    1.03    1.04</time>
   <energy>
    <i name="e_fr_energy">   -357.90800691 </i>
    <i name="e_wo_entrp">   -357.93311692 </i>
    <i name="e_0_energy">   -357.91637691 </i>
   </energy>
  </scstep>
  <scstep>
   <time name="diag">    0.08    0.08</time>
   <time name="diis">    0.81    0.81</time>
   <time name="orth">    0.01    0.01</time>
   <time name="total">    0.98    1.00</time>
   <energy>
    <i name="e_fr_energy">   -357.90786884 </i>
    <i name="e_wo_entrp">   -357.93310559 </i>
    <i name="e_0_energy">   -357.91628109 </i>
   </energy>
  </scstep>
  <scstep>
   <time name="diag">    0.08    0.08</time>
   <time name="diis">    0.80    0.80</time>
   <time name="orth">    0.01    0.01</time>
   <time name="total">    0.96    0.98</time>
   <energy>
    <i name="e_fr_energy">   -357.90788702 </i>
    <i name="e_wo_entrp">   -357.93310772 </i>
    <i name="e_0_energy">   -357.91629392 </i>
   </energy>
  </scstep>
  <scstep>
   <time name="diag">    0.09    0.09</time>
   <time name="diis">    0.70    0.71</time>
   <time name="orth">    0.01    0.01</time>
   <time name="total">    0.87    0.88</time>
   <energy>
    <i name="e_fr_energy">   -357.90788630 </i>
    <i name="e_wo_entrp">   -357.93307998 </i>
    <i name="e_0_energy">   -357.91628419 </i>
   </energy>
  </scstep>
  <scstep>
   <time name="diag">    0.09    0.09</time>
   <time name="diis">    0.60    0.61</time>
   <time name="orth">    0.01    0.01</time>
   <time name="total">    0.77    0.78</time>
   <energy>
    <i name="e_fr_energy">   -357.90789462 </i>
    <i name="e_wo_entrp">   -357.93310363 </i>
    <i name="e_0_energy">   -357.91629763 </i>
   </energy>
  </scstep>
  <scstep>
   <time name="diag">    0.08    0.08</time>
   <time name="diis">    0.55    0.55</time>
   <time name="orth">    0.02    0.02</time>
   <time name="total">    0.69    0.70</time>
   <energy>
    <i name="alphaZ">   1487.30506869 </i>
    <i name="ewald"> -19661.08390601 </i>
    <i name="hartreedc">  -6091.06022224 </i>
    <i name="XCdc">   -261.80648178 </i>
    <i name="pawpsdc">  34211.83603547 </i>
    <i name="pawaedc"> -32603.98460035 </i>
    <i name="eentropy">      0.02521463 </i>
    <i name="bandstr">  -2614.28233182 </i>
    <i name="atom">  25175.14332663 </i>
    <i name="e_fr_energy">   -357.90789678 </i>
    <i name="e_wo_entrp">   -357.93311140 </i>
    <i name="e_0_energy">   -357.91630165 </i>
   </energy>
  </scstep>
  <structure>
   <crystal>
    <varray name="basis" >
     <v>       7.04719452       0.01287775       0.01164586 </v>
     <v>       0.01924250      10.27286526       0.01274308 </v>
     <v>       0.01652659       0.01254793      10.28488206 </v>
    </varray>
    <i name="volume">    744.56715390 </i>
    <varray name="rec_basis" >
     <v>       0.14190130      -0.00026552      -0.00022769 </v>
     <v>      -0.00017769       0.09734430      -0.00011848 </v>
     <v>      -0.00016046      -0.00012031       0.09723049 </v>
    </varray>
   </crystal>
   <varray name="positions" >
    <v>       0.73756738       0.83477222       0.15800348 </v>
    <v>       0.98352306       0.98524514       0.31633535 </v>
    <v>       0.26006388       0.84659482       0.16566120 </v>
    <v>       0.78438703       0.15403017       0.48774822 </v>
    <v>       0.49183675       0.67580462       0.00870329 </v>
    <v>       0.46437605       0.67727553       0.66074997 </v>
    <v>       0.24127337       0.51375732       0.51407235 </v>
    <v>       0.03225256       0.68117555       0.67402622 </v>
    <v>       0.72699018       0.50433205       0.15319232 </v>
    <v>       0.23747212       0.83253025       0.49776068 </v>
    <v>       0.49389215       0.00642033       0.65465093 </v>
    <v>       0.28248754       0.17294448       0.84989527 </v>
    <v>       0.99287450       0.99893552       0.99750214 </v>
    <v>       0.00540718       0.99923960       0.68433624 </v>
    <v>       0.00556878       0.66764085       0.32362531 </v>
    <v>       0.51216750       0.99671138       0.33557122 </v>
    <v>       0.50616218       0.32158597       0.65042199 </v>
    <v>       0.97328936       0.32699080       0.99755458 </v>
    <v>       0.73851602       0.51343088       0.83142366 </v>
    <v>       0.74699830       0.15874316       0.16796410 </v>
    <v>       0.72123663       0.16197830       0.84113859 </v>
    <v>       0.26710964       0.83178811       0.83732254 </v>
    <v>       0.53793814       0.32768918       0.00344652 </v>
    <v>       0.51102179       0.99474991       0.00626382 </v>
    <v>       0.51460366       0.33280572       0.34315899 </v>
    <v>       0.99292044       0.32470980       0.67455840 </v>
    <v>       0.27566822       0.48425463       0.15285174 </v>
    <v>       0.98557673       0.34829964       0.32733887 </v>
    <v>       0.49193422       0.66760742       0.33352340 </v>
    <v>       0.21199918       0.15547132       0.48394941 </v>
    <v>       0.00617853       0.67026724       0.00924625 </v>
    <v>       0.75832003       0.52021729       0.52235233 </v>
    <v>       0.76070715       0.82936162       0.50894980 </v>
    <v>       0.25969271       0.49633055       0.83307923 </v>
    <v>       0.25554984       0.16216018       0.16236454 </v>
    <v>       0.73242118       0.82415147       0.83125306 </v>
   </varray>
  </structure>
  <varray name="forces" >
   <v>      -0.01789922       0.01203916       0.06261097 </v>
   <v>      -0.00153250       0.00612239      -0.00038449 </v>
   <v>       0.01017772      -0.00369234      -0.01752212 </v>
   <v>       0.00189097      -0.01153546      -0.00889596 </v>
   <v>      -0.01171854       0.00707160       0.02012560 </v>
   <v>      -0.02989679      -0.00647027      -0.02634612 </v>
   <v>      -0.00066321       0.00246905       0.00469372 </v>
   <v>       0.03775732      -0.03194345      -0.05523397 </v>
   <v>      -0.01094520      -0.00372247      -0.02503151 </v>
   <v>      -0.00474616       0.00159233       0.01717274 </v>
   <v>      -0.02276683       0.01669962      -0.01466751 </v>
   <v>       0.01027508      -0.01501347      -0.00024444 </v>
   <v>      -0.00421208       0.00564575       0.01833339 </v>
   <v>       0.01006857       0.02319707      -0.02218330 </v>
   <v>       0.00456194      -0.00423117      -0.00409446 </v>
   <v>      -0.00182434       0.00462039       0.00798598 </v>
   <v>       0.00113511      -0.00213240      -0.00311304 </v>
   <v>      -0.00532345      -0.00329899       0.00077551 </v>
   <v>      -0.00307405      -0.05237064       0.00721381 </v>
   <v>       0.00064513      -0.00894783      -0.00416616 </v>
   <v>      -0.01311450       0.04680844       0.01460124 </v>
   <v>      -0.05948185      -0.00544048      -0.00283734 </v>
   <v>       0.01773943      -0.00156039       0.00072810 </v>
   <v>       0.00546941      -0.00239068       0.01932456 </v>
   <v>       0.00434965       0.00057510       0.00452604 </v>
   <v>      -0.00324046      -0.00224607      -0.00709062 </v>
   <v>       0.01199978       0.00260794      -0.00491369 </v>
   <v>      -0.00544777      -0.00050304       0.00283074 </v>
   <v>      -0.00683865      -0.00684245       0.00609161 </v>
   <v>      -0.00390161      -0.00149491      -0.00592510 </v>
   <v>       0.01776556      -0.00368589       0.05151810 </v>
   <v>      -0.00520995       0.01475106       0.01735955 </v>
   <v>       0.00925866       0.01500710      -0.05764340 </v>
   <v>       0.00555716       0.00991064       0.00329526 </v>
   <v>       0.00166830      -0.00078993      -0.00230656 </v>
   <v>       0.06151736      -0.00080530       0.00341286 </v>
  </varray>
  <varray name="stress" >
   <v>      -2.47057035      -0.04086942       0.02027452 </v>
   <v>      -0.04086941      -2.54686916      -0.00430564 </v>
   <v>       0.02027452      -0.00430564      -2.26886729 </v>
  </varray>
  <energy>
   <i name="e_fr_energy">   -357.90789678 </i>
   <i name="e_wo_entrp">   -357.91630165 </i>
   <i name="e_0_energy">      0.02521463 </i>
  </energy>
  <time name="totalsc">   10.35   10.56</time>
 </calculation>
 <calculation>
  <scstep>
   <time name="dav">    1.02    1.03</time>
   <time name="total">    1.18    1.23</time>
   <energy>
    <i name="alphaZ">   1487.67789455 </i>
    <i name="ewald"> -19663.27086768 </i>
    <i name="hartreedc">  -6090.94882894 </i>
    <i name="XCdc">   -261.73930995 </i>
    <i name="pawpsdc">  34211.49978618 </i>
    <i name="pawaedc"> -32603.76813016 </i>
    <i name="eentropy">      0.02511745 </i>
    <i name="bandstr">  -2612.52803502 </i>
    <i name="atom">  25175.14332663 </i>
    <i name="e_fr_energy">   -357.90904693 </i>
    <i name="e_wo_entrp">   -357.93416439 </i>
    <i name="e_0_energy">   -357.91741942 </i>
   </energy>
  </scstep>
  <scstep>
   <time name="diag">    0.18    0.18</time>
   <time name="diis">    0.80    0.81</time>
   <time name="orth">    0.01    0.01</time>
   <time name="total">    1.08    1.10</time>
   <energy>
    <i name="e_fr_energy">   -357.90929781 </i>
    <i name="e_wo_entrp">   -357.93438798 </i>
    <i name="e_0_energy">   -357.91766120 </i>
   </energy>
  </scstep>
  <scstep>
   <time name="diag">    0.10    0.12</time>
   <time name="diis">    0.79    0.79</time>
   <time name="orth">    0.01    0.01</time>
   <time name="total">    1.00    1.03</time>
   <energy>
    <i name="e_fr_energy">   -357.90921065 </i>
    <i name="e_wo_entrp">   -357.93430727 </i>
    <i name="e_0_energy">   -357.91757619 </i>
   </energy>
  </scstep>
  <scstep>
   <time name="diag">    0.08    0.08</time>
   <time name="diis">    0.71    0.71</time>
   <time name="orth">    0.01    0.01</time>
   <time name="total">    0.87    0.89</time>
   <energy>
    <i name="e_fr_energy">   -357.90917661 </i>
    <i name="e_wo_entrp">   -357.93427478 </i>
    <i name="e_0_energy">   -357.91754267 </i>
   </energy>
  </scstep>
  <scstep>
   <time name="diag">    0.08    0.08</time>
   <time name="diis">    0.56    0.57</time>
   <time name="orth">    0.01    0.01</time>
   <time name="total">    0.69    0.71</time>
   <energy>
    <i name="alphaZ">   1487.67789455 </i>
    <i name="ewald"> -19663.27086768 </i>
    <i name="hartreedc">  -6089.71462588 </i>
    <i name="XCdc">   -261.79192755 </i>
    <i name="pawpsdc">  34223.14973848 </i>
    <i name="pawaedc"> -32615.55792724 </i>
    <i name="eentropy">      0.02509767 </i>
    <i name="bandstr">  -2613.56988014 </i>
    <i name="atom">  25175.14332663 </i>
    <i name="e_fr_energy">   -357.90917114 </i>
    <i name="e_wo_entrp">   -357.93426882 </i>
    <i name="e_0_energy">   -357.91753703 </i>
   </energy>
  </scstep>
  <structure>
   <crystal>
    <varray name="basis" >
     <v>       7.04645688       0.01280079       0.01182261 </v>
     <v>       0.01913096      10.27163796       0.01268459 </v>
     <v>       0.01678324       0.01248756      10.28460997 </v>
    </varray>
    <i name="volume">    744.38055847 </i>
    <varray name="rec_basis" >
     <v>       0.14191616      -0.00026403      -0.00023127 </v>
     <v>      -0.00017666       0.09735593      -0.00011792 </v>
     <v>      -0.00016292      -0.00011977       0.09723307 </v>
    </varray>
   </crystal>
   <varray name="positions" >
    <v>       0.73751381       0.83480103       0.15818853 </v>
    <v>       0.98351533       0.98526027       0.31634294 </v>
    <v>       0.26008030       0.84657853       0.16561547 </v>
    <v>       0.78438372       0.15399845       0.48773911 </v>
    <v>       0.49176358       0.67577427       0.00876912 </v>
    <v>       0.46426903       0.67721788       0.66066280 </v>
    <v>       0.24126123       0.51376792       0.51408997 </v>
    <v>       0.03241131       0.68107481       0.67389430 </v>
    <v>       0.72696644       0.50432911       0.15313593 </v>
    <v>       0.23744918       0.83254269       0.49780018 </v>
    <v>       0.49378929       0.00648029       0.65460540 </v>
    <v>       0.28250472       0.17291006       0.84988530 </v>
    <v>       0.99288576       0.99895208       0.99754622 </v>
    <v>       0.00545745       0.99929829       0.68426692 </v>
    <v>       0.00558115       0.66762492       0.32361337 </v>
    <v>       0.51217060       0.99671588       0.33559974 </v>
    <v>       0.50616515       0.32158091       0.65042127 </v>
    <v>       0.97327425       0.32698844       0.99755112 </v>
    <v>       0.73851235       0.51326085       0.83143360 </v>
    <v>       0.74700569       0.15872442       0.16795135 </v>
    <v>       0.72121150       0.16211127       0.84117159 </v>
    <v>       0.26683990       0.83180183       0.83732678 </v>
    <v>       0.53800024       0.32768731       0.00343783 </v>
    <v>       0.51102361       0.99476433       0.00630538 </v>
    <v>       0.51460468       0.33280975       0.34317518 </v>
    <v>       0.99291068       0.32471089       0.67454728 </v>
    <v>       0.27568770       0.48427453       0.15284251 </v>
    <v>       0.98557875       0.34829973       0.32734394 </v>
    <v>       0.49191907       0.66759050       0.33353694 </v>
    <v>       0.21200791       0.15546424       0.48394931 </v>
    <v>       0.00627045       0.67024419       0.00936964 </v>
    <v>       0.75829538       0.52025182       0.52238797 </v>
    <v>       0.76073835       0.82940005       0.50877610 </v>
    <v>       0.25970234       0.49635302       0.83308647 </v>
    <v>       0.25554516       0.16216427       0.16235897 </v>
    <v>       0.73268798       0.82419417       0.83126751 </v>
   </varray>
  </structure>
  <varray name="forces" >
   <v>      -0.01671698       0.00904229       0.05241084 </v>
   <v>       0.00105781       0.00763360      -0.00148704 </v>
   <v>       0.01192262      -0.00284567      -0.01434095 </v>
   <v>       0.00010611      -0.00758991      -0.00835044 </v>
   <v>      -0.00638897       0.01459661       0.01050538 </v>
   <v>      -0.01771563       0.00315825      -0.01610941 </v>
   <v>       0.00071223      -0.00572631      -0.00286444 </v>
   <v>       0.02229607      -0.02659221      -0.04918713 </v>
   <v>      -0.00746006      -0.00466930      -0.01863171 </v>
   <v>      -0.00230462       0.00312079       0.01423195 </v>
   <v>      -0.01687281       0.00978211      -0.01004939 </v>
   <v>       0.00879104      -0.01513090       0.00052321 </v>
   <v>      -0.00700823       0.00490486       0.01442070 </v>
   <v>       0.00622332       0.02159989      -0.01604708 </v>
   <v>       0.00353773      -0.00543345      -0.00288142 </v>
   <v>      -0.00546506       0.00764184       0.00656106 </v>
   <v>       0.00060778      -0.00056713      -0.00494341 </v>
   <v>       0.00048597      -0.00384308       0.00225269 </v>
   <v>      -0.00272189      -0.03854422       0.00706781 </v>
   <v>       0.00012503      -0.00680049      -0.00311822 </v>
   <v>      -0.01131932       0.03812705       0.01086258 </v>
   <v>      -0.05011484      -0.00716677      -0.00339713 </v>
   <v>       0.01013121      -0.00204852       0.00288341 </v>
   <v>       0.00763128      -0.00478700       0.01648734 </v>
   <v>       0.00421824       0.00051187       0.00263090 </v>
   <v>      -0.00230428      -0.00199927      -0.00801648 </v>
   <v>       0.01110409      -0.00210837      -0.00210557 </v>
   <v>      -0.00603900      -0.00168164       0.00261930 </v>
   <v>      -0.00590860      -0.00865890       0.00774969 </v>
   <v>      -0.00420594       0.00314103      -0.00911685 </v>
   <v>       0.01186190      -0.00158679       0.04608159 </v>
   <v>      -0.00434582       0.01188246       0.01451929 </v>
   <v>       0.00685405       0.01362370      -0.04580885 </v>
   <v>       0.00538526       0.00819449       0.00452423 </v>
   <v>       0.00276383       0.00068111      -0.00014322 </v>
   <v>       0.05107649      -0.00986204       0.00026676 </v>
  </varray>
  <varray name="stress" >
   <v>      -2.33397758      -0.04881913      -0.00008061 </v>
   <v>      -0.04881911      -2.43867821       0.01286653 </v>
   <v>      -0.00008064       0.01286652      -2.17563645 </v>
  </varray>
  <energy>
   <i name="e_fr_energy">   -357.90917114 </i>
   <i name="e_wo_entrp">   -357.91753703 </i>
   <i name="e_0_energy">      0.02509767 </i>
  </energy>
  <time name="totalsc">    6.43    6.62</time>
 </calculation>
 <calculation>
  <scstep>
   <time name="dav">    0.97    0.98</time>
   <time name="total">    1.12    1.18</time>
   <energy>
    <i name="alphaZ">   1488.79717862 </i>
    <i name="ewald"> -19669.76937860 </i>
    <i name="hartreedc">  -6089.66694515 </i>
    <i name="XCdc">   -261.58079038 </i>
    <i name="pawpsdc">  34222.47808845 </i>
    <i name="pawaedc"> -32614.90948097 </i>
    <i name="eentropy">      0.02480247 </i>
    <i name="bandstr">  -2608.42693954 </i>
    <i name="atom">  25175.14332663 </i>
    <i name="e_fr_energy">   -357.91013848 </i>
    <i name="e_wo_entrp">   -357.93494095 </i>
    <i name="e_0_energy">   -357.91840597 </i>
   </energy>
  </scstep>
  <scstep>
   <time name="diag">    0.09    0.09</time>
   <time name="diis">    0.81    0.82</time>
   <time name="orth">    0.01    0.01</time>
   <time name="total">    0.98    1.00</time>
   <energy>
    <i name="e_fr_energy">   -357.91244458 </i>
    <i name="e_wo_entrp">   -357.93716910 </i>
    <i name="e_0_energy">   -357.92068609 </i>
   </energy>
  </scstep>
  <scstep>
   <time name="diag">    0.09    0.09</time>
   <time name="diis">    0.79    0.79</time>
   <time name="orth">    0.01    0.01</time>
   <time name="total">    0.99    1.01</time>
   <energy>
    <i name="e_fr_energy">   -357.91156656 </i>
    <i name="e_wo_entrp">   -357.93632265 </i>
    <i name="e_0_energy">   -357.91981859 </i>
   </energy>
  </scstep>
  <scstep>
   <time name="diag">    0.09    0.09</time>
   <time name="diis">    0.85    0.85</time>
   <time name="orth">    0.01    0.01</time>
   <time name="total">    1.02    1.03</time>
   <energy>
    <i name="e_fr_energy">   -357.91129802 </i>
    <i name="e_wo_entrp">   -357.93605091 </i>
    <i name="e_0_energy">   -357.91954898 </i>
   </energy>
  </scstep>
  <scstep>
   <time name="diag">    0.09    0.09</time>
   <time name="diis">    0.88    0.88</time>
   <time name="orth">    0.01    0.01</time>
   <time name="total">    1.05    1.06</time>
   <energy>
    <i name="e_fr_energy">   -357.91126987 </i>
    <i name="e_wo_entrp">   -357.93602376 </i>
    <i name="e_0_energy">   -357.91952116 </i>
   </energy>
  </scstep>
  <scstep>
   <time name="diag">    0.08    0.08</time>
   <time name="diis">    0.75    0.76</time>
   <time name="orth">    0.01    0.01</time>
   <time name="total">    0.92    0.94</time>
   <energy>
    <i name="e_fr_energy">   -357.91127357 </i>
    <i name="e_wo_entrp">   -357.93600683 </i>
    <i name="e_0_energy">   -357.91951799 </i>
   </energy>
  </scstep>
  <scstep>
   <time name="diag">    0.09    0.09</time>
   <time name="diis">    0.61    0.61</time>
   <time name="orth">    0.01    0.01</time>
   <time name="total">    0.75    0.77</time>
   <energy>
    <i name="alphaZ">   1488.79717862 </i>
    <i name="ewald"> -19669.76937860 </i>
    <i name="hartreedc">  -6086.38928860 </i>
    <i name="XCdc">   -261.72053865 </i>
    <i name="pawpsdc">  34255.94288458 </i>
    <i name="pawaedc"> -32648.45101391 </i>
    <i name="eentropy">      0.02475469 </i>
    <i name="bandstr">  -2611.48920391 </i>
    <i name="atom">  25175.14332663 </i>
    <i name="e_fr_energy">   -357.91127916 </i>
    <i name="e_wo_entrp">   -357.93603385 </i>
    <i name="e_0_energy">   -357.91953072 </i>
   </energy>
  </scstep>
  <structure>
   <crystal>
    <varray name="basis" >
     <v>       7.04424395       0.01256993       0.01235285 </v>
     <v>       0.01879636      10.26795604       0.01250914 </v>
     <v>       0.01755318       0.01230644      10.28379368 </v>
    </varray>
    <i name="volume">    743.82092999 </i>
    <varray name="rec_basis" >
     <v>       0.14196076      -0.00025958      -0.00024200 </v>
     <v>      -0.00017358       0.09739083      -0.00011625 </v>
     <v>      -0.00017031      -0.00011815       0.09724081 </v>
    </varray>
   </crystal>
   <varray name="positions" >
    <v>       0.73735307       0.83488748       0.15874371 </v>
    <v>       0.98349215       0.98530566       0.31636571 </v>
    <v>       0.26012957       0.84652964       0.16547828 </v>
    <v>       0.78437378       0.15390327       0.48771180 </v>
    <v>       0.49154402       0.67568321       0.00896661 </v>
    <v>       0.46394794       0.67704492       0.66040130 </v>
    <v>       0.24122481       0.51379973       0.51414281 </v>
    <v>       0.03288760       0.68077253       0.67349851 </v>
    <v>       0.72689521       0.50432028       0.15296675 </v>
    <v>       0.23738033       0.83258003       0.49791868 </v>
    <v>       0.49348069       0.00666020       0.65446880 </v>
    <v>       0.28255625       0.17280678       0.84985537 </v>
    <v>       0.99291955       0.99900177       0.99767848 </v>
    <v>       0.00560828       0.99947439       0.68405899 </v>
    <v>       0.00561824       0.66757713       0.32357755 </v>
    <v>       0.51217988       0.99672939       0.33568528 </v>
    <v>       0.50617407       0.32156574       0.65041908 </v>
    <v>       0.97322894       0.32698136       0.99754074 </v>
    <v>       0.73850132       0.51275069       0.83146342 </v>
    <v>       0.74702786       0.15866820       0.16791309 </v>
    <v>       0.72113609       0.16251025       0.84127058 </v>
    <v>       0.26603060       0.83184299       0.83733951 </v>
    <v>       0.53818655       0.32768168       0.00341176 </v>
    <v>       0.51102906       0.99480761       0.00643007 </v>
    <v>       0.51460775       0.33282182       0.34322373 </v>
    <v>       0.99288139       0.32471415       0.67451393 </v>
    <v>       0.27574618       0.48433422       0.15281480 </v>
    <v>       0.98558480       0.34830000       0.32735914 </v>
    <v>       0.49187361       0.66753974       0.33357755 </v>
    <v>       0.21203407       0.15544299       0.48394901 </v>
    <v>       0.00654621       0.67017506       0.00973981 </v>
    <v>       0.75822141       0.52035541       0.52249490 </v>
    <v>       0.76083196       0.82951536       0.50825497 </v>
    <v>       0.25973123       0.49642045       0.83310818 </v>
    <v>       0.25553112       0.16217657       0.16234225 </v>
    <v>       0.73348844       0.82432229       0.83131085 </v>
   </varray>
  </structure>
  <varray name="forces" >
   <v>      -0.01168268       0.00031451       0.02206752 </v>
   <v>       0.01081490       0.00962267      -0.00468436 </v>
   <v>       0.01515713      -0.00157400      -0.00511532 </v>
   <v>      -0.00589763       0.00321931      -0.00513408 </v>
   <v>       0.00855059       0.03851637      -0.01687052 </v>
   <v>       0.01389934       0.03164679       0.01364887 </v>
   <v>       0.00453016      -0.03110891      -0.02434604 </v>
   <v>      -0.02041943      -0.01114694      -0.02959534 </v>
   <v>       0.00214834      -0.00552060      -0.00265256 </v>
   <v>       0.00547239       0.00866121       0.00409920 </v>
   <v>      -0.00006732      -0.00907395       0.00372684 </v>
   <v>       0.00301662      -0.01298190       0.00267770 </v>
   <v>      -0.01486784       0.00142234       0.00381687 </v>
   <v>      -0.00491729       0.01858503       0.00231865 </v>
   <v>       0.00222656      -0.00601316      -0.00124647 </v>
   <v>      -0.01822608       0.01416410       0.00170091 </v>
   <v>      -0.00273776       0.00303690      -0.00789118 </v>
   <v>       0.01855999      -0.00476342       0.00241539 </v>
   <v>      -0.00097438       0.00185471       0.00836042 </v>
   <v>      -0.00163525      -0.00224790       0.00140314 </v>
   <v>      -0.00473990       0.01006246      -0.00309065 </v>
   <v>      -0.01434315      -0.01137850      -0.00544437 </v>
   <v>      -0.01409759      -0.00024888       0.00670919 </v>
   <v>       0.01241243      -0.01654037       0.00865646 </v>
   <v>       0.00445887       0.00026608      -0.00017057 </v>
   <v>       0.00135332      -0.00188962      -0.00813466 </v>
   <v>       0.00840736      -0.01347698       0.00305890 </v>
   <v>      -0.00924297      -0.00215224       0.00224276 </v>
   <v>      -0.00614757      -0.01010227       0.01011769 </v>
   <v>      -0.00504338       0.01472546      -0.01716568 </v>
   <v>      -0.00567368       0.00453454       0.03340818 </v>
   <v>      -0.00118425       0.00285100       0.00859292 </v>
   <v>       0.00058611       0.01240392      -0.01310360 </v>
   <v>       0.00382612       0.00043152       0.00843473 </v>
   <v>       0.00515460       0.00158175       0.00418401 </v>
   <v>       0.02132333      -0.03768098      -0.00699496 </v>
  </varray>
  <varray name="stress" >
   <v>      -1.19617528      -0.05099765      -0.10100279 </v>
   <v>      -0.05099765      -1.35537916       0.08865203 </v>
   <v>      -0.10100276       0.08865202      -1.26664140 </v>
  </varray>
  <energy>
   <i name="e_fr_energy">   -357.91127916 </i>
   <i name="e_wo_entrp">   -357.91953072 </i>
   <i name="e_0_energy">      0.02475469 </i>
  </energy>
  <time name="totalsc">    8.46    8.69</time>
 </calculation>
 <calculation>
  <scstep>
   <time name="dav">    0.99    0.99</time>
   <time name="total">    1.13    1.19</time>
   <energy>
    <i name="alphaZ">   1489.17365901 </i>
    <i name="ewald"> -19671.93268488 </i>
    <i name="hartreedc">  -6086.46713866 </i>
    <i name="XCdc">   -261.64613320 </i>
    <i name="pawpsdc">  34255.15842905 </i>
    <i name="pawaedc"> -32647.63494536 </i>
    <i name="eentropy">      0.02464549 </i>
    <i name="bandstr">  -2609.73042626 </i>
    <i name="atom">  25175.14332663 </i>
    <i name="e_fr_energy">   -357.91126818 </i>
    <i name="e_wo_entrp">   -357.93591367 </i>
    <i name="e_0_energy">   -357.91948334 </i>
   </energy>
  </scstep>
  <scstep>
   <time name="diag">    0.08    0.08</time>
   <time name="diis">    0.78    0.78</time>
   <time name="orth">    0.01    0.01</time>
   <time name="total">    0.94    0.96</time>
   <energy>
    <i name="e_fr_energy">   -357.91154468 </i>
    <i name="e_wo_entrp">   -357.93616006 </i>
    <i name="e_0_energy">   -357.91974981 </i>
   </energy>
  </scstep>
  <scstep>
   <time name="diag">    0.11    0.11</time>
   <time name="diis">    0.79    0.82</time>
   <time name="orth">    0.01    0.01</time>
   <time name="total">    1.02    1.06</time>
   <energy>
    <i name="e_fr_energy">   -357.91144148 </i>
    <i name="e_wo_entrp">   -357.93606791 </i>
    <i name="e_0_energy">   -357.91965029 </i>
   </energy>
  </scstep>
  <scstep>
   <time name="diag">    0.08    0.08</time>
   <time name="diis">    0.72    0.73</time>
   <time name="orth">    0.01    0.01</time>
   <time name="total">    0.91    0.93</time>
   <energy>
    <i name="e_fr_energy">   -357.91141674 </i>
    <i name="e_wo_entrp">   -357.93604356 </i>
    <i name="e_0_energy">   -357.91962568 </i>
   </energy>
  </scstep>
  <scstep>
   <time name="diag">    0.12    0.12</time>
   <time name="diis">    0.56    0.57</time>
   <time name="orth">    0.01    0.01</time>
   <time name="total">    0.73    0.76</time>
   <energy>
    <i name="alphaZ">   1489.17365901 </i>
    <i name="ewald"> -19671.93268488 </i>
    <i name="hartreedc">  -6085.39206939 </i>
    <i name="XCdc">   -261.69186931 </i>
    <i name="pawpsdc">  34268.08446593 </i>
    <i name="pawaedc"> -32660.53305146 </i>
    <i name="eentropy">      0.02462601 </i>
    <i name="bandstr">  -2610.78782059 </i>
    <i name="atom">  25175.14332663 </i>
    <i name="e_fr_energy">   -357.91141804 </i>
    <i name="e_wo_entrp">   -357.93604405 </i>
    <i name="e_0_energy">   -357.91962671 </i>
   </energy>
  </scstep>
  <structure>
   <crystal>
    <varray name="basis" >
     <v>       7.04350015       0.01249233       0.01253108 </v>
     <v>       0.01868389      10.26671849       0.01245017 </v>
     <v>       0.01781196       0.01224556      10.28351932 </v>
    </varray>
    <i name="volume">    743.63288342 </i>
    <varray name="rec_basis" >
     <v>       0.14197576      -0.00025808      -0.00024561 </v>
     <v>      -0.00017255       0.09740256      -0.00011569 </v>
     <v>      -0.00017280      -0.00011761       0.09724341 </v>
    </varray>
   </crystal>
   <varray name="positions" >
    <v>       0.73729901       0.83491655       0.15893033 </v>
    <v>       0.98348436       0.98532092       0.31637337 </v>
    <v>       0.26014614       0.84651321       0.16543217 </v>
    <v>       0.78437044       0.15387127       0.48770262 </v>
    <v>       0.49147019       0.67565259       0.00903299 </v>
    <v>       0.46383999       0.67698676       0.66031340 </v>
    <v>       0.24121256       0.51381043       0.51416058 </v>
    <v>       0.03304775       0.68067090       0.67336545 </v>
    <v>       0.72687126       0.50431732       0.15290989 </v>
    <v>       0.23735718       0.83259259       0.49795851 </v>
    <v>       0.49337694       0.00672069       0.65442289 </v>
    <v>       0.28257357       0.17277205       0.84984531 </v>
    <v>       0.99293090       0.99901847       0.99772294 </v>
    <v>       0.00565900       0.99953360       0.68398909 </v>
    <v>       0.00563071       0.66756106       0.32356551 </v>
    <v>       0.51218299       0.99673393       0.33571404 </v>
    <v>       0.50617706       0.32156064       0.65041835 </v>
    <v>       0.97321370       0.32697897       0.99753726 </v>
    <v>       0.73849760       0.51257916       0.83147344 </v>
    <v>       0.74703531       0.15864929       0.16790023 </v>
    <v>       0.72111074       0.16264440       0.84130385 </v>
    <v>       0.26575850       0.83185683       0.83734380 </v>
    <v>       0.53824919       0.32767979       0.00340299 </v>
    <v>       0.51103089       0.99482215       0.00647198 </v>
    <v>       0.51460878       0.33282588       0.34324005 </v>
    <v>       0.99287154       0.32471525       0.67450272 </v>
    <v>       0.27576584       0.48435429       0.15280549 </v>
    <v>       0.98558683       0.34830009       0.32736425 </v>
    <v>       0.49185833       0.66752267       0.33359120 </v>
    <v>       0.21204287       0.15543584       0.48394890 </v>
    <v>       0.00663891       0.67015181       0.00986424 </v>
    <v>       0.75819654       0.52039024       0.52253085 </v>
    <v>       0.76086346       0.82955413       0.50807980 </v>
    <v>       0.25974094       0.49644313       0.83311548 </v>
    <v>       0.25552641       0.16218070       0.16233663 </v>
    <v>       0.73375757       0.82436538       0.83132541 </v>
   </varray>
  </structure>
  <varray name="forces" >
   <v>      -0.01063242      -0.00273007       0.01176394 </v>
   <v>       0.01334743       0.01032070      -0.00559002 </v>
   <v>       0.01700974      -0.00114623      -0.00254799 </v>
   <v>      -0.00772091       0.00647794      -0.00492282 </v>
   <v>       0.01469547       0.04609164      -0.02645253 </v>
   <v>       0.02712830       0.04151904       0.02354339 </v>
   <v>       0.00635803      -0.03841509      -0.03218886 </v>
   <v>      -0.03683632      -0.00502257      -0.02394577 </v>
   <v>       0.00555226      -0.00560456       0.00371592 </v>
   <v>       0.00852569       0.01002289       0.00167784 </v>
   <v>       0.00624061      -0.01678417       0.00849048 </v>
   <v>       0.00198958      -0.01428276       0.00364885 </v>
   <v>      -0.01809066      -0.00021315      -0.00047986 </v>
   <v>      -0.00919461       0.01630475       0.00863253 </v>
   <v>       0.00061088      -0.00718156       0.00034418 </v>
   <v>      -0.02172698       0.01647889       0.00071662 </v>
   <v>      -0.00276324       0.00471079      -0.01039882 </v>
   <v>       0.02401678      -0.00489298       0.00426988 </v>
   <v>      -0.00116478       0.01715759       0.00824531 </v>
   <v>      -0.00211281       0.00017962       0.00320153 </v>
   <v>      -0.00319303       0.00091657      -0.00721619 </v>
   <v>      -0.00483263      -0.01275153      -0.00642386 </v>
   <v>      -0.02137541       0.00029932       0.00890738 </v>
   <v>       0.01401954      -0.01993473       0.00569131 </v>
   <v>       0.00467463       0.00064768      -0.00180689 </v>
   <v>       0.00202112      -0.00188220      -0.00890545 </v>
   <v>       0.00740028      -0.01815246       0.00579876 </v>
   <v>      -0.01021334      -0.00227246       0.00176590 </v>
   <v>      -0.00513328      -0.01208763       0.01169561 </v>
   <v>      -0.00533975       0.01892288      -0.02056865 </v>
   <v>      -0.01259596       0.00660631       0.02779040 </v>
   <v>      -0.00030389       0.00048022       0.00565916 </v>
   <v>      -0.00170957       0.01081813      -0.00000151 </v>
   <v>       0.00413775      -0.00079000       0.00992630 </v>
   <v>       0.00638425       0.00296425       0.00604186 </v>
   <v>       0.01082726      -0.04677506      -0.01007792 </v>
  </varray>
  <varray name="stress" >
   <v>      -0.79959670      -0.05638718      -0.11900644 </v>
   <v>      -0.05638720      -0.97818039       0.10286273 </v>
   <v>      -0.11900649       0.10286277      -0.90500765 </v>
  </varray>
  <energy>
   <i name="e_fr_energy">   -357.91141804 </i>
   <i name="e_wo_entrp">   -357.91962671 </i>
   <i name="e_0_energy">      0.02462601 </i>
  </energy>
  <time name="totalsc">    6.50    6.72</time>
 </calculation>
 <calculation>
  <scstep>
   <time name="dav">    1.28    1.29</time>
   <time name="total">    1.41    1.47</time>
   <energy>
    <i name="alphaZ">   1490.16917858 </i>
    <i name="ewald"> -19676.13603913 </i>
    <i name="hartreedc">  -6086.94446952 </i>
    <i name="XCdc">   -261.49704258 </i>
    <i name="pawpsdc">  34267.94970405 </i>
    <i name="pawaedc"> -32660.38189740 </i>
    <i name="eentropy">      0.02469174 </i>
    <i name="bandstr">  -2606.24021142 </i>
    <i name="atom">  25175.14332663 </i>
    <i name="e_fr_energy">   -357.91275906 </i>
    <i name="e_wo_entrp">   -357.93745080 </i>
    <i name="e_0_energy">   -357.92098964 </i>
   </energy>
  </scstep>
  <scstep>
   <time name="diag">    0.09    0.09</time>
   <time name="diis">    0.74    0.77</time>
   <time name="orth">    0.01    0.01</time>
   <time name="total">    0.90    0.95</time>
   <energy>
    <i name="e_fr_energy">   -357.91220509 </i>
    <i name="e_wo_entrp">   -357.93693399 </i>
    <i name="e_0_energy">   -357.92044806 </i>
   </energy>
  </scstep>
  <scstep>
   <time name="diag">    0.08    0.08</time>
   <time name="diis">    0.84    0.84</time>
   <time name="orth">    0.01    0.01</time>
   <time name="total">    1.01    1.02</time>
   <energy>
    <i name="e_fr_energy">   -357.91208597 </i>
    <i name="e_wo_entrp">   -357.93674312 </i>
    <i name="e_0_energy">   -357.92030502 </i>
   </energy>
  </scstep>
  <scstep>
   <time name="diag">    0.08    0.08</time>
   <time name="diis">    0.81    0.81</time>
   <time name="orth">    0.01    0.01</time>
   <time name="total">    0.97    0.99</time>
   <energy>
    <i name="e_fr_energy">   -357.91193184 </i>
    <i name="e_wo_entrp">   -357.93667466 </i>
    <i name="e_0_energy">   -357.92017945 </i>
[...]
       <r>    6.7849    1.0000 </r>
       <r>    6.8197    1.0000 </r>
       <r>    6.8859    1.0000 </r>
       <r>    6.9095    1.0000 </r>
       <r>    6.9399    1.0000 </r>
       <r>    6.9785    1.0001 </r>
       <r>    7.0075    1.0003 </r>
       <r>    7.0536    1.0014 </r>
       <r>    7.0835    1.0032 </r>
       <r>    7.1391    1.0112 </r>
       <r>    7.1697    1.0192 </r>
       <r>    7.2148    1.0323 </r>
       <r>    7.2367    1.0354 </r>
       <r>    7.2761    1.0225 </r>
       <r>    7.3200    0.9541 </r>
       <r>    7.3577    0.8307 </r>
       <r>    7.3848    0.7056 </r>
       <r>    7.4252    0.4852 </r>
       <r>    7.4663    0.2644 </r>
       <r>    7.5199    0.0593 </r>
       <r>    7.5665   -0.0204 </r>
       <r>    7.5946   -0.0344 </r>
       <r>    7.6281   -0.0328 </r>
       <r>    7.6455   -0.0283 </r>
       <r>    7.6619   -0.0233 </r>
       <r>    7.7389   -0.0055 </r>
       <r>    7.7605   -0.0032 </r>
       <r>    7.7893   -0.0015 </r>
       <r>    7.8142   -0.0007 </r>
       <r>    7.8550   -0.0002 </r>
       <r>    7.9057   -0.0000 </r>
       <r>    7.9441   -0.0000 </r>
       <r>    7.9599   -0.0000 </r>
       <r>    8.0352   -0.0000 </r>
       <r>    8.0855   -0.0000 </r>
       <r>    8.1156   -0.0000 </r>
       <r>    8.1595   -0.0000 </r>
       <r>    8.2260   -0.0000 </r>
       <r>    8.2740   -0.0000 </r>
       <r>    8.3109   -0.0000 </r>
       <r>    8.3764   -0.0000 </r>
       <r>    8.5964   -0.0000 </r>
       <r>    8.7017   -0.0000 </r>
       <r>    8.7683   -0.0000 </r>
       <r>    9.2578   -0.0000 </r>
       <r>    9.3039   -0.0000 </r>
       <r>    9.3484   -0.0000 </r>
       <r>    9.4127   -0.0000 </r>
       <r>    9.4613   -0.0000 </r>
      </set>
     </set>
    </set>
   </array>
  </eigenvalues>
  <separator name="orbital magnetization" >
   <v name="MAGDIPOLOUT">      0.00000000      0.00000000      0.00000000</v>
  </separator>
  <dos>
   <i name="efermi">      7.42257912 </i>
   <total>
    <array>
     <dimension dim="1">gridpoints</dimension>
     <dimension dim="2">spin</dimension>
     <field>energy</field>
     <field>total</field>
     <field>integrated</field>
     <set>
      <set comment="spin 1">
       <r>   -49.6645     0.0000     0.0000 </r>
       <r>   -49.4578     0.0000     0.0000 </r>
       <r>   -49.2511     0.0000     0.0000 </r>
       <r>   -49.0444     0.0000     0.0000 </r>
       <r>   -48.8377     0.0000     0.0000 </r>
       <r>   -48.6310     0.0000     0.0000 </r>
       <r>   -48.4243     0.0000     0.0000 </r>
       <r>   -48.2176    -0.0000    -0.0000 </r>
       <r>   -48.0109    -0.0000    -0.0000 </r>
       <r>   -47.8042    -0.0000    -0.0000 </r>
       <r>   -47.5976    -0.0000    -0.0000 </r>
       <r>   -47.3909    -0.0000    -0.0000 </r>
       <r>   -47.1842    -0.0444    -0.0092 </r>
       <r>   -46.9775    -0.8153    -0.1777 </r>
       <r>   -46.7708    21.7883     4.3258 </r>
       <r>   -46.5641    26.5151     9.8063 </r>
       <r>   -46.3574     1.1085    10.0354 </r>
       <r>   -46.1507    -0.1710    10.0001 </r>
       <r>   -45.9440    -0.0003    10.0000 </r>
       <r>   -45.7373    -0.0000    10.0000 </r>
       <r>   -45.5306    -0.0000    10.0000 </r>
       <r>   -45.3239     0.0000    10.0000 </r>
       <r>   -45.1172     0.0000    10.0000 </r>
       <r>   -44.9105     0.0000    10.0000 </r>
       <r>   -44.7039     0.0000    10.0000 </r>
       <r>   -44.4972     0.0000    10.0000 </r>
       <r>   -44.2905     0.0000    10.0000 </r>
       <r>   -44.0838     0.0000    10.0000 </r>
       <r>   -43.8771     0.0000    10.0000 </r>
       <r>   -43.6704     0.0000    10.0000 </r>
       <r>   -43.4637     0.0000    10.0000 </r>
       <r>   -43.2570     0.0000    10.0000 </r>
       <r>   -43.0503     0.0000    10.0000 </r>
       <r>   -42.8436     0.0000    10.0000 </r>
       <r>   -42.6369     0.0000    10.0000 </r>
       <r>   -42.4302     0.0000    10.0000 </r>
       <r>   -42.2235    -0.0000    10.0000 </r>
       <r>   -42.0168    -0.0000    10.0000 </r>
       <r>   -41.8101    -0.0000    10.0000 </r>
       <r>   -41.6035    -0.0000    10.0000 </r>
       <r>   -41.3968    -0.0002    10.0000 </r>
       <r>   -41.1901    -0.1968     9.9593 </r>
       <r>   -40.9834    -1.5920     9.6302 </r>
       <r>   -40.7767    71.4618    24.4009 </r>
       <r>   -40.5700    49.1706    34.5641 </r>
       <r>   -40.3633    -2.6771    34.0108 </r>
       <r>   -40.1566    -0.0521    34.0000 </r>
       <r>   -39.9499    -0.0000    34.0000 </r>
       <r>   -39.7432    -0.0000    34.0000 </r>
       <r>   -39.5365     0.0000    34.0000 </r>
       <r>   -39.3298     0.0000    34.0000 </r>
       <r>   -39.1231     0.0000    34.0000 </r>
       <r>   -38.9164     0.0000    34.0000 </r>
       <r>   -38.7098     0.0000    34.0000 </r>
       <r>   -38.5031     0.0000    34.0000 </r>
       <r>   -38.2964     0.0000    34.0000 </r>
       <r>   -38.0897     0.0000    34.0000 </r>
       <r>   -37.8830     0.0000    34.0000 </r>
       <r>   -37.6763     0.0000    34.0000 </r>
       <r>   -37.4696     0.0000    34.0000 </r>
       <r>   -37.2629     0.0000    34.0000 </r>
       <r>   -37.0562     0.0000    34.0000 </r>
       <r>   -36.8495     0.0000    34.0000 </r>
       <r>   -36.6428     0.0000    34.0000 </r>
       <r>   -36.4361     0.0000    34.0000 </r>
       <r>   -36.2294     0.0000    34.0000 </r>
       <r>   -36.0227     0.0000    34.0000 </r>
       <r>   -35.8161     0.0000    34.0000 </r>
       <r>   -35.6094     0.0000    34.0000 </r>
       <r>   -35.4027     0.0000    34.0000 </r>
       <r>   -35.1960     0.0000    34.0000 </r>
       <r>   -34.9893     0.0000    34.0000 </r>
       <r>   -34.7826     0.0000    34.0000 </r>
       <r>   -34.5759     0.0000    34.0000 </r>
       <r>   -34.3692     0.0000    34.0000 </r>
       <r>   -34.1625     0.0000    34.0000 </r>
       <r>   -33.9558     0.0000    34.0000 </r>
       <r>   -33.7491     0.0000    34.0000 </r>
       <r>   -33.5424     0.0000    34.0000 </r>
       <r>   -33.3357     0.0000    34.0000 </r>
       <r>   -33.1290     0.0000    34.0000 </r>
       <r>   -32.9223     0.0000    34.0000 </r>
       <r>   -32.7157     0.0000    34.0000 </r>
       <r>   -32.5090     0.0000    34.0000 </r>
       <r>   -32.3023     0.0000    34.0000 </r>
       <r>   -32.0956     0.0000    34.0000 </r>
       <r>   -31.8889     0.0000    34.0000 </r>
       <r>   -31.6822     0.0000    34.0000 </r>
       <r>   -31.4755     0.0000    34.0000 </r>
       <r>   -31.2688     0.0000    34.0000 </r>
       <r>   -31.0621     0.0000    34.0000 </r>
       <r>   -30.8554     0.0000    34.0000 </r>
       <r>   -30.6487     0.0000    34.0000 </r>
       <r>   -30.4420     0.0000    34.0000 </r>
       <r>   -30.2353     0.0000    34.0000 </r>
       <r>   -30.0286     0.0000    34.0000 </r>
       <r>   -29.8220     0.0000    34.0000 </r>
       <r>   -29.6153     0.0000    34.0000 </r>
       <r>   -29.4086     0.0000    34.0000 </r>
       <r>   -29.2019     0.0000    34.0000 </r>
       <r>   -28.9952     0.0000    34.0000 </r>
       <r>   -28.7885     0.0000    34.0000 </r>
       <r>   -28.5818     0.0000    34.0000 </r>
       <r>   -28.3751     0.0000    34.0000 </r>
       <r>   -28.1684     0.0000    34.0000 </r>
       <r>   -27.9617     0.0000    34.0000 </r>
       <r>   -27.7550     0.0000    34.0000 </r>
       <r>   -27.5483     0.0000    34.0000 </r>
       <r>   -27.3416     0.0000    34.0000 </r>
       <r>   -27.1349     0.0000    34.0000 </r>
       <r>   -26.9282     0.0000    34.0000 </r>
       <r>   -26.7216     0.0000    34.0000 </r>
       <r>   -26.5149     0.0000    34.0000 </r>
       <r>   -26.3082     0.0000    34.0000 </r>
       <r>   -26.1015     0.0000    34.0000 </r>
       <r>   -25.8948     0.0000    34.0000 </r>
       <r>   -25.6881     0.0000    34.0000 </r>
       <r>   -25.4814     0.0000    34.0000 </r>
       <r>   -25.2747     0.0000    34.0000 </r>
       <r>   -25.0680     0.0000    34.0000 </r>
       <r>   -24.8613     0.0000    34.0000 </r>
       <r>   -24.6546    -0.0000    34.0000 </r>
       <r>   -24.4479    -0.0000    34.0000 </r>
       <r>   -24.2412    -0.0000    34.0000 </r>
       <r>   -24.0345    -0.0000    34.0000 </r>
       <r>   -23.8279    -0.0000    34.0000 </r>
       <r>   -23.6212    -0.0457    33.9905 </r>
       <r>   -23.4145    -0.0666    33.9768 </r>
       <r>   -23.2078    10.9696    36.2441 </r>
       <r>   -23.0011    32.5358    42.9690 </r>
       <r>   -22.7944    54.2157    54.1751 </r>
       <r>   -22.5877    29.3174    60.2348 </r>
       <r>   -22.3810    18.8317    64.1271 </r>
       <r>   -22.1743    -0.5680    64.0097 </r>
       <r>   -21.9676    -0.0471    64.0000 </r>
       <r>   -21.7609    -0.0000    64.0000 </r>
       <r>   -21.5542    -0.0000    64.0000 </r>
       <r>   -21.3475     0.0000    64.0000 </r>
       <r>   -21.1408     0.0000    64.0000 </r>
       <r>   -20.9341     0.0000    64.0000 </r>
       <r>   -20.7275    -0.0000    64.0000 </r>
       <r>   -20.5208    -0.0000    64.0000 </r>
       <r>   -20.3141    -0.0000    64.0000 </r>
       <r>   -20.1074    -0.0000    64.0000 </r>
       <r>   -19.9007    -0.0000    64.0000 </r>
       <r>   -19.6940    -0.0110    63.9977 </r>
       <r>   -19.4873    -0.9573    63.7999 </r>
       <r>   -19.2806    12.9383    66.4741 </r>
       <r>   -19.0739    64.3738    79.7797 </r>
       <r>   -18.8672   107.8020   102.0617 </r>
       <r>   -18.6605   127.1005   128.3324 </r>
       <r>   -18.4538    38.9098   136.3748 </r>
       <r>   -18.2471    -1.7322   136.0168 </r>
       <r>   -18.0404    -0.0812   136.0000 </r>
       <r>   -17.8338    -0.0000   136.0000 </r>
       <r>   -17.6271    -0.0000   136.0000 </r>
       <r>   -17.4204     0.0000   136.0000 </r>
       <r>   -17.2137     0.0000   136.0000 </r>
       <r>   -17.0070     0.0000   136.0000 </r>
       <r>   -16.8003     0.0000   136.0000 </r>
       <r>   -16.5936     0.0000   136.0000 </r>
       <r>   -16.3869     0.0000   136.0000 </r>
       <r>   -16.1802     0.0000   136.0000 </r>
       <r>   -15.9735     0.0000   136.0000 </r>
       <r>   -15.7668     0.0000   136.0000 </r>
       <r>   -15.5601     0.0000   136.0000 </r>
       <r>   -15.3534     0.0000   136.0000 </r>
       <r>   -15.1467     0.0000   136.0000 </r>
       <r>   -14.9401     0.0000   136.0000 </r>
       <r>   -14.7334     0.0000   136.0000 </r>
       <r>   -14.5267     0.0000   136.0000 </r>
       <r>   -14.3200     0.0000   136.0000 </r>
       <r>   -14.1133     0.0000   136.0000 </r>
       <r>   -13.9066     0.0000   136.0000 </r>
       <r>   -13.6999     0.0000   136.0000 </r>
       <r>   -13.4932     0.0000   136.0000 </r>
       <r>   -13.2865     0.0000   136.0000 </r>
       <r>   -13.0798     0.0000   136.0000 </r>
       <r>   -12.8731     0.0000   136.0000 </r>
       <r>   -12.6664     0.0000   136.0000 </r>
       <r>   -12.4597     0.0000   136.0000 </r>
       <r>   -12.2530     0.0000   136.0000 </r>
       <r>   -12.0463     0.0000   136.0000 </r>
       <r>   -11.8397     0.0000   136.0000 </r>
       <r>   -11.6330     0.0000   136.0000 </r>
       <r>   -11.4263     0.0000   136.0000 </r>
       <r>   -11.2196     0.0000   136.0000 </r>
       <r>   -11.0129     0.0000   136.0000 </r>
       <r>   -10.8062     0.0000   136.0000 </r>
       <r>   -10.5995     0.0000   136.0000 </r>
       <r>   -10.3928     0.0000   136.0000 </r>
       <r>   -10.1861     0.0000   136.0000 </r>
       <r>    -9.9794     0.0000   136.0000 </r>
       <r>    -9.7727     0.0000   136.0000 </r>
       <r>    -9.5660     0.0000   136.0000 </r>
       <r>    -9.3593     0.0000   136.0000 </r>
       <r>    -9.1526     0.0000   136.0000 </r>
       <r>    -8.9460     0.0000   136.0000 </r>
       <r>    -8.7393     0.0000   136.0000 </r>
       <r>    -8.5326     0.0000   136.0000 </r>
       <r>    -8.3259     0.0000   136.0000 </r>
       <r>    -8.1192     0.0000   136.0000 </r>
       <r>    -7.9125     0.0000   136.0000 </r>
       <r>    -7.7058     0.0000   136.0000 </r>
       <r>    -7.4991     0.0000   136.0000 </r>
       <r>    -7.2924     0.0000   136.0000 </r>
       <r>    -7.0857     0.0000   136.0000 </r>
       <r>    -6.8790     0.0000   136.0000 </r>
       <r>    -6.6723     0.0000   136.0000 </r>
       <r>    -6.4656     0.0000   136.0000 </r>
       <r>    -6.2589     0.0000   136.0000 </r>
       <r>    -6.0522     0.0000   136.0000 </r>
       <r>    -5.8456     0.0000   136.0000 </r>
       <r>    -5.6389     0.0000   136.0000 </r>
       <r>    -5.4322     0.0000   136.0000 </r>
       <r>    -5.2255     0.0000   136.0000 </r>
       <r>    -5.0188     0.0000   136.0000 </r>
       <r>    -4.8121     0.0000   136.0000 </r>
       <r>    -4.6054     0.0000   136.0000 </r>
       <r>    -4.3987     0.0000   136.0000 </r>
       <r>    -4.1920     0.0000   136.0000 </r>
       <r>    -3.9853     0.0000   136.0000 </r>
       <r>    -3.7786     0.0000   136.0000 </r>
       <r>    -3.5719     0.0000   136.0000 </r>
       <r>    -3.3652     0.0000   136.0000 </r>
       <r>    -3.1585     0.0000   136.0000 </r>
       <r>    -2.9519     0.0000   136.0000 </r>
       <r>    -2.7452     0.0000   136.0000 </r>
       <r>    -2.5385     0.0000   136.0000 </r>
       <r>    -2.3318     0.0000   136.0000 </r>
       <r>    -2.1251     0.0000   136.0000 </r>
       <r>    -1.9184     0.0000   136.0000 </r>
       <r>    -1.7117     0.0000   136.0000 </r>
       <r>    -1.5050     0.0000   136.0000 </r>
       <r>    -1.2983     0.0000   136.0000 </r>
       <r>    -1.0916     0.0000   136.0000 </r>
       <r>    -0.8849     0.0000   136.0000 </r>
       <r>    -0.6782    -0.0000   136.0000 </r>
       <r>    -0.4715    -0.0000   136.0000 </r>
       <r>    -0.2648    -0.0000   136.0000 </r>
       <r>    -0.0581    -0.0000   136.0000 </r>
       <r>     0.1485    -0.0000   136.0000 </r>
       <r>     0.3552    -0.0005   135.9999 </r>
       <r>     0.5619    -0.0123   135.9974 </r>
       <r>     0.7686     0.2258   136.0440 </r>
       <r>     0.9753     1.0327   136.2575 </r>
       <r>     1.1820     1.6667   136.6020 </r>
       <r>     1.3887     2.0062   137.0166 </r>
       <r>     1.5954     3.5318   137.7466 </r>
       <r>     1.8021     3.7699   138.5259 </r>
       <r>     2.0088     2.2969   139.0006 </r>
       <r>     2.2155     4.8626   140.0057 </r>
       <r>     2.4222     3.7236   140.7753 </r>
       <r>     2.6289     5.3649   141.8842 </r>
       <r>     2.8356     6.8565   143.3014 </r>
       <r>     3.0422     7.5910   144.8704 </r>
       <r>     3.2489     7.9240   146.5082 </r>
       <r>     3.4556     8.6404   148.2942 </r>
       <r>     3.6623     8.9780   150.1499 </r>
       <r>     3.8690    16.4510   153.5502 </r>
       <r>     4.0757    22.1192   158.1221 </r>
       <r>     4.2824    23.2031   162.9180 </r>
       <r>     4.4891    28.1505   168.7365 </r>
       <r>     4.6958    31.8274   175.3150 </r>
       <r>     4.9025    38.6840   183.3107 </r>
       <r>     5.1092    39.6082   191.4975 </r>
       <r>     5.3159    37.8034   199.3112 </r>
       <r>     5.5226    34.0550   206.3501 </r>
       <r>     5.7293    32.0026   212.9648 </r>
       <r>     5.9359    20.6676   217.2366 </r>
       <r>     6.1426    39.0310   225.3041 </r>
       <r>     6.3493    56.3765   236.9567 </r>
       <r>     6.5560    57.6726   248.8772 </r>
       <r>     6.7627    54.3076   260.1022 </r>
       <r>     6.9694    54.4911   271.3652 </r>
       <r>     7.1761    56.3962   283.0219 </r>
       <r>     7.3828    49.5674   293.2671 </r>
       <r>     7.5895    45.0800   302.5848 </r>
       <r>     7.7962    52.8792   313.5146 </r>
       <r>     8.0029    48.0726   323.4509 </r>
       <r>     8.2096    35.3711   330.7618 </r>
       <r>     8.4163    33.7858   337.7451 </r>
       <r>     8.6230    24.5577   342.8210 </r>
       <r>     8.8297    18.3334   346.6104 </r>
       <r>     9.0363    15.3440   349.7819 </r>
       <r>     9.2430    24.5372   354.8536 </r>
       <r>     9.4497    21.5860   359.3153 </r>
       <r>     9.6564     3.5720   360.0536 </r>
       <r>     9.8631    -0.2549   360.0009 </r>
       <r>    10.0698    -0.0043   360.0000 </r>
       <r>    10.2765    -0.0000   360.0000 </r>
       <r>    10.4832    -0.0000   360.0000 </r>
       <r>    10.6899     0.0000   360.0000 </r>
       <r>    10.8966     0.0000   360.0000 </r>
       <r>    11.1033     0.0000   360.0000 </r>
       <r>    11.3100     0.0000   360.0000 </r>
       <r>    11.5167     0.0000   360.0000 </r>
       <r>    11.7234     0.0000   360.0000 </r>
       <r>    11.9300     0.0000   360.0000 </r>
       <r>    12.1367     0.0000   360.0000 </r>
       <r>    12.3434     0.0000   360.0000 </r>
      </set>
     </set>
    </array>
   </total>
  </dos>
 </calculation>
 <structure name="finalpos" >
  <crystal>
   <varray name="basis" >
    <v>       7.04322410       0.01064533       0.01107618 </v>
    <v>       0.01599010      10.26323734       0.01488284 </v>
    <v>       0.01568197       0.01467889      10.28219006 </v>
   </varray>
   <i name="volume">    743.25620908 </i>
   <varray name="rec_basis" >
    <v>       0.14198111      -0.00022089      -0.00021623 </v>
    <v>      -0.00014705       0.09743557      -0.00013888 </v>
    <v>      -0.00015273      -0.00014079       0.09725598 </v>
   </varray>
  </crystal>
  <varray name="positions" >
   <v>       0.73668700       0.83511737       0.16012375 </v>
   <v>       0.98472285       0.98575009       0.31613983 </v>
   <v>       0.26111066       0.84640360       0.16501933 </v>
   <v>       0.78393421       0.15369459       0.48775204 </v>
   <v>       0.49192245       0.67649036       0.00824898 </v>
   <v>       0.46420684       0.67817920       0.66068836 </v>
   <v>       0.24213538       0.51292997       0.51365586 </v>
   <v>       0.03269542       0.67973564       0.67175614 </v>
   <v>       0.72671204       0.50420025       0.15260291 </v>
   <v>       0.23709214       0.83282901       0.49833944 </v>
   <v>       0.49329467       0.00587923       0.65482641 </v>
   <v>       0.28281358       0.17193403       0.84992810 </v>
   <v>       0.99214836       0.99884397       0.99779144 </v>
   <v>       0.00526589       0.00025019       0.68407299 </v>
   <v>       0.00596551       0.66753924       0.32400671 </v>
   <v>       0.51071618       0.99721893       0.33597586 </v>
   <v>       0.50598529       0.32139970       0.65031862 </v>
   <v>       0.97396126       0.32683392       0.99754366 </v>
   <v>       0.73885645       0.51245233       0.83184848 </v>
   <v>       0.74692971       0.15861342       0.16790210 </v>
   <v>       0.72070922       0.16297302       0.84125658 </v>
   <v>       0.26394685       0.83172385       0.83715210 </v>
   <v>       0.53760780       0.32750667       0.00341581 </v>
   <v>       0.51197141       0.99428451       0.00638252 </v>
   <v>       0.51522521       0.33300725       0.34316917 </v>
   <v>       0.99289738       0.32480391       0.67454848 </v>
   <v>       0.27633172       0.48434763       0.15300140 </v>
   <v>       0.98449694       0.34822625       0.32713946 </v>
   <v>       0.49161211       0.66726550       0.33403924 </v>
   <v>       0.21188262       0.15671767       0.48368115 </v>
   <v>       0.00642065       0.67001177       0.01137344 </v>
   <v>       0.75748854       0.52051758       0.52292145 </v>
   <v>       0.76129375       0.83036683       0.50721370 </v>
   <v>       0.25953787       0.49682329       0.83317831 </v>
   <v>       0.25556293       0.16217413       0.16228316 </v>
   <v>       0.73584312       0.82295811       0.83069900 </v>
  </varray>
 </structure>
</modeling>
