<?xml version="1.0" encoding="ISO-8859-1"?>
<modeling>
 <generator>
  <i name="program" type="string">vasp </i>
  <i name="version" type="string">5.4.1  </i>
  <i name="subversion" type="string">05Feb16 (build Jan 29 2020 16:04:39) complex                          parallel </i>
  <i name="platform" type="string">IFC91_ompi </i>
  <i name="date" type="string">2020 06 15 </i>
  <i name="time" type="string">11:37:47 </i>
 </generator>
 <incar>
  <i type="string" name="SYSTEM"> automatically generated by mexm</i>
  <i type="int" name="ISTART">     0</i>
  <i type="string" name="PREC">accurate               ! avoid wrap aro</i>
  <i type="string" name="ALGO"> Fast                   ! blocked Davids</i>
  <i type="int" name="ISPIN">     1</i>
  <i type="int" name="ICHARG">     2</i>
  <i type="int" name="NELM">    70</i>
  <i type="int" name="IBRION">     2</i>
  <i name="EDIFF">      0.00001000</i>
  <i name="EDIFFG">     -0.01000000</i>
  <i type="int" name="NSW">   300</i>
  <i type="int" name="ISIF">     3</i>
  <i type="int" name="ISYM">     1</i>
  <i name="ENCUT">    300.00000000</i>
  <i name="POTIM">      0.15000000</i>
  <i type="string" name="LREAL"> Auto                  ! unpublished met</i>
  <i type="int" name="ISMEAR">     1</i>
  <i name="SIGMA">      0.15000000</i>
  <i type="logical" name="LWAVE"> F  </i>
  <i type="logical" name="LCHARG"> F  </i>
  <i type="logical" name="LVTOT"> F  </i>
  <v type="int" name="KPOINT_BSE">    -1     0     0     0</v>
  <i type="int" name="NELM">    70</i>
 </incar>
 <kpoints>
  <generation param="Gamma">
   <v type="int" name="divisions">       3        3        3 </v>
   <v name="usershift">      0.00000000       0.00000000       0.00000000 </v>
   <v name="genvec1">      0.33333333       0.00000000       0.00000000 </v>
   <v name="genvec2">      0.00000000       0.33333333       0.00000000 </v>
   <v name="genvec3">     -0.00000000       0.00000000       0.33333333 </v>
   <v name="shift">      0.00000000       0.00000000       0.00000000 </v>
  </generation>
  <varray name="kpointlist" >
   <v>       0.00000000       0.00000000       0.00000000 </v>
   <v>       0.33333333       0.00000000      -0.00000000 </v>
   <v>      -0.00000000       0.33333333      -0.00000000 </v>
   <v>       0.33333333       0.33333333      -0.00000000 </v>
   <v>      -0.33333333       0.33333333      -0.00000000 </v>
   <v>       0.00000000       0.00000000       0.33333333 </v>
   <v>       0.33333333       0.00000000       0.33333333 </v>
   <v>      -0.33333333       0.00000000       0.33333333 </v>
   <v>      -0.00000000       0.33333333       0.33333333 </v>
   <v>       0.33333333       0.33333333       0.33333333 </v>
   <v>      -0.33333333       0.33333333       0.33333333 </v>
   <v>       0.00000000      -0.33333333       0.33333333 </v>
   <v>       0.33333333      -0.33333333       0.33333333 </v>
   <v>      -0.33333333      -0.33333333       0.33333333 </v>
  </varray>
  <varray name="weights" >
   <v>       0.03703704 </v>
   <v>       0.07407407 </v>
   <v>       0.07407407 </v>
   <v>       0.07407407 </v>
   <v>       0.07407407 </v>
   <v>       0.07407407 </v>
   <v>       0.07407407 </v>
   <v>       0.07407407 </v>
   <v>       0.07407407 </v>
   <v>       0.07407407 </v>
   <v>       0.07407407 </v>
   <v>       0.07407407 </v>
   <v>       0.07407407 </v>
   <v>       0.07407407 </v>
  </varray>
 </kpoints>
 <parameters>
  <separator name="general" >
   <i type="string" name="SYSTEM">automatically generated by mexm</i>
   <i type="logical" name="LCOMPAT"> F  </i>
  </separator>
  <separator name="electronic" >
   <i type="string" name="PREC">accura</i>
   <i name="ENMAX">    300.00000000</i>
   <i name="ENAUG">    461.25700000</i>
   <i name="EDIFF">      0.00001000</i>
   <i type="int" name="IALGO">    68</i>
   <i type="int" name="IWAVPR">    11</i>
   <i type="int" name="NBANDS">   196</i>
   <i name="NELECT">    323.00000000</i>
   <i type="int" name="TURBO">     0</i>
   <i type="int" name="IRESTART">     0</i>
   <i type="int" name="NREBOOT">     0</i>
   <i type="int" name="NMIN">     0</i>
   <i name="EREF">      0.00000000</i>
   <separator name="electronic smearing" >
    <i type="int" name="ISMEAR">     1</i>
    <i name="SIGMA">      0.15000000</i>
    <i name="KSPACING">      0.50000000</i>
    <i type="logical" name="KGAMMA"> T  </i>
   </separator>
   <separator name="electronic projectors" >
    <i type="logical" name="LREAL"> T  </i>
    <v name="ROPT">     -0.00025000     -0.00025000     -0.00025000     -0.00025000</v>
    <i type="int" name="LMAXPAW">  -100</i>
    <i type="int" name="LMAXMIX">     2</i>
    <i type="logical" name="NLSPLINE"> F  </i>
   </separator>
   <separator name="electronic startup" >
    <i type="int" name="ISTART">     0</i>
    <i type="int" name="ICHARG">     2</i>
    <i type="int" name="INIWAV">     1</i>
   </separator>
   <separator name="electronic spin" >
    <i type="int" name="ISPIN">     1</i>
    <i type="logical" name="LNONCOLLINEAR"> F  </i>
    <v name="MAGMOM">      1.00000000      1.00000000      1.00000000      1.00000000      1.00000000      1.00000000      1.00000000      1.00000000      1.00000000      1.00000000      1.00000000      1.00000000      1.00000000      1.00000000      1.00000000      1.00000000      1.00000000      1.00000000      1.00000000      1.00000000
      1.00000000      1.00000000      1.00000000      1.00000000      1.00000000      1.00000000      1.00000000      1.00000000      1.00000000      1.00000000      1.00000000      1.00000000      1.00000000      1.00000000      1.00000000      1.00000000</v>
    <i name="NUPDOWN">     -1.00000000</i>
    <i type="logical" name="LSORBIT"> F  </i>
    <v name="SAXIS">      0.00000000      0.00000000      1.00000000</v>
    <i type="logical" name="LSPIRAL"> F  </i>
    <v name="QSPIRAL">      0.00000000      0.00000000      0.00000000</v>
    <i type="logical" name="LZEROZ"> F  </i>
   </separator>
   <separator name="electronic exchange-correlation" >
    <i type="logical" name="LASPH"> F  </i>
    <i type="logical" name="LMETAGGA"> F  </i>
   </separator>
   <separator name="electronic convergence" >
    <i type="int" name="NELM">    70</i>
    <i type="int" name="NELMDL">    -5</i>
    <i type="int" name="NELMIN">     2</i>
    <i name="ENINI">    300.00000000</i>
    <separator name="electronic convergence detail" >
     <i type="logical" name="LDIAG"> T  </i>
     <i type="logical" name="LSUBROT"> F  </i>
     <i name="WEIMIN">      0.00100000</i>
     <i name="EBREAK">      0.00000001</i>
     <i name="DEPER">      0.30000000</i>
     <i type="int" name="NRMM">     4</i>
     <i name="TIME">      0.40000000</i>
    </separator>
   </separator>
   <separator name="electronic mixer" >
    <i name="AMIX">      0.40000000</i>
    <i name="BMIX">      1.00000000</i>
    <i name="AMIN">      0.10000000</i>
    <i name="AMIX_MAG">      1.60000000</i>
    <i name="BMIX_MAG">      1.00000000</i>
    <separator name="electronic mixer details" >
     <i type="int" name="IMIX">     4</i>
     <i type="logical" name="MIXFIRST"> F  </i>
     <i type="int" name="MAXMIX">   -45</i>
     <i name="WC">    100.00000000</i>
     <i type="int" name="INIMIX">     1</i>
     <i type="int" name="MIXPRE">     1</i>
     <i type="int" name="MREMOVE">     5</i>
    </separator>
   </separator>
   <separator name="electronic dipolcorrection" >
    <i type="logical" name="LDIPOL"> F  </i>
    <i type="logical" name="LMONO"> F  </i>
    <i type="int" name="IDIPOL">     0</i>
    <i name="EPSILON">      1.00000000</i>
    <v name="DIPOL">   -100.00000000   -100.00000000   -100.00000000</v>
    <i name="EFIELD">      0.00000000</i>
   </separator>
  </separator>
  <separator name="grids" >
   <i type="int" name="NGX">    40</i>
   <i type="int" name="NGY">    60</i>
   <i type="int" name="NGZ">    60</i>
   <i type="int" name="NGXF">    80</i>
   <i type="int" name="NGYF">   120</i>
   <i type="int" name="NGZF">   120</i>
   <i type="logical" name="ADDGRID"> F  </i>
  </separator>
  <separator name="ionic" >
   <i type="int" name="NSW">   300</i>
   <i type="int" name="IBRION">     2</i>
   <i type="int" name="ISIF">     3</i>
   <i name="PSTRESS">      0.00000000</i>
   <i name="EDIFFG">     -0.01000000</i>
   <i type="int" name="NFREE">     1</i>
   <i name="POTIM">      0.15000000</i>
   <i name="SMASS">     -3.00000000</i>
   <i name="SCALEE">      1.00000000</i>
  </separator>
  <separator name="ionic md" >
   <i name="TEBEG">      0.00010000</i>
   <i name="TEEND">      0.00010000</i>
   <i type="int" name="NBLOCK">     1</i>
   <i type="int" name="KBLOCK">   300</i>
   <i type="int" name="NPACO">   256</i>
   <i name="APACO">     16.00000000</i>
  </separator>
  <separator name="symmetry" >
   <i type="int" name="ISYM">     1</i>
   <i name="SYMPREC">      0.00001000</i>
  </separator>
  <separator name="dos" >
   <i type="logical" name="LORBIT"> F  </i>
   <v name="RWIGS">     -1.00000000     -1.00000000     -1.00000000     -1.00000000</v>
   <i type="int" name="NEDOS">   301</i>
   <i name="EMIN">     10.00000000</i>
   <i name="EMAX">    -10.00000000</i>
   <i name="EFERMI">      0.00000000</i>
  </separator>
  <separator name="writing" >
   <i type="int" name="NWRITE">     2</i>
   <i type="logical" name="LWAVE"> F  </i>
   <i type="logical" name="LCHARG"> F  </i>
   <i type="logical" name="LPARD"> F  </i>
   <i type="logical" name="LVTOT"> F  </i>
   <i type="logical" name="LVHAR"> F  </i>
   <i type="logical" name="LELF"> F  </i>
   <i type="logical" name="LOPTICS"> F  </i>
   <v name="STM">      0.00000000      0.00000000      0.00000000      0.00000000      0.00000000      0.00000000      0.00000000</v>
  </separator>
  <separator name="performance" >
   <i type="int" name="NPAR">     4</i>
   <i type="int" name="NSIM">     4</i>
   <i type="int" name="NBLK">    -1</i>
   <i type="logical" name="LPLANE"> T  </i>
   <i type="logical" name="LSCALAPACK"> T  </i>
   <i type="logical" name="LSCAAWARE"> F  </i>
   <i type="logical" name="LSCALU"> F  </i>
   <i type="logical" name="LASYNC"> F  </i>
   <i type="logical" name="LORBITALREAL"> F  </i>
  </separator>
  <separator name="miscellaneous" >
   <i type="int" name="IDIOT">     3</i>
   <i type="logical" name="LMUSIC"> F  </i>
   <v name="POMASS">    180.94800000     91.22400000    178.49000000     92.91000000</v>
   <v name="DARWINR">      0.00000000      0.00000000      0.00000000      0.00000000</v>
   <v name="DARWINV">      1.00000000      1.00000000      1.00000000      1.00000000</v>
   <i type="logical" name="LCORR"> T  </i>
  </separator>
  <i type="logical" name="GGA_COMPAT"> T  </i>
  <i type="logical" name="LBERRY"> F  </i>
  <i type="int" name="ICORELEVEL">     0</i>
  <i type="logical" name="LDAU"> F  </i>
  <i type="int" name="I_CONSTRAINED_M">     0</i>
  <separator name="electronic exchange-correlation" >
   <i type="string" name="GGA">--</i>
   <i type="int" name="VOSKOWN">     0</i>
   <i type="logical" name="LHFCALC"> F  </i>
   <i type="string" name="PRECFOCK"></i>
   <i type="logical" name="LSYMGRAD"> F  </i>
   <i type="logical" name="LHFONE"> F  </i>
   <i type="logical" name="LRHFCALC"> F  </i>
   <i type="logical" name="LTHOMAS"> F  </i>
   <i type="logical" name="LMODELHF"> F  </i>
   <i name="ENCUT4O">     -1.00000000</i>
   <i type="int" name="EXXOEP">     0</i>
   <i type="int" name="FOURORBIT">     0</i>
   <i name="AEXX">      0.00000000</i>
   <i name="HFALPHA">      0.00000000</i>
   <i name="MCALPHA">      0.00000000</i>
   <i name="ALDAX">      1.00000000</i>
   <i name="AGGAX">      1.00000000</i>
   <i name="ALDAC">      1.00000000</i>
   <i name="AGGAC">      1.00000000</i>
   <i type="int" name="NKREDX">     1</i>
   <i type="int" name="NKREDY">     1</i>
   <i type="int" name="NKREDZ">     1</i>
   <i type="logical" name="SHIFTRED"> F  </i>
   <i type="logical" name="ODDONLY"> F  </i>
   <i type="logical" name="EVENONLY"> F  </i>
   <i type="int" name="LMAXFOCK">     0</i>
   <i type="int" name="NMAXFOCKAE">     0</i>
   <i type="logical" name="LFOCKAEDFT"> F  </i>
   <i name="HFSCREEN">      0.00000000</i>
   <i name="HFSCREENC">      0.00000000</i>
   <i type="int" name="NBANDSGWLOW">     0</i>
  </separator>
  <separator name="vdW DFT" >
   <i type="logical" name="LUSE_VDW"> F  </i>
   <i name="Zab_VDW">     -0.84910000</i>
   <i name="PARAM1">      0.12340000</i>
   <i name="PARAM2">      1.00000000</i>
   <i name="PARAM3">      0.00000000</i>
  </separator>
  <separator name="model GW" >
   <i type="int" name="MODEL_GW">     0</i>
   <i name="MODEL_EPS0">     11.94127924</i>
   <i name="MODEL_ALPHA">      1.00000000</i>
  </separator>
  <separator name="linear response parameters" >
   <i type="logical" name="LEPSILON"> F  </i>
   <i type="logical" name="LRPA"> F  </i>
   <i type="logical" name="LNABLA"> F  </i>
   <i type="logical" name="LVEL"> F  </i>
   <i type="int" name="KINTER">     0</i>
   <i name="CSHIFT">      0.10000000</i>
   <i name="OMEGAMAX">     -1.00000000</i>
   <i name="DEG_THRESHOLD">      0.00200000</i>
  </separator>
  <separator name="orbital magnetization" >
   <i type="logical" name="NUCIND"> F  </i>
   <v name="MAGPOS">      0.00000000      0.00000000      0.00000000</v>
   <i type="logical" name="LNICSALL"> T  </i>
   <i type="logical" name="ORBITALMAG"> F  </i>
   <i type="logical" name="LMAGBLOCH"> F  </i>
   <i type="logical" name="LCHIMAG"> F  </i>
   <i type="logical" name="LGAUGE"> T  </i>
   <i type="int" name="MAGATOM">     0</i>
   <v name="MAGDIPOL">      0.00000000      0.00000000      0.00000000</v>
   <v name="AVECCONST">      0.00000000      0.00000000      0.00000000</v>
  </separator>
  <separator name="response functions" >
   <i type="logical" name="LADDER"> F  </i>
   <i type="logical" name="LFXC"> F  </i>
   <i type="logical" name="LHARTREE"> T  </i>
   <i type="int" name="IBSE">     0</i>
   <v type="int" name="KPOINT">    -1     0     0     0</v>
   <i type="logical" name="LTCTE"> F  </i>
   <i type="logical" name="LTETE"> F  </i>
   <i type="logical" name="LTRIPLET"> F  </i>
   <i type="logical" name="LFXCEPS"> F  </i>
   <i type="logical" name="LFXHEG"> F  </i>
   <i type="int" name="NATURALO">     0</i>
   <i type="logical" name="L2ORDER"> F  </i>
   <i type="logical" name="LUSEW"> F  </i>
   <i name="ENCUTGW">     -2.00000000</i>
   <i name="ENCUTGWSOFT">     -2.00000000</i>
   <i name="ENCUTLF">     -1.00000000</i>
   <i type="int" name="LMAXMP2">    -1</i>
   <i name="SCISSOR">      0.00000000</i>
   <i type="int" name="NOMEGA">     0</i>
   <i type="int" name="NOMEGAR">     0</i>
   <i type="int" name="NBANDSGW">    -1</i>
   <i type="int" name="NBANDSO">    -1</i>
   <i type="int" name="NBANDSV">    -1</i>
   <i type="int" name="NELM">    70</i>
   <i type="int" name="NELMHF">     1</i>
   <i type="int" name="DIM">     3</i>
   <i type="int" name="ANTIRES">     0</i>
   <i name="OMEGAMAX">    -30.00000000</i>
   <i name="OMEGAMIN">    -30.00000000</i>
   <i name="OMEGATL">   -200.00000000</i>
   <i type="int" name="OMEGAGRID">     0</i>
   <i name="CSHIFT">     -0.10000000</i>
   <i type="logical" name="SELFENERGY"> F  </i>
   <i type="logical" name="LSPECTRAL"> F  </i>
   <i type="logical" name="LSPECTRALGW"> F  </i>
   <i type="logical" name="LSINGLES"> F  </i>
   <i type="logical" name="LFERMIGW"> F  </i>
   <i type="logical" name="ODDONLYGW"> F  </i>
   <i type="logical" name="EVENONLYGW"> F  </i>
   <i type="int" name="NKREDLFX">     1</i>
   <i type="int" name="NKREDLFY">     1</i>
   <i type="int" name="NKREDLFZ">     1</i>
   <i type="int" name="MAXMEM">  1800</i>
   <i type="int" name="TELESCOPE">     0</i>
   <i type="int" name="TAUPAR">     1</i>
   <i type="int" name="OMEGAPAR">    -1</i>
   <i name="LAMBDA">      1.00000000</i>
  </separator>
  <separator name="External order field" >
   <i name="OFIELD_KAPPA">      0.00000000</i>
   <v name="OFIELD_K">      0.00000000      0.00000000      0.00000000</v>
   <i name="OFIELD_Q6_NEAR">      0.00000000</i>
   <i name="OFIELD_Q6_FAR">      0.00000000</i>
   <i name="OFIELD_A">      0.00000000</i>
  </separator>
 </parameters>
 <atominfo>
  <atoms>      36 </atoms>
  <types>       4 </types>
  <array name="atoms" >
   <dimension dim="1">ion</dimension>
   <field type="string">element</field>
   <field type="int">atomtype</field>
   <set>
    <rc><c>Ta</c><c>   1</c></rc>
    <rc><c>Ta</c><c>   1</c></rc>
    <rc><c>Ta</c><c>   1</c></rc>
    <rc><c>Ta</c><c>   1</c></rc>
    <rc><c>Ta</c><c>   1</c></rc>
    <rc><c>Ta</c><c>   1</c></rc>
    <rc><c>Ta</c><c>   1</c></rc>
    <rc><c>Zr</c><c>   2</c></rc>
    <rc><c>Zr</c><c>   2</c></rc>
    <rc><c>Zr</c><c>   2</c></rc>
    <rc><c>Zr</c><c>   2</c></rc>
    <rc><c>Zr</c><c>   2</c></rc>
    <rc><c>Zr</c><c>   2</c></rc>
    <rc><c>Zr</c><c>   2</c></rc>
    <rc><c>Zr</c><c>   2</c></rc>
    <rc><c>Hf</c><c>   3</c></rc>
    <rc><c>Hf</c><c>   3</c></rc>
    <rc><c>Hf</c><c>   3</c></rc>
    <rc><c>Hf</c><c>   3</c></rc>
    <rc><c>Hf</c><c>   3</c></rc>
    <rc><c>Hf</c><c>   3</c></rc>
    <rc><c>Hf</c><c>   3</c></rc>
    <rc><c>Hf</c><c>   3</c></rc>
    <rc><c>Hf</c><c>   3</c></rc>
    <rc><c>Nb</c><c>   4</c></rc>
    <rc><c>Nb</c><c>   4</c></rc>
    <rc><c>Nb</c><c>   4</c></rc>
    <rc><c>Nb</c><c>   4</c></rc>
    <rc><c>Nb</c><c>   4</c></rc>
    <rc><c>Nb</c><c>   4</c></rc>
    <rc><c>Nb</c><c>   4</c></rc>
    <rc><c>Nb</c><c>   4</c></rc>
    <rc><c>Nb</c><c>   4</c></rc>
    <rc><c>Nb</c><c>   4</c></rc>
    <rc><c>Nb</c><c>   4</c></rc>
    <rc><c>Nb</c><c>   4</c></rc>
   </set>
  </array>
  <array name="atomtypes" >
   <dimension dim="1">type</dimension>
   <field type="int">atomspertype</field>
   <field type="string">element</field>
   <field>mass</field>
   <field>valence</field>
   <field type="string">pseudopotential</field>
   <set>
    <rc><c>   7</c><c>Ta</c><c>    180.94800000</c><c>      5.00000000</c><c>  PAW_PBE Ta 17Jan2003                  </c></rc>
    <rc><c>   8</c><c>Zr</c><c>     91.22400000</c><c>     12.00000000</c><c>  PAW_PBE Zr_sv 04Jan2005               </c></rc>
    <rc><c>   9</c><c>Hf</c><c>    178.49000000</c><c>      4.00000000</c><c>  PAW_PBE Hf 20Jan2003                  </c></rc>
    <rc><c>  12</c><c>Nb</c><c>     92.91000000</c><c>     13.00000000</c><c>  PAW_PBE Nb_sv 25May2007               </c></rc>
   </set>
  </array>
 </atominfo>
 <structure name="initialpos" >
  <crystal>
   <varray name="basis" >
    <v>       6.89344536       0.00559190       0.00473391 </v>
    <v>       0.00864973      10.21239746      -0.02208824 </v>
    <v>       0.00595604      -0.02297616      10.17748927 </v>
   </varray>
   <i name="volume">    716.47675466 </i>
   <varray name="rec_basis" >
    <v>       0.14506550      -0.00012305      -0.00008517 </v>
    <v>      -0.00007958       0.09792075       0.00022111 </v>
    <v>      -0.00006765       0.00021257       0.09825658 </v>
   </varray>
  </crystal>
  <varray name="positions" >
   <v>       0.26595800       0.50444000       0.16969800 </v>
   <v>       0.73069900       0.49403400       0.17781300 </v>
   <v>       0.03724200       0.00092300       0.66577500 </v>
   <v>       0.50415800       0.66535800       0.34238800 </v>
   <v>       0.76895400       0.50088000       0.49096600 </v>
   <v>       0.99603500       0.66480400       0.32444300 </v>
   <v>       0.47514100       0.01200100       0.99980500 </v>
   <v>       0.01909400       0.00773300       0.00749700 </v>
   <v>       0.76663300       0.16569200       0.49491400 </v>
   <v>       0.74843200       0.16402000       0.83254800 </v>
   <v>       0.73627900       0.16666500       0.17171500 </v>
   <v>       0.50595700       0.33801600       0.66404700 </v>
   <v>       0.75406500       0.84187900       0.82875100 </v>
   <v>       0.23057000       0.49580100       0.49687500 </v>
   <v>       0.74761400       0.49517400       0.83552400 </v>
   <v>       0.51806200       0.66241800       0.65406100 </v>
   <v>       0.25015200       0.51097300       0.83890000 </v>
   <v>       0.23516200       0.17204900       0.48575200 </v>
   <v>       0.00626900       0.33548800       0.00536100 </v>
   <v>       0.96857300       0.65932400       0.01801800 </v>
   <v>       0.26589900       0.82396400       0.16523500 </v>
   <v>       0.46894000       0.99859500       0.66071200 </v>
   <v>       0.76844300       0.83809000       0.49705900 </v>
   <v>       0.25102800       0.82014500       0.84070500 </v>
   <v>       0.26194900       0.16842500       0.17647200 </v>
   <v>       0.97772000       0.66059800       0.66402400 </v>
   <v>       0.52928600       0.65895300       0.00757300 </v>
   <v>       0.00558100       0.98983300       0.32287900 </v>
   <v>       0.49659100       0.99122100       0.33392100 </v>
   <v>       0.73517600       0.83465200       0.18047200 </v>
   <v>       0.49879600       0.34284600       0.33164300 </v>
   <v>       0.00086700       0.34265900       0.31261200 </v>
   <v>       0.99604600       0.33479800       0.68378100 </v>
   <v>       0.23776000       0.83286000       0.48714500 </v>
   <v>       0.49043300       0.33106000       0.99907100 </v>
   <v>       0.25042600       0.17363600       0.83183900 </v>
  </varray>
 </structure>
 <calculation>
  <scstep>
   <time name="dav">    1.32    1.34</time>
   <time name="total">    1.48    1.82</time>
   <energy>
    <i name="alphaZ">   1704.48251506 </i>
    <i name="ewald"> -23316.85392129 </i>
    <i name="hartreedc">  -7950.67019611 </i>
    <i name="XCdc">    137.87724270 </i>
    <i name="pawpsdc">  25274.97431070 </i>
    <i name="pawaedc"> -23848.60840862 </i>
    <i name="eentropy">     -0.00189174 </i>
    <i name="bandstr">   -267.65975190 </i>
    <i name="atom">  30532.41386844 </i>
    <i name="e_fr_energy">   2265.95376724 </i>
    <i name="e_wo_entrp">   2265.95565899 </i>
    <i name="e_0_energy">   2265.95439782 </i>
   </energy>
  </scstep>
  <scstep>
   <time name="dav">    1.22    1.25</time>
   <time name="total">    1.22    1.41</time>
   <energy>
    <i name="e_fr_energy">    -59.62155484 </i>
    <i name="e_wo_entrp">    -59.61640794 </i>
    <i name="e_0_energy">    -59.61983921 </i>
   </energy>
  </scstep>
  <scstep>
   <time name="dav">    1.59    1.68</time>
   <time name="total">    1.59    1.72</time>
   <energy>
    <i name="e_fr_energy">   -339.17992869 </i>
    <i name="e_wo_entrp">   -339.17748769 </i>
    <i name="e_0_energy">   -339.17911503 </i>
   </energy>
  </scstep>
  <scstep>
   <time name="dav">    1.67    1.77</time>
   <time name="total">    1.67    1.81</time>
   <energy>
    <i name="e_fr_energy">   -371.13119937 </i>
    <i name="e_wo_entrp">   -371.13066795 </i>
    <i name="e_0_energy">   -371.13102223 </i>
   </energy>
  </scstep>
  <scstep>
   <time name="dav">    1.62    1.67</time>
   <time name="total">    1.66    1.75</time>
   <energy>
    <i name="e_fr_energy">   -374.30836721 </i>
    <i name="e_wo_entrp">   -374.31113539 </i>
    <i name="e_0_energy">   -374.30928993 </i>
   </energy>
  </scstep>
  <scstep>
   <time name="diag">    0.19    0.20</time>
   <time name="diis">    0.80    0.83</time>
   <time name="orth">    0.01    0.01</time>
   <time name="total">    1.09    1.19</time>
   <energy>
    <i name="e_fr_energy">   -363.76299393 </i>
    <i name="e_wo_entrp">   -363.77131655 </i>
    <i name="e_0_energy">   -363.76576814 </i>
   </energy>
  </scstep>
  <scstep>
   <time name="diag">    0.11    0.11</time>
   <time name="diis">    0.83    0.86</time>
   <time name="orth">    0.01    0.01</time>
   <time name="total">    1.02    1.10</time>
   <energy>
    <i name="e_fr_energy">   -363.99447413 </i>
    <i name="e_wo_entrp">   -363.99541907 </i>
    <i name="e_0_energy">   -363.99478911 </i>
   </energy>
  </scstep>
  <scstep>
   <time name="diag">    0.12    0.12</time>
   <time name="diis">    0.93    0.98</time>
   <time name="orth">    0.01    0.02</time>
   <time name="total">    1.13    1.22</time>
   <energy>
    <i name="e_fr_energy">   -360.05657049 </i>
    <i name="e_wo_entrp">   -360.07021985 </i>
    <i name="e_0_energy">   -360.06112028 </i>
   </energy>
  </scstep>
  <scstep>
   <time name="diag">    0.09    0.10</time>
   <time name="diis">    0.92    0.96</time>
   <time name="orth">    0.01    0.02</time>
   <time name="total">    1.11    1.24</time>
   <energy>
    <i name="e_fr_energy">   -359.81859984 </i>
    <i name="e_wo_entrp">   -359.83477120 </i>
    <i name="e_0_energy">   -359.82399030 </i>
   </energy>
  </scstep>
  <scstep>
   <time name="diag">    0.09    0.10</time>
   <time name="diis">    1.06    1.10</time>
   <time name="orth">    0.01    0.02</time>
   <time name="total">    1.24    1.33</time>
   <energy>
    <i name="e_fr_energy">   -359.78474002 </i>
    <i name="e_wo_entrp">   -359.80065096 </i>
    <i name="e_0_energy">   -359.79004366 </i>
   </energy>
  </scstep>
  <scstep>
   <time name="diag">    0.10    0.10</time>
   <time name="diis">    0.95    0.97</time>
   <time name="orth">    0.02    0.03</time>
   <time name="total">    1.16    1.24</time>
   <energy>
    <i name="e_fr_energy">   -359.74397866 </i>
    <i name="e_wo_entrp">   -359.75965346 </i>
    <i name="e_0_energy">   -359.74920360 </i>
   </energy>
  </scstep>
  <scstep>
   <time name="diag">    0.10    0.11</time>
   <time name="diis">    1.03    1.05</time>
   <time name="orth">    0.01    0.01</time>
   <time name="total">    1.23    1.31</time>
   <energy>
    <i name="e_fr_energy">   -359.73975763 </i>
    <i name="e_wo_entrp">   -359.75532924 </i>
    <i name="e_0_energy">   -359.74494816 </i>
   </energy>
  </scstep>
  <scstep>
   <time name="diag">    0.10    0.10</time>
   <time name="diis">    0.94    0.97</time>
   <time name="orth">    0.01    0.01</time>
   <time name="total">    1.13    1.20</time>
   <energy>
    <i name="e_fr_energy">   -359.73655824 </i>
    <i name="e_wo_entrp">   -359.75238053 </i>
    <i name="e_0_energy">   -359.74183234 </i>
   </energy>
  </scstep>
  <scstep>
   <time name="diag">    0.10    0.10</time>
   <time name="diis">    0.91    0.94</time>
   <time name="orth">    0.01    0.02</time>
   <time name="total">    1.09    1.16</time>
   <energy>
    <i name="e_fr_energy">   -359.73634862 </i>
    <i name="e_wo_entrp">   -359.75222630 </i>
    <i name="e_0_energy">   -359.74164118 </i>
   </energy>
  </scstep>
  <scstep>
   <time name="diag">    0.10    0.10</time>
   <time name="diis">    0.92    0.93</time>
   <time name="orth">    0.02    0.02</time>
   <time name="total">    1.16    1.21</time>
   <energy>
    <i name="e_fr_energy">   -359.73650341 </i>
    <i name="e_wo_entrp">   -359.75240849 </i>
    <i name="e_0_energy">   -359.74180511 </i>
   </energy>
  </scstep>
  <scstep>
   <time name="diag">    0.11    0.11</time>
   <time name="diis">    0.83    0.85</time>
   <time name="orth">    0.01    0.02</time>
   <time name="total">    1.24    1.32</time>
   <energy>
    <i name="e_fr_energy">   -359.73653836 </i>
    <i name="e_wo_entrp">   -359.75247113 </i>
    <i name="e_0_energy">   -359.74184928 </i>
   </energy>
  </scstep>
  <scstep>
   <time name="diag">    0.09    0.15</time>
   <time name="diis">    0.69    0.73</time>
   <time name="orth">    0.01    0.01</time>
   <time name="total">    0.87    1.01</time>
   <energy>
    <i name="e_fr_energy">   -359.73652713 </i>
    <i name="e_wo_entrp">   -359.75242766 </i>
    <i name="e_0_energy">   -359.74182730 </i>
   </energy>
  </scstep>
  <scstep>
   <time name="diag">    0.16    0.16</time>
   <time name="diis">    0.68    0.71</time>
   <time name="orth">    0.01    0.01</time>
   <time name="total">    0.92    1.00</time>
   <energy>
    <i name="e_fr_energy">   -359.73653147 </i>
    <i name="e_wo_entrp">   -359.75243071 </i>
    <i name="e_0_energy">   -359.74183121 </i>
   </energy>
  </scstep>
  <scstep>
   <time name="diag">    0.11    0.12</time>
   <time name="diis">    0.53    0.56</time>
   <time name="orth">    0.01    0.02</time>
   <time name="total">    0.70    0.77</time>
   <energy>
    <i name="alphaZ">   1704.48251506 </i>
    <i name="ewald"> -23316.85392129 </i>
    <i name="hartreedc">  -7677.46405546 </i>
    <i name="XCdc">    133.04988476 </i>
    <i name="pawpsdc">  37934.76171615 </i>
    <i name="pawaedc"> -36477.12054592 </i>
    <i name="eentropy">      0.01589676 </i>
    <i name="bandstr">  -3193.02189537 </i>
    <i name="atom">  30532.41386844 </i>
    <i name="e_fr_energy">   -359.73653687 </i>
    <i name="e_wo_entrp">   -359.75243362 </i>
    <i name="e_0_energy">   -359.74183579 </i>
   </energy>
  </scstep>
  <structure>
   <crystal>
    <varray name="basis" >
     <v>       6.89344536       0.00559190       0.00473391 </v>
     <v>       0.00864973      10.21239746      -0.02208824 </v>
     <v>       0.00595604      -0.02297616      10.17748927 </v>
    </varray>
    <i name="volume">    716.47675466 </i>
    <varray name="rec_basis" >
     <v>       0.14506550      -0.00012305      -0.00008517 </v>
     <v>      -0.00007958       0.09792075       0.00022111 </v>
     <v>      -0.00006765       0.00021257       0.09825658 </v>
    </varray>
   </crystal>
   <varray name="positions" >
    <v>       0.26595800       0.50444000       0.16969800 </v>
    <v>       0.73069900       0.49403400       0.17781300 </v>
    <v>       0.03724200       0.00092300       0.66577500 </v>
    <v>       0.50415800       0.66535800       0.34238800 </v>
    <v>       0.76895400       0.50088000       0.49096600 </v>
    <v>       0.99603500       0.66480400       0.32444300 </v>
    <v>       0.47514100       0.01200100       0.99980500 </v>
    <v>       0.01909400       0.00773300       0.00749700 </v>
    <v>       0.76663300       0.16569200       0.49491400 </v>
    <v>       0.74843200       0.16402000       0.83254800 </v>
    <v>       0.73627900       0.16666500       0.17171500 </v>
    <v>       0.50595700       0.33801600       0.66404700 </v>
    <v>       0.75406500       0.84187900       0.82875100 </v>
    <v>       0.23057000       0.49580100       0.49687500 </v>
    <v>       0.74761400       0.49517400       0.83552400 </v>
    <v>       0.51806200       0.66241800       0.65406100 </v>
    <v>       0.25015200       0.51097300       0.83890000 </v>
    <v>       0.23516200       0.17204900       0.48575200 </v>
    <v>       0.00626900       0.33548800       0.00536100 </v>
    <v>       0.96857300       0.65932400       0.01801800 </v>
    <v>       0.26589900       0.82396400       0.16523500 </v>
    <v>       0.46894000       0.99859500       0.66071200 </v>
    <v>       0.76844300       0.83809000       0.49705900 </v>
    <v>       0.25102800       0.82014500       0.84070500 </v>
    <v>       0.26194900       0.16842500       0.17647200 </v>
    <v>       0.97772000       0.66059800       0.66402400 </v>
    <v>       0.52928600       0.65895300       0.00757300 </v>
    <v>       0.00558100       0.98983300       0.32287900 </v>
    <v>       0.49659100       0.99122100       0.33392100 </v>
    <v>       0.73517600       0.83465200       0.18047200 </v>
    <v>       0.49879600       0.34284600       0.33164300 </v>
    <v>       0.00086700       0.34265900       0.31261200 </v>
    <v>       0.99604600       0.33479800       0.68378100 </v>
    <v>       0.23776000       0.83286000       0.48714500 </v>
    <v>       0.49043300       0.33106000       0.99907100 </v>
    <v>       0.25042600       0.17363600       0.83183900 </v>
   </varray>
  </structure>
  <varray name="forces" >
   <v>       0.01087894      -0.00054056      -0.00949130 </v>
   <v>       0.01316876       0.02863625       0.04485425 </v>
   <v>      -0.00225263       0.01287801       0.00231167 </v>
   <v>      -0.01871266       0.00801259      -0.00568031 </v>
   <v>      -0.02689229      -0.00765072      -0.09080016 </v>
   <v>       0.01565446       0.00800191      -0.00814131 </v>
   <v>       0.00233248       0.01914528       0.02082696 </v>
   <v>      -0.00261975      -0.00168988      -0.00688107 </v>
   <v>      -0.00842114       0.02272623       0.02945142 </v>
   <v>      -0.01683868      -0.16158163       0.03018477 </v>
   <v>       0.00777592       0.03510984      -0.02945719 </v>
   <v>      -0.23664716      -0.21375108      -0.28357693 </v>
   <v>       0.00346709       0.11028576      -0.00394215 </v>
   <v>      -0.00534447      -0.00201705       0.03898885 </v>
   <v>      -0.06906127      -0.07364708      -0.00578626 </v>
   <v>      -0.18068986       0.26587261      -0.32466115 </v>
   <v>      -0.02909984       0.02129987      -0.01160487 </v>
   <v>       0.00417740       0.00374025       0.04241511 </v>
   <v>       0.27212982      -0.21326565       0.24604297 </v>
   <v>       0.16989370       0.27909035       0.35501623 </v>
   <v>       0.00674716      -0.00252170      -0.02580006 </v>
   <v>       0.02138068       0.01234154       0.00302977 </v>
   <v>       0.00852064      -0.01604049       0.02797378 </v>
   <v>      -0.00179374      -0.07008446      -0.01512701 </v>
   <v>      -0.00291455       0.01509862      -0.03782494 </v>
   <v>       0.19493772       0.30120324      -0.36045834 </v>
   <v>      -0.16573320       0.28521699       0.39809338 </v>
   <v>       0.01369980       0.00505753      -0.00276137 </v>
   <v>      -0.01090981      -0.00337250       0.00015980 </v>
   <v>      -0.00568675      -0.03958900      -0.04641166 </v>
   <v>      -0.02265607       0.00554907       0.03033934 </v>
   <v>       0.03988051      -0.01111027      -0.01372615 </v>
   <v>       0.33563144      -0.32537827      -0.25703311 </v>
   <v>      -0.00474941      -0.03386640       0.04773498 </v>
   <v>      -0.32280676      -0.28506214       0.25204188 </v>
   <v>       0.01355352       0.02190295      -0.03029985 </v>
  </varray>
  <varray name="stress" >
   <v>       7.67803918       0.04000917      -0.11026510 </v>
   <v>       0.04000917       8.17773222       0.07231404 </v>
   <v>      -0.11026503       0.07231406       8.36396797 </v>
  </varray>
  <energy>
   <i name="e_fr_energy">   -359.73653687 </i>
   <i name="e_wo_entrp">   -359.74183579 </i>
   <i name="e_0_energy">      0.01589676 </i>
  </energy>
  <time name="totalsc">   24.76   27.01</time>
 </calculation>
 <calculation>
  <scstep>
   <time name="dav">    1.81    1.89</time>
   <time name="total">    1.95    2.21</time>
   <energy>
    <i name="alphaZ">   1697.08231329 </i>
    <i name="ewald"> -23284.73861513 </i>
    <i name="hartreedc">  -7664.82600215 </i>
    <i name="XCdc">    131.51373534 </i>
    <i name="pawpsdc">  37935.06862997 </i>
    <i name="pawaedc"> -36477.42100614 </i>
    <i name="eentropy">      0.01579228 </i>
    <i name="bandstr">  -3228.92648125 </i>
    <i name="atom">  30532.41386844 </i>
    <i name="e_fr_energy">   -359.81776534 </i>
    <i name="e_wo_entrp">   -359.83355763 </i>
    <i name="e_0_energy">   -359.82302944 </i>
   </energy>
  </scstep>
  <scstep>
   <time name="diag">    0.10    0.10</time>
   <time name="diis">    0.85    0.89</time>
   <time name="orth">    0.01    0.02</time>
   <time name="total">    1.03    1.11</time>
   <energy>
    <i name="e_fr_energy">   -359.79906232 </i>
    <i name="e_wo_entrp">   -359.81561379 </i>
    <i name="e_0_energy">   -359.80457948 </i>
   </energy>
  </scstep>
  <scstep>
   <time name="diag">    0.09    0.10</time>
   <time name="diis">    0.92    0.95</time>
   <time name="orth">    0.01    0.01</time>
   <time name="total">    1.10    1.18</time>
   <energy>
    <i name="e_fr_energy">   -359.78078529 </i>
    <i name="e_wo_entrp">   -359.79638886 </i>
    <i name="e_0_energy">   -359.78598648 </i>
   </energy>
  </scstep>
  <scstep>
   <time name="diag">    0.09    0.10</time>
   <time name="diis">    0.96    1.01</time>
   <time name="orth">    0.01    0.02</time>
   <time name="total">    1.14    1.23</time>
   <energy>
    <i name="e_fr_energy">   -359.77487098 </i>
    <i name="e_wo_entrp">   -359.79070434 </i>
    <i name="e_0_energy">   -359.78014877 </i>
   </energy>
  </scstep>
  <scstep>
   <time name="diag">    0.12    0.12</time>
   <time name="diis">    0.89    0.94</time>
   <time name="orth">    0.01    0.01</time>
   <time name="total">    1.11    1.20</time>
   <energy>
    <i name="e_fr_energy">   -359.77286301 </i>
    <i name="e_wo_entrp">   -359.78864242 </i>
    <i name="e_0_energy">   -359.77812281 </i>
   </energy>
  </scstep>
  <scstep>
   <time name="diag">    0.10    0.10</time>
   <time name="diis">    0.85    0.99</time>
   <time name="orth">    0.01    0.02</time>
   <time name="total">    1.07    1.25</time>
   <energy>
    <i name="e_fr_energy">   -359.77300829 </i>
    <i name="e_wo_entrp">   -359.78880509 </i>
    <i name="e_0_energy">   -359.77827389 </i>
   </energy>
  </scstep>
  <scstep>
   <time name="diag">    0.47    0.48</time>
   <time name="diis">    0.97    1.01</time>
   <time name="orth">    0.01    0.02</time>
   <time name="total">    1.52    1.62</time>
   <energy>
    <i name="e_fr_energy">   -359.77298958 </i>
    <i name="e_wo_entrp">   -359.78880872 </i>
    <i name="e_0_energy">   -359.77826262 </i>
   </energy>
  </scstep>
  <scstep>
   <time name="diag">    0.14    0.15</time>
   <time name="diis">    0.99    1.03</time>
   <time name="orth">    0.01    0.02</time>
   <time name="total">    1.22    1.31</time>
   <energy>
    <i name="e_fr_energy">   -359.77301856 </i>
    <i name="e_wo_entrp">   -359.78881118 </i>
    <i name="e_0_energy">   -359.77828277 </i>
   </energy>
  </scstep>
  <scstep>
   <time name="diag">    0.10    0.10</time>
   <time name="diis">    0.76    0.78</time>
   <time name="orth">    0.01    0.01</time>
   <time name="total">    0.95    1.01</time>
   <energy>
    <i name="e_fr_energy">   -359.77304616 </i>
    <i name="e_wo_entrp">   -359.78883805 </i>
    <i name="e_0_energy">   -359.77831012 </i>
   </energy>
  </scstep>
  <scstep>
   <time name="diag">    0.11    0.11</time>
   <time name="diis">    0.68    0.71</time>
   <time name="orth">    0.02    0.02</time>
   <time name="total">    0.88    0.99</time>
   <energy>
    <i name="e_fr_energy">   -359.77307426 </i>
    <i name="e_wo_entrp">   -359.78886679 </i>
    <i name="e_0_energy">   -359.77833844 </i>
   </energy>
  </scstep>
  <scstep>
   <time name="diag">    0.11    0.11</time>
   <time name="diis">    0.55    0.57</time>
   <time name="orth">    0.02    0.02</time>
   <time name="total">    0.71    0.76</time>
   <energy>
    <i name="alphaZ">   1697.08231329 </i>
    <i name="ewald"> -23284.73861513 </i>
    <i name="hartreedc">  -7686.18544176 </i>
    <i name="XCdc">    132.48040886 </i>
    <i name="pawpsdc">  37724.29092837 </i>
    <i name="pawaedc"> -36267.00973036 </i>
    <i name="eentropy">      0.01579252 </i>
    <i name="bandstr">  -3208.12259654 </i>
    <i name="atom">  30532.41386844 </i>
    <i name="e_fr_energy">   -359.77307231 </i>
    <i name="e_wo_entrp">   -359.78886483 </i>
    <i name="e_0_energy">   -359.77833649 </i>
   </energy>
  </scstep>
  <structure>
   <crystal>
    <varray name="basis" >
     <v>       6.90296073       0.00564976       0.00460445 </v>
     <v>       0.00873556      10.22741143      -0.02198885 </v>
     <v>       0.00576235      -0.02287758      10.19279248 </v>
    </varray>
    <i name="volume">    719.60098294 </i>
    <varray name="rec_basis" >
     <v>       0.14486553      -0.00012391      -0.00008218 </v>
     <v>      -0.00008017       0.09777699       0.00021950 </v>
     <v>      -0.00006561       0.00021099       0.09810905 </v>
    </varray>
   </crystal>
   <varray name="positions" >
    <v>       0.26598085       0.50443919       0.16968449 </v>
    <v>       0.73072654       0.49407471       0.17787686 </v>
    <v>       0.03723724       0.00094126       0.66577833 </v>
    <v>       0.50411871       0.66536936       0.34237997 </v>
    <v>       0.76889767       0.50086890       0.49083688 </v>
    <v>       0.99606786       0.66481530       0.32443143 </v>
    <v>       0.47514584       0.01202820       0.99983467 </v>
    <v>       0.01908851       0.00773059       0.00748721 </v>
    <v>       0.76661524       0.16572431       0.49495596 </v>
    <v>       0.74839690       0.16379112       0.83259044 </v>
    <v>       0.73629530       0.16671465       0.17167321 </v>
    <v>       0.50546089       0.33771244       0.66364331 </v>
    <v>       0.75407209       0.84203528       0.82874573 </v>
    <v>       0.23055873       0.49579827       0.49693044 </v>
    <v>       0.74746914       0.49506969       0.83551561 </v>
    <v>       0.51768257       0.66279396       0.65360031 </v>
    <v>       0.25009088       0.51100318       0.83888359 </v>
    <v>       0.23517071       0.17205443       0.48581232 </v>
    <v>       0.00684041       0.33518624       0.00570996 </v>
    <v>       0.96892876       0.65972046       0.01852354 </v>
    <v>       0.26591320       0.82396034       0.16519830 </v>
    <v>       0.46898486       0.99861248       0.66071633 </v>
    <v>       0.76846088       0.83806735       0.49709872 </v>
    <v>       0.25102438       0.82004563       0.84068327 </v>
    <v>       0.26194290       0.16844628       0.17641826 </v>
    <v>       0.97812918       0.66102348       0.66351215 </v>
    <v>       0.52893704       0.65935867       0.00814015 </v>
    <v>       0.00560976       0.98984014       0.32287508 </v>
    <v>       0.49656810       0.99121623       0.33392123 </v>
    <v>       0.73516419       0.83459575       0.18040588 </v>
    <v>       0.49874839       0.34285399       0.33168618 </v>
    <v>       0.00095077       0.34264316       0.31259241 </v>
    <v>       0.99675156       0.33433567       0.68341416 </v>
    <v>       0.23775003       0.83281216       0.48721278 </v>
    <v>       0.48975546       0.33065719       0.99942885 </v>
    <v>       0.25045445       0.17366693       0.83179597 </v>
   </varray>
  </structure>
  <varray name="forces" >
   <v>       0.01793216      -0.00232603       0.01065085 </v>
   <v>       0.00654219       0.02738113       0.04626565 </v>
   <v>       0.01090976       0.01167401       0.00583307 </v>
   <v>      -0.01478328       0.00111026      -0.00992896 </v>
   <v>      -0.01213243       0.00673575      -0.08565036 </v>
   <v>       0.00907018      -0.00138851      -0.00861825 </v>
   <v>      -0.01077617       0.02667127       0.01393814 </v>
   <v>       0.00559955      -0.00189715      -0.00928042 </v>
   <v>       0.00081426       0.01353264       0.01487428 </v>
   <v>      -0.01134924      -0.13712995       0.02982116 </v>
   <v>       0.00185220       0.03052837      -0.01958494 </v>
   <v>      -0.21369429      -0.19237491      -0.25170611 </v>
   <v>       0.00515206       0.08840026      -0.00849961 </v>
   <v>      -0.01814200      -0.00103866       0.02000924 </v>
   <v>      -0.05795162      -0.05053067      -0.00162060 </v>
   <v>      -0.15094407       0.23512576      -0.29944864 </v>
   <v>      -0.02386118       0.01784458      -0.01015351 </v>
   <v>      -0.00442395      -0.00746113       0.02713872 </v>
   <v>       0.25172312      -0.18332928       0.21531726 </v>
   <v>       0.12554457       0.23467176       0.32581668 </v>
   <v>       0.01586529       0.01136728      -0.00651286 </v>
   <v>       0.00811264       0.01109830       0.00969935 </v>
   <v>       0.01593743      -0.00433037       0.00856233 </v>
   <v>      -0.00016141      -0.05841336      -0.01282929 </v>
   <v>       0.00591997       0.00384780      -0.02587196 </v>
   <v>       0.16342504       0.26537595      -0.32785067 </v>
   <v>      -0.12925842       0.24411314       0.36185869 </v>
   <v>       0.01128787      -0.00232998      -0.00148758 </v>
   <v>      -0.00589760      -0.01283716      -0.00749937 </v>
   <v>      -0.01565289      -0.02999835      -0.01980902 </v>
   <v>      -0.01642756       0.02009974       0.02125427 </v>
   <v>       0.03168336       0.00458907      -0.02037397 </v>
   <v>       0.30372240      -0.29795718      -0.22231119 </v>
   <v>      -0.01390247      -0.01973904       0.03075308 </v>
   <v>      -0.30188844      -0.25886324       0.23521818 </v>
   <v>       0.01015297       0.00777787      -0.02797365 </v>
  </varray>
  <varray name="stress" >
   <v>       1.70744054       0.02894605      -0.09455280 </v>
   <v>       0.02894605       2.11257205       0.06987283 </v>
   <v>      -0.09455280       0.06987282       2.20478644 </v>
  </varray>
  <energy>
   <i name="e_fr_energy">   -359.77307231 </i>
   <i name="e_wo_entrp">   -359.77833649 </i>
   <i name="e_0_energy">      0.01579252 </i>
  </energy>
  <time name="totalsc">   14.54   15.95</time>
 </calculation>
 <calculation>
  <scstep>
   <time name="dav">    1.29    1.36</time>
   <time name="total">    1.47    1.75</time>
   <energy>
    <i name="alphaZ">   1682.81054840 </i>
    <i name="ewald"> -23221.82756414 </i>
    <i name="hartreedc">  -7662.25946989 </i>
    <i name="XCdc">    129.50438792 </i>
    <i name="pawpsdc">  37724.72891700 </i>
    <i name="pawaedc"> -36267.49159419 </i>
    <i name="eentropy">      0.01534914 </i>
    <i name="bandstr">  -3277.86637836 </i>
    <i name="atom">  30532.41386844 </i>
    <i name="e_fr_energy">   -359.97193567 </i>
    <i name="e_wo_entrp">   -359.98728481 </i>
    <i name="e_0_energy">   -359.97705205 </i>
   </energy>
  </scstep>
  <scstep>
   <time name="diag">    0.09    0.09</time>
   <time name="diis">    0.85    0.88</time>
   <time name="orth">    0.03    0.03</time>
   <time name="total">    1.04    1.14</time>
   <energy>
    <i name="e_fr_energy">   -359.90108240 </i>
    <i name="e_wo_entrp">   -359.91855951 </i>
    <i name="e_0_energy">   -359.90690810 </i>
   </energy>
  </scstep>
  <scstep>
   <time name="diag">    0.09    0.09</time>
   <time name="diis">    0.86    0.89</time>
   <time name="orth">    0.01    0.01</time>
   <time name="total">    1.04    1.12</time>
   <energy>
    <i name="e_fr_energy">   -359.82929846 </i>
    <i name="e_wo_entrp">   -359.84442739 </i>
    <i name="e_0_energy">   -359.83434143 </i>
   </energy>
  </scstep>
  <scstep>
   <time name="diag">    0.09    0.09</time>
   <time name="diis">    0.86    0.91</time>
   <time name="orth">    0.01    0.02</time>
   <time name="total">    1.04    1.13</time>
   <energy>
    <i name="e_fr_energy">   -359.80771168 </i>
    <i name="e_wo_entrp">   -359.82341949 </i>
    <i name="e_0_energy">   -359.81294762 </i>
   </energy>
  </scstep>
  <scstep>
   <time name="diag">    0.09    0.10</time>
   <time name="diis">    0.84    0.88</time>
   <time name="orth">    0.01    0.01</time>
   <time name="total">    1.01    1.10</time>
   <energy>
    <i name="e_fr_energy">   -359.79986571 </i>
    <i name="e_wo_entrp">   -359.81545217 </i>
    <i name="e_0_energy">   -359.80506119 </i>
   </energy>
  </scstep>
  <scstep>
   <time name="diag">    0.09    0.10</time>
   <time name="diis">    0.95    1.00</time>
   <time name="orth">    0.01    0.01</time>
   <time name="total">    1.13    1.22</time>
   <energy>
    <i name="e_fr_energy">   -359.80047938 </i>
    <i name="e_wo_entrp">   -359.81612976 </i>
    <i name="e_0_energy">   -359.80569617 </i>
   </energy>
  </scstep>
  <scstep>
   <time name="diag">    0.11    0.11</time>
   <time name="diis">    0.98    1.02</time>
   <time name="orth">    0.01    0.02</time>
   <time name="total">    1.17    1.26</time>
   <energy>
    <i name="e_fr_energy">   -359.80052979 </i>
    <i name="e_wo_entrp">   -359.81622985 </i>
    <i name="e_0_energy">   -359.80576314 </i>
   </energy>
  </scstep>
  <scstep>
   <time name="diag">    0.11    0.12</time>
   <time name="diis">    0.97    1.04</time>
   <time name="orth">    0.01    0.01</time>
   <time name="total">    1.16    1.28</time>
   <energy>
    <i name="e_fr_energy">   -359.80067994 </i>
    <i name="e_wo_entrp">   -359.81630220 </i>
    <i name="e_0_energy">   -359.80588736 </i>
   </energy>
  </scstep>
  <scstep>
   <time name="diag">    0.14    0.14</time>
   <time name="diis">    0.92    0.97</time>
   <time name="orth">    0.01    0.01</time>
   <time name="total">    1.16    1.25</time>
   <energy>
    <i name="e_fr_energy">   -359.80081809 </i>
    <i name="e_wo_entrp">   -359.81644606 </i>
    <i name="e_0_energy">   -359.80602741 </i>
   </energy>
  </scstep>
  <scstep>
   <time name="diag">    0.09    0.09</time>
   <time name="diis">    0.92    0.94</time>
   <time name="orth">    0.01    0.01</time>
   <time name="total">    1.10    1.17</time>
   <energy>
    <i name="e_fr_energy">   -359.80098867 </i>
    <i name="e_wo_entrp">   -359.81661649 </i>
    <i name="e_0_energy">   -359.80619794 </i>
   </energy>
  </scstep>
  <scstep>
   <time name="diag">    0.14    0.14</time>
   <time name="diis">    0.77    0.84</time>
   <time name="orth">    0.01    0.01</time>
   <time name="total">    0.99    1.11</time>
   <energy>
    <i name="e_fr_energy">   -359.80101572 </i>
    <i name="e_wo_entrp">   -359.81664394 </i>
    <i name="e_0_energy">   -359.80622512 </i>
   </energy>
  </scstep>
  <scstep>
   <time name="diag">    0.10    0.10</time>
   <time name="diis">    0.70    0.73</time>
   <time name="orth">    0.01    0.02</time>
   <time name="total">    0.88    0.95</time>
   <energy>
    <i name="e_fr_energy">   -359.80101479 </i>
    <i name="e_wo_entrp">   -359.81664027 </i>
    <i name="e_0_energy">   -359.80622328 </i>
   </energy>
  </scstep>
  <scstep>
   <time name="diag">    0.09    0.10</time>
   <time name="diis">    0.53    0.55</time>
   <time name="orth">    0.01    0.01</time>
   <time name="total">    0.67    0.73</time>
   <energy>
    <i name="alphaZ">   1682.81054840 </i>
    <i name="ewald"> -23221.82756414 </i>
    <i name="hartreedc">  -7703.53507658 </i>
    <i name="XCdc">    131.37325436 </i>
    <i name="pawpsdc">  37324.76116729 </i>
    <i name="pawaedc"> -35868.54522379 </i>
    <i name="eentropy">      0.01562642 </i>
    <i name="bandstr">  -3237.26761443 </i>
    <i name="atom">  30532.41386844 </i>
    <i name="e_fr_energy">   -359.80101403 </i>
    <i name="e_wo_entrp">   -359.81664045 </i>
    <i name="e_0_energy">   -359.80622284 </i>
   </energy>
  </scstep>
  <structure>
   <crystal>
    <varray name="basis" >
     <v>       6.92146897       0.00576232       0.00435263 </v>
     <v>       0.00890252      10.25661494      -0.02179555 </v>
     <v>       0.00538559      -0.02268584      10.22255860 </v>
    </varray>
    <i name="volume">    725.70385414 </i>
    <varray name="rec_basis" >
     <v>       0.14447815      -0.00012557      -0.00007639 </v>
     <v>      -0.00008131       0.09749858       0.00021641 </v>
     <v>      -0.00006169       0.00020793       0.09782336 </v>
    </varray>
   </crystal>
   <varray name="positions" >
    <v>       0.26602524       0.50443762       0.16965825 </v>
    <v>       0.73078004       0.49415378       0.17800089 </v>
    <v>       0.03722801       0.00097673       0.66578479 </v>
    <v>       0.50404238       0.66539142       0.34236436 </v>
    <v>       0.76878823       0.50084734       0.49058611 </v>
    <v>       0.99613169       0.66483724       0.32440897 </v>
    <v>       0.47515523       0.01208102       0.99989230 </v>
    <v>       0.01907785       0.00772590       0.00746820 </v>
    <v>       0.76658075       0.16578707       0.49503745 </v>
    <v>       0.74832872       0.16334659       0.83267288 </v>
    <v>       0.73632696       0.16681109       0.17159205 </v>
    <v>       0.50449722       0.33712287       0.66285928 </v>
    <v>       0.75408585       0.84233881       0.82873549 </v>
    <v>       0.23053686       0.49579297       0.49703812 </v>
    <v>       0.74718778       0.49486710       0.83549932 </v>
    <v>       0.51694552       0.66352418       0.65270556 </v>
    <v>       0.24997216       0.51106180       0.83885172 </v>
    <v>       0.23518764       0.17206498       0.48592948 </v>
    <v>       0.00795036       0.33460013       0.00638773 </v>
    <v>       0.96961981       0.66049047       0.01950539 </v>
    <v>       0.26594079       0.82395322       0.16512701 </v>
    <v>       0.46907201       0.99864642       0.66072473 </v>
    <v>       0.76849562       0.83802335       0.49717587 </v>
    <v>       0.25101734       0.81985263       0.84064108 </v>
    <v>       0.26193105       0.16848761       0.17631389 </v>
    <v>       0.97892394       0.66184988       0.66251804 </v>
    <v>       0.52825925       0.66014657       0.00924162 </v>
    <v>       0.00566561       0.98985402       0.32286745 </v>
    <v>       0.49652362       0.99120698       0.33392167 </v>
    <v>       0.73514124       0.83448651       0.18027748 </v>
    <v>       0.49865590       0.34286950       0.33177005 </v>
    <v>       0.00111347       0.34261241       0.31255436 </v>
    <v>       0.99812202       0.33343772       0.68270172 </v>
    <v>       0.23773067       0.83271925       0.48734443 </v>
    <v>       0.48843944       0.32987484       0.00012386 </v>
    <v>       0.25050972       0.17372700       0.83171239 </v>
   </varray>
  </structure>
  <varray name="forces" >
   <v>       0.02859608      -0.00532755       0.05026243 </v>
   <v>      -0.00322364       0.02685921       0.05235930 </v>
   <v>       0.03366083       0.00920387       0.01312422 </v>
   <v>      -0.00661913      -0.01294959      -0.01853842 </v>
   <v>       0.01287216       0.03432977      -0.07992389 </v>
   <v>      -0.00396919      -0.02005089      -0.00944793 </v>
   <v>      -0.03408977       0.04050065       0.00107769 </v>
   <v>       0.02146603      -0.00243849      -0.01359255 </v>
   <v>       0.01861033      -0.00341372      -0.01386671 </v>
   <v>      -0.00122607      -0.09126551       0.02742358 </v>
   <v>      -0.00992029       0.02318139       0.00003913 </v>
   <v>      -0.17155830      -0.15184146      -0.19166452 </v>
   <v>       0.00822715       0.04681663      -0.01792020 </v>
   <v>      -0.04087533      -0.00007185      -0.01726155 </v>
   <v>      -0.03678029      -0.00701656       0.00591590 </v>
   <v>      -0.09629344       0.17661280      -0.25452119 </v>
   <v>      -0.01534426       0.01071733      -0.00638327 </v>
   <v>      -0.02162760      -0.02720871      -0.00150924 </v>
   <v>       0.21381560      -0.12602242       0.15964041 </v>
   <v>       0.04406795       0.15033354       0.27205908 </v>
   <v>       0.03192628       0.03735596       0.03087211 </v>
   <v>      -0.01719547       0.00747921       0.02223436 </v>
   <v>       0.02979018       0.01682632      -0.02866156 </v>
   <v>       0.00242252      -0.03542958      -0.00821986 </v>
   <v>       0.02283598      -0.01886320      -0.00302139 </v>
   <v>       0.10626715       0.19919400      -0.26773508 </v>
   <v>      -0.05968909       0.16600350       0.29349696 </v>
   <v>       0.00707947      -0.01713264       0.00047069 </v>
   <v>       0.00314691      -0.03155008      -0.02218489 </v>
   <v>      -0.03442279      -0.01121718       0.03256772 </v>
   <v>      -0.00359548       0.04713806       0.00358197 </v>
   <v>       0.01607383       0.03475004      -0.03128157 </v>
   <v>       0.24724929      -0.24600494      -0.15743383 </v>
   <v>      -0.03052955       0.00919801      -0.00367922 </v>
   <v>      -0.26461648      -0.20881964       0.20518837 </v>
   <v>       0.00346839      -0.01987631      -0.02346706 </v>
  </varray>
  <varray name="stress" >
   <v>      -9.94379164       0.00715308      -0.04110105 </v>
   <v>       0.00715317      -9.72129449       0.04976662 </v>
   <v>      -0.04110103       0.04976662      -9.78425118 </v>
  </varray>
  <energy>
   <i name="e_fr_energy">   -359.80101403 </i>
   <i name="e_wo_entrp">   -359.80622284 </i>
   <i name="e_0_energy">      0.01562642 </i>
  </energy>
  <time name="totalsc">   15.57   17.13</time>
 </calculation>
 <calculation>
  <scstep>
   <time name="dav">    1.14    1.21</time>
   <time name="total">    1.28    1.52</time>
   <energy>
    <i name="alphaZ">   1685.13535835 </i>
    <i name="ewald"> -23233.38221625 </i>
    <i name="hartreedc">  -7706.22269174 </i>
    <i name="XCdc">    131.84836517 </i>
    <i name="pawpsdc">  37324.07367208 </i>
    <i name="pawaedc"> -35867.91806120 </i>
    <i name="eentropy">      0.01594530 </i>
    <i name="bandstr">  -3225.78984414 </i>
    <i name="atom">  30532.41386844 </i>
    <i name="e_fr_energy">   -359.82560399 </i>
    <i name="e_wo_entrp">   -359.84154929 </i>
    <i name="e_0_energy">   -359.83091909 </i>
   </energy>
  </scstep>
  <scstep>
   <time name="diag">    0.09    0.09</time>
   <time name="diis">    0.77    0.78</time>
   <time name="orth">    0.01    0.01</time>
   <time name="total">    0.94    1.00</time>
   <energy>
    <i name="e_fr_energy">   -359.83616139 </i>
    <i name="e_wo_entrp">   -359.85141847 </i>
    <i name="e_0_energy">   -359.84124708 </i>
   </energy>
  </scstep>
  <scstep>
   <time name="diag">    0.09    0.09</time>
   <time name="diis">    0.83    0.87</time>
   <time name="orth">    0.01    0.01</time>
   <time name="total">    1.00    1.09</time>
   <energy>
    <i name="e_fr_energy">   -359.83176052 </i>
    <i name="e_wo_entrp">   -359.84728081 </i>
    <i name="e_0_energy">   -359.83693395 </i>
   </energy>
  </scstep>
  <scstep>
   <time name="diag">    0.09    0.10</time>
   <time name="diis">    0.84    0.89</time>
   <time name="orth">    0.02    0.02</time>
   <time name="total">    1.02    1.11</time>
   <energy>
    <i name="e_fr_energy">   -359.83087816 </i>
    <i name="e_wo_entrp">   -359.84650445 </i>
    <i name="e_0_energy">   -359.83608692 </i>
   </energy>
  </scstep>
  <scstep>
   <time name="diag">    0.09    0.10</time>
   <time name="diis">    0.86    0.91</time>
   <time name="orth">    0.02    0.02</time>
   <time name="total">    1.06    1.16</time>
   <energy>
    <i name="e_fr_energy">   -359.83067512 </i>
    <i name="e_wo_entrp">   -359.84625811 </i>
    <i name="e_0_energy">   -359.83586945 </i>
   </energy>
  </scstep>
  <scstep>
   <time name="diag">    0.10    0.10</time>
   <time name="diis">    0.86    0.90</time>
   <time name="orth">    0.01    0.01</time>
   <time name="total">    1.04    1.12</time>
   <energy>
    <i name="e_fr_energy">   -359.83066269 </i>
    <i name="e_wo_entrp">   -359.84621343 </i>
    <i name="e_0_energy">   -359.83584627 </i>
   </energy>
  </scstep>
  <scstep>
   <time name="diag">    0.09    0.09</time>
   <time name="diis">    0.81    0.85</time>
   <time name="orth">    0.01    0.01</time>
   <time name="total">    0.98    1.07</time>
   <energy>
    <i name="e_fr_energy">   -359.83066528 </i>
    <i name="e_wo_entrp">   -359.84624628 </i>
    <i name="e_0_energy">   -359.83585895 </i>
   </energy>
  </scstep>
  <scstep>
   <time name="diag">    0.11    0.12</time>
   <time name="diis">    0.68    0.73</time>
   <time name="orth">    0.02    0.02</time>
   <time name="total">    0.88    0.98</time>
   <energy>
    <i name="e_fr_energy">   -359.83067780 </i>
    <i name="e_wo_entrp">   -359.84627776 </i>
    <i name="e_0_energy">   -359.83587779 </i>
   </energy>
  </scstep>
  <scstep>
   <time name="diag">    0.12    0.13</time>
   <time name="diis">    0.58    0.63</time>
   <time name="orth">    0.01    0.02</time>
   <time name="total">    0.79    0.92</time>
   <energy>
    <i name="e_fr_energy">   -359.83069306 </i>
    <i name="e_wo_entrp">   -359.84627906 </i>
    <i name="e_0_energy">   -359.83588839 </i>
   </energy>
  </scstep>
  <scstep>
   <time name="diag">    0.10    0.11</time>
   <time name="diis">    0.48    0.51</time>
   <time name="orth">    0.01    0.02</time>
   <time name="total">    0.63    0.72</time>
   <energy>
    <i name="alphaZ">   1685.13535835 </i>
    <i name="ewald"> -23233.38221625 </i>
    <i name="hartreedc">  -7699.03647060 </i>
    <i name="XCdc">    131.53229786 </i>
    <i name="pawpsdc">  37369.87028435 </i>
    <i name="pawaedc"> -35913.79254319 </i>
    <i name="eentropy">      0.01558312 </i>
    <i name="bandstr">  -3232.58686320 </i>
    <i name="atom">  30532.41386844 </i>
    <i name="e_fr_energy">   -359.83070113 </i>
    <i name="e_wo_entrp">   -359.84628425 </i>
    <i name="e_0_energy">   -359.83589550 </i>
   </energy>
  </scstep>
  <structure>
   <crystal>
    <varray name="basis" >
     <v>       6.91777836       0.00580490       0.00420364 </v>
     <v>       0.00896490      10.25219332      -0.02160672 </v>
     <v>       0.00516504      -0.02249667      10.21830595 </v>
    </varray>
    <i name="volume">    724.70267431 </i>
    <varray name="rec_basis" >
     <v>       0.14455523      -0.00012656      -0.00007335 </v>
     <v>      -0.00008198       0.09754063       0.00021479 </v>
     <v>      -0.00005964       0.00020630       0.09786406 </v>
    </varray>
   </crystal>
   <varray name="positions" >
    <v>       0.26609388       0.50443063       0.16970966 </v>
    <v>       0.73079462       0.49421696       0.17811252 </v>
    <v>       0.03728526       0.00100154       0.66580332 </v>
    <v>       0.50400121       0.66538404       0.34233567 </v>
    <v>       0.76876958       0.50088071       0.49039235 </v>
    <v>       0.99614902       0.66482117       0.32438875 </v>
    <v>       0.47509718       0.01215067       0.99991583 </v>
    <v>       0.01911257       0.00772107       0.00744427 </v>
    <v>       0.76660118       0.16580689       0.49505168 </v>
    <v>       0.74830051       0.16306510       0.83273777 </v>
    <v>       0.73632112       0.16687631       0.17156108 </v>
    <v>       0.50381844       0.33671155       0.66232422 </v>
    <v>       0.75410593       0.84251211       0.82870976 </v>
    <v>       0.23045464       0.49579085       0.49705828 </v>
    <v>       0.74701353       0.49478099       0.83550033 </v>
    <v>       0.51648909       0.66401867       0.65205198 </v>
    <v>       0.24989894       0.51109733       0.83883174 </v>
    <v>       0.23515509       0.17203586       0.48597246 </v>
    <v>       0.00876201       0.33422215       0.00684216 </v>
    <v>       0.96996371       0.66096942       0.02021466 </v>
    <v>       0.26600895       0.82399609       0.16513755 </v>
    <v>       0.46907429       0.99866861       0.66075518 </v>
    <v>       0.76856276       0.83802690       0.49717038 </v>
    <v>       0.25101909       0.81973548       0.84061477 </v>
    <v>       0.26196780       0.16848041       0.17627015 </v>
    <v>       0.97942036       0.66240850       0.66181016 </v>
    <v>       0.52789120       0.66065164       0.01002305 </v>
    <v>       0.00569983       0.98983843       0.32286506 </v>
    <v>       0.49651234       0.99116490       0.33389461 </v>
    <v>       0.73507024       0.83443111       0.18026813 </v>
    <v>       0.49861390       0.34293293       0.33180668 </v>
    <v>       0.00120483       0.34264290       0.31250159 </v>
    <v>       0.99909436       0.33279311       0.68223541 </v>
    <v>       0.23766808       0.83269490       0.48739040 </v>
    <v>       0.48745726       0.32932136       0.00064075 </v>
    <v>       0.25053721       0.17372571       0.83165161 </v>
   </varray>
  </structure>
  <varray name="forces" >
   <v>       0.02042552      -0.00725025       0.05728365 </v>
   <v>       0.00351819       0.02469768       0.03966772 </v>
   <v>       0.01583200       0.00557147       0.02126348 </v>
   <v>      -0.00974499      -0.01468334      -0.01408082 </v>
   <v>       0.01340201       0.03167355      -0.06502051 </v>
   <v>      -0.00068204      -0.02316796      -0.00100708 </v>
   <v>      -0.02067782       0.02835056      -0.01045928 </v>
   <v>       0.00646040      -0.00776308      -0.02059277 </v>
   <v>       0.01694769      -0.00717569      -0.02413527 </v>
   <v>       0.00469628      -0.06620290       0.02399629 </v>
   <v>      -0.00445448       0.01356297       0.00671300 </v>
   <v>      -0.14729176      -0.12923924      -0.15649060 </v>
   <v>       0.00780135       0.02514487      -0.01501374 </v>
   <v>      -0.03781951      -0.00133149      -0.02508153 </v>
   <v>      -0.02631155       0.01183787       0.00779005 </v>
   <v>      -0.07940854       0.14368163      -0.21302985 </v>
   <v>      -0.00998083       0.00638655      -0.00487833 </v>
   <v>      -0.02103757      -0.03452254      -0.01411355 </v>
   <v>       0.17750984      -0.09425040       0.11685858 </v>
   <v>       0.01529667       0.10947297       0.21603976 </v>
   <v>       0.02752927       0.05458139       0.04301629 </v>
   <v>       0.00038154       0.00728439       0.02875640 </v>
   <v>       0.02469839       0.03352715      -0.03924631 </v>
   <v>       0.00387198      -0.02784625      -0.00844609 </v>
   <v>       0.01949176      -0.02973650       0.00747213 </v>
   <v>       0.09194169       0.16750299      -0.21481422 </v>
   <v>      -0.03528687       0.12987823       0.22602968 </v>
   <v>       0.00055580      -0.01155587      -0.00019530 </v>
   <v>       0.01198463      -0.02736519      -0.02189509 </v>
   <v>      -0.03580754       0.00901832       0.03824896 </v>
   <v>       0.00356523       0.04231232       0.01285117 </v>
   <v>       0.00635752       0.03231645      -0.01796114 </v>
   <v>       0.20956298      -0.21027252      -0.11976411 </v>
   <v>      -0.03021626       0.01273323      -0.01005746 </v>
   <v>      -0.22221473      -0.17237829       0.17074909 </v>
   <v>      -0.00089624      -0.02479304      -0.02045321 </v>
  </varray>
  <varray name="stress" >
   <v>      -7.99182659      -0.01470057       0.01833315 </v>
   <v>      -0.01470055      -7.87500797       0.06949207 </v>
   <v>       0.01833315       0.06949203      -7.87026419 </v>
  </varray>
  <energy>
   <i name="e_fr_energy">   -359.83070113 </i>
   <i name="e_wo_entrp">   -359.83589550 </i>
   <i name="e_0_energy">      0.01558312 </i>
  </energy>
  <time name="totalsc">   11.49   12.76</time>
 </calculation>
 <calculation>
  <scstep>
   <time name="dav">    1.14    1.19</time>
   <time name="total">    1.28    1.52</time>
   <energy>
    <i name="alphaZ">   1692.13563274 </i>
    <i name="ewald"> -23265.48012715 </i>
    <i name="hartreedc">  -7709.73443006 </i>
    <i name="XCdc">    132.98142207 </i>
    <i name="pawpsdc">  37370.25298181 </i>
    <i name="pawaedc"> -35914.13738112 </i>
    <i name="eentropy">      0.01619675 </i>
    <i name="bandstr">  -3198.28454924 </i>
    <i name="atom">  30532.41386844 </i>
    <i name="e_fr_energy">   -359.83638577 </i>
    <i name="e_wo_entrp">   -359.85258252 </i>
    <i name="e_0_energy">   -359.84178469 </i>
   </energy>
  </scstep>
  <scstep>
   <time name="diag">    0.12    0.12</time>
   <time name="diis">    0.76    0.80</time>
   <time name="orth">    0.01    0.02</time>
   <time name="total">    0.99    1.09</time>
   <energy>
    <i name="e_fr_energy">   -359.93235422 </i>
    <i name="e_wo_entrp">   -359.94693607 </i>
    <i name="e_0_energy">   -359.93721483 </i>
   </energy>
  </scstep>
  <scstep>
   <time name="diag">    0.10    0.10</time>
   <time name="diis">    0.81    0.87</time>
   <time name="orth">    0.01    0.02</time>
   <time name="total">    0.99    1.11</time>
   <energy>
    <i name="e_fr_energy">   -359.89022303 </i>
    <i name="e_wo_entrp">   -359.90501562 </i>
    <i name="e_0_energy">   -359.89515390 </i>
   </energy>
  </scstep>
  <scstep>
   <time name="diag">    0.12    0.13</time>
   <time name="diis">    0.88    0.93</time>
   <time name="orth">    0.01    0.01</time>
   <time name="total">    1.09    1.18</time>
   <energy>
    <i name="e_fr_energy">   -359.88298284 </i>
    <i name="e_wo_entrp">   -359.89823252 </i>
    <i name="e_0_energy">   -359.88806607 </i>
   </energy>
  </scstep>
  <scstep>
   <time name="diag">    0.10    0.10</time>
   <time name="diis">    0.89    0.94</time>
   <time name="orth">    0.02    0.02</time>
   <time name="total">    1.07    1.17</time>
   <energy>
    <i name="e_fr_energy">   -359.88115105 </i>
    <i name="e_wo_entrp">   -359.89628275 </i>
    <i name="e_0_energy">   -359.88619495 </i>
   </energy>
  </scstep>
  <scstep>
   <time name="diag">    0.10    0.10</time>
   <time name="diis">    0.88    0.90</time>
   <time name="orth">    0.01    0.01</time>
   <time name="total">    1.07    1.12</time>
   <energy>
    <i name="e_fr_energy">   -359.88107340 </i>
    <i name="e_wo_entrp">   -359.89608439 </i>
    <i name="e_0_energy">   -359.88607706 </i>
   </energy>
  </scstep>
  <scstep>
   <time name="diag">    0.11    0.11</time>
   <time name="diis">    1.01    1.07</time>
   <time name="orth">    0.01    0.01</time>
   <time name="total">    1.24    1.34</time>
   <energy>
    <i name="e_fr_energy">   -359.88107311 </i>
    <i name="e_wo_entrp">   -359.89620977 </i>
    <i name="e_0_energy">   -359.88611867 </i>
   </energy>
  </scstep>
  <scstep>
   <time name="diag">    0.10    0.10</time>
   <time name="diis">    0.84    1.03</time>
   <time name="orth">    0.01    0.02</time>
   <time name="total">    1.03    1.26</time>
   <energy>
    <i name="e_fr_energy">   -359.88117181 </i>
    <i name="e_wo_entrp">   -359.89633490 </i>
    <i name="e_0_energy">   -359.88622618 </i>
   </energy>
  </scstep>
  <scstep>
   <time name="diag">    0.10    0.10</time>
   <time name="diis">    0.89    0.90</time>
   <time name="orth">    0.02    0.02</time>
   <time name="total">    1.08    1.13</time>
   <energy>
    <i name="e_fr_energy">   -359.88124704 </i>
    <i name="e_wo_entrp">   -359.89638580 </i>
    <i name="e_0_energy">   -359.88629330 </i>
   </energy>
  </scstep>
  <scstep>
   <time name="diag">    0.19    0.20</time>
   <time name="diis">    0.91    0.94</time>
   <time name="orth">    0.01    0.02</time>
   <time name="total">    1.22    1.31</time>
   <energy>
    <i name="e_fr_energy">   -359.88129538 </i>
    <i name="e_wo_entrp">   -359.89642372 </i>
    <i name="e_0_energy">   -359.88633816 </i>
   </energy>
  </scstep>
  <scstep>
   <time name="diag">    0.22    0.22</time>
   <time name="diis">    1.81    1.83</time>
   <time name="orth">    0.02    0.02</time>
   <time name="total">    2.21    2.28</time>
   <energy>
    <i name="e_fr_energy">   -359.88131022 </i>
    <i name="e_wo_entrp">   -359.89645113 </i>
    <i name="e_0_energy">   -359.88635719 </i>
   </energy>
  </scstep>
  <scstep>
   <time name="diag">    0.15    0.15</time>
   <time name="diis">    0.51    0.53</time>
   <time name="orth">    0.01    0.02</time>
   <time name="total">    0.75    0.83</time>
   <energy>
    <i name="alphaZ">   1692.13563274 </i>
    <i name="ewald"> -23265.48012715 </i>
    <i name="hartreedc">  -7688.85828030 </i>
    <i name="XCdc">    132.05617380 </i>
    <i name="pawpsdc">  37526.70154076 </i>
    <i name="pawaedc"> -36070.26299615 </i>
    <i name="eentropy">      0.01513419 </i>
    <i name="bandstr">  -3218.60225920 </i>
    <i name="atom">  30532.41386844 </i>
    <i name="e_fr_energy">   -359.88131287 </i>
    <i name="e_wo_entrp">   -359.89644706 </i>
    <i name="e_0_energy">   -359.88635760 </i>
   </energy>
  </scstep>
  <structure>
   <crystal>
    <varray name="basis" >
     <v>       6.90670652       0.00593265       0.00375665 </v>
     <v>       0.00915207      10.23892845      -0.02104023 </v>
     <v>       0.00450338      -0.02192916      10.20554801 </v>
    </varray>
    <i name="volume">    721.70461820 </i>
    <varray name="rec_basis" >
     <v>       0.14478696      -0.00012955      -0.00006417 </v>
     <v>      -0.00008401       0.09766698       0.00020990 </v>
     <v>      -0.00005347       0.00020140       0.09798638 </v>
    </varray>
   </crystal>
   <varray name="positions" >
    <v>       0.26629990       0.50440964       0.16986394 </v>
    <v>       0.73083840       0.49440658       0.17844756 </v>
    <v>       0.03745711       0.00107600       0.66585894 </v>
    <v>       0.50387765       0.66536189       0.34224958 </v>
    <v>       0.76871358       0.50098089       0.48981085 </v>
    <v>       0.99620102       0.66477295       0.32432809 </v>
    <v>       0.47492291       0.01235972       0.99998642 </v>
    <v>       0.01921677       0.00770658       0.00737244 </v>
    <v>       0.76666251       0.16586637       0.49509437 </v>
    <v>       0.74821584       0.16222027       0.83293255 </v>
    <v>       0.73630360       0.16707206       0.17146811 </v>
    <v>       0.50178098       0.33547710       0.66071837 </v>
    <v>       0.75416619       0.84303223       0.82863252 </v>
    <v>       0.23020785       0.49578448       0.49711878 </v>
    <v>       0.74649050       0.49452256       0.83550335 </v>
    <v>       0.51511899       0.66550281       0.65009037 </v>
    <v>       0.24967916       0.51120394       0.83877178 </v>
    <v>       0.23505740       0.17194847       0.48610144 </v>
    <v>       0.01119831       0.33308771       0.00820609 </v>
    <v>       0.97099603       0.66240683       0.02234336 </v>
    <v>       0.26621355       0.82412477       0.16516917 </v>
    <v>       0.46908115       0.99873524       0.66084657 </v>
    <v>       0.76876428       0.83803757       0.49715390 </v>
    <v>       0.25102433       0.81938387       0.84053582 </v>
    <v>       0.26207811       0.16845881       0.17613887 </v>
    <v>       0.98091032       0.66408510       0.65968561 </v>
    <v>       0.52678651       0.66216747       0.01236827 </v>
    <v>       0.00580254       0.98979167       0.32285788 </v>
    <v>       0.49647846       0.99103861       0.33381341 </v>
    <v>       0.73485712       0.83426484       0.18024009 </v>
    <v>       0.49848782       0.34312330       0.33191662 </v>
    <v>       0.00147904       0.34273440       0.31234324 </v>
    <v>       0.00201289       0.33085847       0.68083600 </v>
    <v>       0.23748023       0.83262179       0.48752837 </v>
    <v>       0.48450923       0.32766018       0.00219206 </v>
    <v>       0.25061973       0.17372184       0.83146920 </v>
   </varray>
  </structure>
  <varray name="forces" >
   <v>      -0.00629454      -0.01041617       0.07774900 </v>
   <v>       0.02593831       0.01765490      -0.00025041 </v>
   <v>      -0.04077336      -0.00646469       0.04905751 </v>
   <v>      -0.01893485      -0.02087971      -0.00151260 </v>
   <v>       0.01087829       0.02133390      -0.02192964 </v>
   <v>       0.00929121      -0.03261707       0.02563010 </v>
   <v>       0.02225869      -0.01194092      -0.04665171 </v>
   <v>      -0.03944193      -0.02627389      -0.04113911 </v>
   <v>       0.01000271      -0.01891898      -0.05471783 </v>
   <v>       0.02437934       0.00876566       0.01139645 </v>
   <v>       0.01373700      -0.01631241       0.02703288 </v>
   <v>      -0.07380587      -0.06264433      -0.04704777 </v>
   <v>       0.00673582      -0.04296627      -0.00513074 </v>
   <v>      -0.02683538      -0.00396176      -0.04751952 </v>
   <v>       0.00452259       0.06970498       0.01409540 </v>
   <v>      -0.03309231       0.04643857      -0.08735055 </v>
   <v>       0.00444868      -0.00891771      -0.00091719 </v>
   <v>      -0.01866030      -0.06085120      -0.05696217 </v>
   <v>       0.06332653       0.00086075      -0.01181538 </v>
   <v>      -0.06610932      -0.01197045       0.04181141 </v>
   <v>       0.01153239       0.11255797       0.08004737 </v>
   <v>       0.05596437       0.00560805       0.05000294 </v>
   <v>       0.00746934       0.08616987      -0.07054029 </v>
   <v>       0.00721212      -0.00334830      -0.00816007 </v>
   <v>       0.00769279      -0.06988131       0.04459534 </v>
   <v>       0.05818001       0.07615193      -0.05616089 </v>
   <v>       0.03426386       0.02241067       0.02256837 </v>
   <v>      -0.01746773       0.00528067      -0.00570039 </v>
   <v>       0.03599233      -0.01348145      -0.01927091 </v>
   <v>      -0.03774758       0.07536813       0.05695395 </v>
   <v>       0.02605245       0.02815525       0.04157508 </v>
   <v>      -0.02217982       0.02539049       0.02517156 </v>
   <v>       0.09919738      -0.10233004      -0.01146024 </v>
   <v>      -0.02855990       0.02762668      -0.03249454 </v>
   <v>      -0.09528017      -0.05976527       0.06931574 </v>
   <v>      -0.01389315      -0.04553657      -0.01027113 </v>
  </varray>
  <varray name="stress" >
   <v>      -1.43326424      -0.07257627       0.20520845 </v>
   <v>      -0.07257624      -1.63910563       0.12063644 </v>
   <v>       0.20520851       0.12063643      -1.47413700 </v>
  </varray>
  <energy>
   <i name="e_fr_energy">   -359.88131287 </i>
   <i name="e_wo_entrp">   -359.88635760 </i>
   <i name="e_0_energy">      0.01513419 </i>
  </energy>
  <time name="totalsc">   15.86   17.43</time>
 </calculation>
 <calculation>
  <scstep>
   <time name="dav">    1.10    1.16</time>
   <time name="total">    1.25    1.50</time>
   <energy>
    <i name="alphaZ">   1694.69030850 </i>
    <i name="ewald"> -23276.19905822 </i>
    <i name="hartreedc">  -7693.68966325 </i>
    <i name="XCdc">    132.58917087 </i>
    <i name="pawpsdc">  37527.25418673 </i>
    <i name="pawaedc"> -36070.77499606 </i>
    <i name="eentropy">      0.01522195 </i>
    <i name="bandstr">  -3206.17808240 </i>
    <i name="atom">  30532.41386844 </i>
    <i name="e_fr_energy">   -359.87904344 </i>
    <i name="e_wo_entrp">   -359.89426540 </i>
    <i name="e_0_energy">   -359.88411743 </i>
   </energy>
  </scstep>
  <scstep>
   <time name="diag">    0.09    0.10</time>
   <time name="diis">    0.75    0.79</time>
   <time name="orth">    0.02    0.02</time>
   <time name="total">    0.93    1.00</time>
   <energy>
    <i name="e_fr_energy">   -359.89140619 </i>
    <i name="e_wo_entrp">   -359.90599836 </i>
    <i name="e_0_energy">   -359.89627024 </i>
   </energy>
  </scstep>
  <scstep>
   <time name="diag">    0.12    0.12</time>
   <time name="diis">    0.89    0.90</time>
   <time name="orth">    0.01    0.01</time>
   <time name="total">    1.09    1.14</time>
   <energy>
    <i name="e_fr_energy">   -359.88633037 </i>
    <i name="e_wo_entrp">   -359.90103978 </i>
    <i name="e_0_energy">   -359.89123351 </i>
   </energy>
  </scstep>
  <scstep>
   <time name="diag">    0.09    0.09</time>
   <time name="diis">    0.91    0.97</time>
   <time name="orth">    0.02    0.02</time>
   <time name="total">    1.09    1.20</time>
   <energy>
    <i name="e_fr_energy">   -359.88532740 </i>
    <i name="e_wo_entrp">   -359.90021611 </i>
    <i name="e_0_energy">   -359.89029030 </i>
   </energy>
  </scstep>
  <scstep>
   <time name="diag">    0.09    0.10</time>
   <time name="diis">    0.89    0.93</time>
   <time name="orth">    0.01    0.02</time>
   <time name="total">    1.06    1.16</time>
   <energy>
    <i name="e_fr_energy">   -359.88510798 </i>
    <i name="e_wo_entrp">   -359.89995172 </i>
    <i name="e_0_energy">   -359.89005589 </i>
   </energy>
  </scstep>
  <scstep>
   <time name="diag">    0.09    0.09</time>
   <time name="diis">    0.86    0.91</time>
   <time name="orth">    0.01    0.02</time>
   <time name="total">    1.04    1.13</time>
   <energy>
    <i name="e_fr_energy">   -359.88510586 </i>
    <i name="e_wo_entrp">   -359.89990609 </i>
    <i name="e_0_energy">   -359.89003927 </i>
   </energy>
  </scstep>
  <scstep>
   <time name="diag">    0.09    0.09</time>
   <time name="diis">    0.85    0.90</time>
   <time name="orth">    0.01    0.01</time>
   <time name="total">    1.03    1.12</time>
   <energy>
    <i name="e_fr_energy">   -359.88511607 </i>
    <i name="e_wo_entrp">   -359.89996704 </i>
    <i name="e_0_energy">   -359.89006640 </i>
   </energy>
  </scstep>
  <scstep>
[...]
    <v>       0.75287479       0.83709581       0.82584041 </v>
    <v>       0.22494191       0.49358571       0.49191178 </v>
    <v>       0.75244530       0.49923751       0.82602393 </v>
    <v>       0.49397138       0.66577228       0.64375077 </v>
    <v>       0.26122164       0.51012695       0.84454054 </v>
    <v>       0.22919493       0.16762184       0.48546963 </v>
    <v>       0.01075226       0.33364668       0.00578337 </v>
    <v>       0.97280266       0.66193356       0.02128248 </v>
    <v>       0.26470685       0.82702296       0.16564157 </v>
    <v>       0.47378158       0.00041078       0.65949886 </v>
    <v>       0.76876239       0.83762181       0.49797427 </v>
    <v>       0.26315990       0.82180323       0.84502091 </v>
    <v>       0.25692227       0.16700213       0.17623539 </v>
    <v>       0.01336662       0.67284040       0.65803126 </v>
    <v>       0.53186818       0.66181294       0.01421066 </v>
    <v>      -0.00056983       0.99125832       0.31866103 </v>
    <v>       0.49591937       0.99135140       0.33757326 </v>
    <v>       0.73440106       0.83592558       0.18061253 </v>
    <v>       0.49791509       0.34307463       0.33447330 </v>
    <v>      -0.00530007       0.34310764       0.31317820 </v>
    <v>       0.01551942       0.32810022       0.68305054 </v>
    <v>       0.23462357       0.83431921       0.48679887 </v>
    <v>       0.48302189       0.32554234       0.00624947 </v>
    <v>       0.25053055       0.16974939       0.83399705 </v>
   </varray>
  </structure>
  <varray name="forces" >
   <v>      -0.00113615       0.00149290      -0.00125168 </v>
   <v>      -0.00203239      -0.00320803       0.00204977 </v>
   <v>      -0.00200930       0.00169524       0.00210943 </v>
   <v>       0.00248206       0.00093878      -0.00245229 </v>
   <v>      -0.00145344       0.00063539      -0.00037485 </v>
   <v>      -0.00205229       0.00000413       0.00000760 </v>
   <v>       0.00253099       0.00152033       0.00128040 </v>
   <v>       0.00086796       0.00062669       0.00058319 </v>
   <v>      -0.00103007       0.00088429      -0.00010597 </v>
   <v>      -0.00202294       0.00090232       0.00075209 </v>
   <v>      -0.00259760      -0.00020822       0.00114671 </v>
   <v>      -0.00000452      -0.00045284      -0.00055641 </v>
   <v>      -0.00150672      -0.00396855      -0.00307144 </v>
   <v>      -0.00249624      -0.00220759      -0.00215346 </v>
   <v>       0.00106194       0.00144470      -0.00316546 </v>
   <v>      -0.01015015      -0.00020437      -0.00089150 </v>
   <v>       0.00128634      -0.00007763      -0.00046775 </v>
   <v>      -0.00112877      -0.00050152       0.00103398 </v>
   <v>       0.00212588      -0.00190951       0.00043862 </v>
   <v>       0.00482664       0.00280341      -0.00243700 </v>
   <v>      -0.00180449      -0.00057098      -0.00052708 </v>
   <v>      -0.00000325       0.00076834      -0.00189580 </v>
   <v>      -0.00008115      -0.00225575       0.00229727 </v>
   <v>       0.00189943       0.00086807       0.00052585 </v>
   <v>      -0.00029529      -0.00043500      -0.00128883 </v>
   <v>       0.01252099       0.00296335      -0.00116428 </v>
   <v>      -0.00088133       0.00092342       0.00172331 </v>
   <v>      -0.00060215       0.00155036       0.00175652 </v>
   <v>       0.00156877      -0.00164811       0.00501620 </v>
   <v>       0.00049069      -0.00238335       0.00056322 </v>
   <v>       0.00381483       0.00249271      -0.00219637 </v>
   <v>      -0.00182249       0.00137379      -0.00128627 </v>
   <v>       0.00081001      -0.00424309       0.00055117 </v>
   <v>      -0.00241130       0.00040053       0.00028569 </v>
   <v>       0.00005006       0.00105621       0.00331191 </v>
   <v>       0.00118543      -0.00107043      -0.00014649 </v>
  </varray>
  <varray name="stress" >
   <v>      -0.19675476       0.07225710      -0.05125013 </v>
   <v>       0.07225715      -0.14070068       0.01857853 </v>
   <v>      -0.05125011       0.01857848      -0.16596399 </v>
  </varray>
  <energy>
   <i name="e_fr_energy">   -359.92488142 </i>
   <i name="e_wo_entrp">   -359.92857987 </i>
   <i name="e_0_energy">      0.01109534 </i>
  </energy>
  <time name="totalsc">    3.07    3.60</time>
 </calculation>
 <calculation>
  <scstep>
   <time name="dav">    0.68    0.72</time>
   <time name="total">    0.77    1.10</time>
   <energy>
    <i name="alphaZ">   1693.51981867 </i>
    <i name="ewald"> -23263.29905801 </i>
    <i name="hartreedc">  -7696.01102115 </i>
    <i name="XCdc">    132.23874859 </i>
    <i name="pawpsdc">  37545.93163998 </i>
    <i name="pawaedc"> -36089.26849188 </i>
    <i name="eentropy">      0.01109545 </i>
    <i name="bandstr">  -3215.46148151 </i>
    <i name="atom">  30532.41386844 </i>
    <i name="e_fr_energy">   -359.92488142 </i>
    <i name="e_wo_entrp">   -359.93597687 </i>
    <i name="e_0_energy">   -359.92857990 </i>
   </energy>
  </scstep>
  <scstep>
   <time name="diag">    0.09    0.10</time>
   <time name="diis">    0.25    0.26</time>
   <time name="orth">    0.01    0.02</time>
   <time name="total">    0.40    0.45</time>
   <energy>
    <i name="alphaZ">   1693.51981867 </i>
    <i name="ewald"> -23263.29905801 </i>
    <i name="hartreedc">  -7696.01132006 </i>
    <i name="XCdc">    132.23875923 </i>
    <i name="pawpsdc">  37545.93080098 </i>
    <i name="pawaedc"> -36089.26747540 </i>
    <i name="eentropy">      0.01109538 </i>
    <i name="bandstr">  -3215.46137066 </i>
    <i name="atom">  30532.41386844 </i>
    <i name="e_fr_energy">   -359.92488143 </i>
    <i name="e_wo_entrp">   -359.93597681 </i>
    <i name="e_0_energy">   -359.92857989 </i>
   </energy>
  </scstep>
  <structure>
   <crystal>
    <varray name="basis" >
     <v>       6.90278389      -0.00058101       0.04060221 </v>
     <v>      -0.00062419      10.26392935      -0.01443969 </v>
     <v>       0.05900028      -0.01546280      10.17846244 </v>
    </varray>
    <i name="volume">    721.11473825 </i>
    <varray name="rec_basis" >
     <v>       0.14487403       0.00000763      -0.00083976 </v>
     <v>       0.00000733       0.09742878       0.00014797 </v>
     <v>      -0.00057790       0.00013819       0.09825023 </v>
    </varray>
   </crystal>
   <varray name="positions" >
    <v>       0.26332270       0.50290825       0.17077248 </v>
    <v>       0.73124164       0.49422893       0.17913001 </v>
    <v>       0.03319514      -0.00238941       0.67293368 </v>
    <v>       0.50539755       0.66503904       0.34258796 </v>
    <v>       0.76857067       0.50405333       0.49237362 </v>
    <v>       0.99079277       0.66414433       0.32402384 </v>
    <v>       0.48093642       0.01375426       0.00057227 </v>
    <v>       0.00955830       0.00514895       0.00462096 </v>
    <v>       0.76618396       0.16618032       0.49684120 </v>
    <v>       0.74856820       0.16527137       0.83061173 </v>
    <v>       0.73337414       0.16828697       0.17250859 </v>
    <v>       0.49201481       0.33341733       0.65720758 </v>
    <v>       0.75287479       0.83709581       0.82584041 </v>
    <v>       0.22494191       0.49358571       0.49191179 </v>
    <v>       0.75244530       0.49923751       0.82602393 </v>
    <v>       0.49397138       0.66577228       0.64375077 </v>
    <v>       0.26122164       0.51012695       0.84454054 </v>
    <v>       0.22919493       0.16762184       0.48546963 </v>
    <v>       0.01075226       0.33364668       0.00578337 </v>
    <v>       0.97280266       0.66193356       0.02128248 </v>
    <v>       0.26470685       0.82702296       0.16564157 </v>
    <v>       0.47378158       0.00041078       0.65949886 </v>
    <v>       0.76876239       0.83762181       0.49797427 </v>
    <v>       0.26315990       0.82180323       0.84502091 </v>
    <v>       0.25692227       0.16700213       0.17623539 </v>
    <v>       0.01336662       0.67284040       0.65803126 </v>
    <v>       0.53186818       0.66181294       0.01421066 </v>
    <v>      -0.00056983       0.99125832       0.31866103 </v>
    <v>       0.49591937       0.99135140       0.33757326 </v>
    <v>       0.73440106       0.83592558       0.18061253 </v>
    <v>       0.49791509       0.34307463       0.33447330 </v>
    <v>      -0.00530007       0.34310764       0.31317820 </v>
    <v>       0.01551942       0.32810022       0.68305054 </v>
    <v>       0.23462357       0.83431921       0.48679887 </v>
    <v>       0.48302189       0.32554234       0.00624947 </v>
    <v>       0.25053055       0.16974939       0.83399705 </v>
   </varray>
  </structure>
  <varray name="forces" >
   <v>      -0.00113810       0.00149114      -0.00125474 </v>
   <v>      -0.00203871      -0.00321515       0.00205581 </v>
   <v>      -0.00200657       0.00169203       0.00210798 </v>
   <v>       0.00248274       0.00094286      -0.00245197 </v>
   <v>      -0.00145251       0.00063551      -0.00037478 </v>
   <v>      -0.00205045       0.00000646       0.00000825 </v>
   <v>       0.00253047       0.00152609       0.00128241 </v>
   <v>       0.00086936       0.00062430       0.00058445 </v>
   <v>      -0.00102276       0.00088555      -0.00010386 </v>
   <v>      -0.00201877       0.00090263       0.00074423 </v>
   <v>      -0.00260741      -0.00020648       0.00114259 </v>
   <v>      -0.00000800      -0.00045317      -0.00055696 </v>
   <v>      -0.00151040      -0.00396452      -0.00306695 </v>
   <v>      -0.00249868      -0.00220096      -0.00214585 </v>
   <v>       0.00105959       0.00144340      -0.00316324 </v>
   <v>      -0.01014718      -0.00020419      -0.00088901 </v>
   <v>       0.00128722      -0.00007669      -0.00046683 </v>
   <v>      -0.00113011      -0.00050204       0.00103272 </v>
   <v>       0.00212518      -0.00191089       0.00043933 </v>
   <v>       0.00483045       0.00280693      -0.00243654 </v>
   <v>      -0.00180732      -0.00057374      -0.00052884 </v>
   <v>      -0.00000462       0.00077034      -0.00189434 </v>
   <v>      -0.00007963      -0.00225257       0.00229488 </v>
   <v>       0.00189916       0.00086675       0.00052541 </v>
   <v>      -0.00030938      -0.00042602      -0.00129658 </v>
   <v>       0.01251141       0.00295626      -0.00116672 </v>
   <v>      -0.00088291       0.00093366       0.00173745 </v>
   <v>      -0.00058682       0.00155565       0.00173305 </v>
   <v>       0.00157468      -0.00164740       0.00501683 </v>
   <v>       0.00047145      -0.00240899       0.00056905 </v>
   <v>       0.00382580       0.00248621      -0.00220859 </v>
   <v>      -0.00182523       0.00137925      -0.00128499 </v>
   <v>       0.00082293      -0.00422795       0.00056395 </v>
   <v>      -0.00239055       0.00037769       0.00028236 </v>
   <v>       0.00004622       0.00104813       0.00331143 </v>
   <v>       0.00117943      -0.00106010      -0.00014138 </v>
  </varray>
  <varray name="stress" >
   <v>      -0.19593050       0.07238925      -0.05142725 </v>
   <v>       0.07238920      -0.13986967       0.01856698 </v>
   <v>      -0.05142723       0.01856701      -0.16513283 </v>
  </varray>
  <energy>
   <i name="e_fr_energy">   -359.92488143 </i>
   <i name="e_wo_entrp">   -359.92857989 </i>
   <i name="e_0_energy">      0.01109538 </i>
  </energy>
  <time name="totalsc">    3.10    3.67</time>
 </calculation>
 <calculation>
  <scstep>
   <time name="dav">    1.09    1.15</time>
   <time name="total">    1.23    1.46</time>
   <energy>
    <i name="alphaZ">   1694.04404699 </i>
    <i name="ewald"> -23265.85730149 </i>
    <i name="hartreedc">  -7696.66962117 </i>
    <i name="XCdc">    132.34761435 </i>
    <i name="pawpsdc">  37545.93038551 </i>
    <i name="pawaedc"> -36089.26701265 </i>
    <i name="eentropy">      0.01112527 </i>
    <i name="bandstr">  -3212.87815799 </i>
    <i name="atom">  30532.41386844 </i>
    <i name="e_fr_energy">   -359.92505274 </i>
    <i name="e_wo_entrp">   -359.93617801 </i>
    <i name="e_0_energy">   -359.92876116 </i>
   </energy>
  </scstep>
  <scstep>
   <time name="diag">    0.09    0.10</time>
   <time name="diis">    0.90    0.91</time>
   <time name="orth">    0.01    0.01</time>
   <time name="total">    1.08    1.16</time>
   <energy>
    <i name="e_fr_energy">   -359.92496325 </i>
    <i name="e_wo_entrp">   -359.93594970 </i>
    <i name="e_0_energy">   -359.92862540 </i>
   </energy>
  </scstep>
  <scstep>
   <time name="diag">    0.10    0.10</time>
   <time name="diis">    0.86    0.91</time>
   <time name="orth">    0.01    0.01</time>
   <time name="total">    1.08    1.17</time>
   <energy>
    <i name="e_fr_energy">   -359.92487722 </i>
    <i name="e_wo_entrp">   -359.93589887 </i>
    <i name="e_0_energy">   -359.92855111 </i>
   </energy>
  </scstep>
  <scstep>
   <time name="diag">    0.09    0.09</time>
   <time name="diis">    0.72    0.76</time>
   <time name="orth">    0.01    0.02</time>
   <time name="total">    0.89    0.99</time>
   <energy>
    <i name="e_fr_energy">   -359.92483652 </i>
    <i name="e_wo_entrp">   -359.93587866 </i>
    <i name="e_0_energy">   -359.92851723 </i>
   </energy>
  </scstep>
  <scstep>
   <time name="diag">    0.09    0.10</time>
   <time name="diis">    0.59    0.59</time>
   <time name="orth">    0.02    0.02</time>
   <time name="total">    0.77    0.84</time>
   <energy>
    <i name="e_fr_energy">   -359.92482584 </i>
    <i name="e_wo_entrp">   -359.93583251 </i>
    <i name="e_0_energy">   -359.92849473 </i>
   </energy>
  </scstep>
  <scstep>
   <time name="diag">    0.10    0.10</time>
   <time name="diis">    0.42    0.43</time>
   <time name="orth">    0.01    0.01</time>
   <time name="total">    0.56    0.62</time>
   <energy>
    <i name="alphaZ">   1694.04404699 </i>
    <i name="ewald"> -23265.85730149 </i>
    <i name="hartreedc">  -7695.03071258 </i>
    <i name="XCdc">    132.27512819 </i>
    <i name="pawpsdc">  37560.93017542 </i>
    <i name="pawaedc"> -36104.30868453 </i>
    <i name="eentropy">      0.01102023 </i>
    <i name="bandstr">  -3214.40236859 </i>
    <i name="atom">  30532.41386844 </i>
    <i name="e_fr_energy">   -359.92482791 </i>
    <i name="e_wo_entrp">   -359.93584814 </i>
    <i name="e_0_energy">   -359.92850132 </i>
   </energy>
  </scstep>
  <structure>
   <crystal>
    <varray name="basis" >
     <v>       6.90208277      -0.00001477       0.03982321 </v>
     <v>       0.00021983      10.26263688      -0.01452207 </v>
     <v>       0.05784932      -0.01553896      10.17761487 </v>
    </varray>
    <i name="volume">    720.89158658 </i>
    <varray name="rec_basis" >
     <v>       0.14488855      -0.00000427      -0.00082355 </v>
     <v>      -0.00000065       0.09744105       0.00014877 </v>
     <v>      -0.00056692       0.00013905       0.09825828 </v>
    </varray>
   </crystal>
   <varray name="positions" >
    <v>       0.26331620       0.50289749       0.17074276 </v>
    <v>       0.73117531       0.49418488       0.17916931 </v>
    <v>       0.03324298      -0.00241705       0.67291866 </v>
    <v>       0.50540702       0.66506620       0.34259118 </v>
    <v>       0.76859041       0.50406338       0.49237798 </v>
    <v>       0.99081205       0.66415172       0.32402955 </v>
    <v>       0.48091849       0.01378875       0.00059058 </v>
    <v>       0.00957669       0.00514323       0.00462520 </v>
    <v>       0.76622795       0.16618270       0.49684934 </v>
    <v>       0.74859247       0.16527541       0.83058100 </v>
    <v>       0.73331643       0.16830102       0.17248896 </v>
    <v>       0.49199274       0.33341517       0.65721813 </v>
    <v>       0.75285219       0.83711742       0.82585865 </v>
    <v>       0.22493795       0.49361066       0.49194975 </v>
    <v>       0.75243197       0.49922124       0.82603397 </v>
    <v>       0.49405489       0.66577325       0.64378199 </v>
    <v>       0.26122581       0.51015238       0.84453616 </v>
    <v>       0.22918411       0.16760642       0.48546420 </v>
    <v>       0.01075214       0.33364824       0.00579069 </v>
    <v>       0.97285625       0.66196087       0.02128229 </v>
    <v>       0.26468852       0.82698791       0.16562320 </v>
    <v>       0.47376600       0.00040897       0.65951485 </v>
    <v>       0.76878508       0.83763722       0.49794954 </v>
    <v>       0.26314998       0.82175027       0.84499946 </v>
    <v>       0.25688944       0.16702519       0.17622512 </v>
    <v>       0.01325498       0.67281843       0.65803205 </v>
    <v>       0.53186297       0.66182642       0.01422574 </v>
    <v>      -0.00053311       0.99126718       0.31861772 </v>
    <v>       0.49593414       0.99135570       0.33756886 </v>
    <v>       0.73435664       0.83589526       0.18062010 </v>
    <v>       0.49794659       0.34305719       0.33444814 </v>
    <v>      -0.00530585       0.34311384       0.31317826 </v>
    <v>       0.01554696       0.32813249       0.68305936 </v>
    <v>       0.23466050       0.83428976       0.48679869 </v>
    <v>       0.48301813       0.32551930       0.00625510 </v>
    <v>       0.25050495       0.16977850       0.83399747 </v>
   </varray>
  </structure>
  <varray name="forces" >
   <v>      -0.00024968       0.00175668       0.00168209 </v>
   <v>       0.00359913       0.00288837      -0.00330109 </v>
   <v>      -0.00440074       0.00292586       0.00245877 </v>
   <v>      -0.00009821      -0.00187425      -0.00140321 </v>
   <v>      -0.00212242      -0.00103775      -0.00048202 </v>
   <v>      -0.00157629      -0.00050838      -0.00059728 </v>
   <v>       0.00276857      -0.00306521      -0.00138573 </v>
   <v>      -0.00125065       0.00068045      -0.00057283 </v>
   <v>      -0.00328570       0.00037123      -0.00054914 </v>
   <v>      -0.00232581      -0.00015529       0.00291647 </v>
   <v>       0.00274457      -0.00118522       0.00189688 </v>
   <v>       0.00092455      -0.00024361      -0.00119977 </v>
   <v>       0.00046053      -0.00312932      -0.00240000 </v>
   <v>      -0.00031210      -0.00290588      -0.00420183 </v>
   <v>       0.00111133       0.00186560      -0.00209595 </v>
   <v>      -0.00869756       0.00017787      -0.00262787 </v>
   <v>       0.00079459      -0.00228750       0.00106328 </v>
   <v>       0.00040078       0.00106704       0.00074521 </v>
   <v>       0.00019528      -0.00110966      -0.00056471 </v>
   <v>      -0.00098865      -0.00092220      -0.00143079 </v>
   <v>       0.00009259       0.00272669       0.00087788 </v>
   <v>       0.00178449       0.00048811      -0.00193199 </v>
   <v>      -0.00160728      -0.00203690       0.00329560 </v>
   <v>       0.00166827       0.00520700       0.00260564 </v>
   <v>       0.00041349      -0.00147777      -0.00018754 </v>
   <v>       0.01213905       0.00286969       0.00007782 </v>
   <v>      -0.00120266      -0.00043440      -0.00075145 </v>
   <v>      -0.00268635       0.00038334       0.00382437 </v>
   <v>      -0.00032816      -0.00084939       0.00315914 </v>
   <v>       0.00325104       0.00117097      -0.00107069 </v>
   <v>      -0.00044450       0.00161529       0.00188013 </v>
   <v>      -0.00091709      -0.00042139      -0.00022731 </v>
   <v>      -0.00032996      -0.00389513      -0.00042875 </v>
   <v>      -0.00226965       0.00222808      -0.00015019 </v>
   <v>       0.00089921       0.00211137       0.00073717 </v>
   <v>       0.00184597      -0.00299438       0.00033970 </v>
  </varray>
  <varray name="stress" >
   <v>       0.19814027      -0.00992978       0.02911803 </v>
   <v>      -0.00992975       0.21201425       0.01372690 </v>
   <v>       0.02911797       0.01372694       0.20426564 </v>
  </varray>
  <energy>
   <i name="e_fr_energy">   -359.92482791 </i>
   <i name="e_wo_entrp">   -359.92850132 </i>
   <i name="e_0_energy">      0.01102023 </i>
  </energy>
