<?xml version="1.0" encoding="ISO-8859-1"?>
<modeling>
 <generator>
  <i name="program" type="string">vasp </i>
  <i name="version" type="string">5.4.1  </i>
  <i name="subversion" type="string">05Feb16 (build Jan 29 2020 16:04:39) complex                          parallel </i>
  <i name="platform" type="string">IFC91_ompi </i>
  <i name="date" type="string">2020 03 20 </i>
  <i name="time" type="string">22:43:37 </i>
 </generator>
 <incar>
  <i type="string" name="SYSTEM"> automatically generated by mexm</i>
  <i type="int" name="ISTART">     0</i>
  <i type="string" name="PREC">accurate               ! avoid wrap aro</i>
  <i type="string" name="ALGO"> Fast                   ! blocked Davids</i>
  <i type="int" name="ISPIN">     1</i>
  <i type="int" name="ICHARG">     2</i>
  <i type="int" name="NELM">    70</i>
  <i type="int" name="IBRION">     2</i>
  <i name="EDIFF">      0.00001000</i>
  <i name="EDIFFG">     -0.01000000</i>
  <i type="int" name="NSW">   300</i>
  <i type="int" name="ISIF">     3</i>
  <i type="int" name="ISYM">     1</i>
  <i name="ENCUT">    300.00000000</i>
  <i name="POTIM">      0.15000000</i>
  <i type="string" name="LREAL"> Auto                  ! unpublished met</i>
  <i type="int" name="ISMEAR">     1</i>
  <i name="SIGMA">      0.15000000</i>
  <i type="logical" name="LWAVE"> F  </i>
  <i type="logical" name="LCHARG"> F  </i>
  <i type="logical" name="LVTOT"> F  </i>
  <v type="int" name="KPOINT_BSE">    -1     0     0     0</v>
  <i type="int" name="NELM">    70</i>
 </incar>
 <kpoints>
  <generation param="Gamma">
   <v type="int" name="divisions">       3        3        3 </v>
   <v name="usershift">      0.00000000       0.00000000       0.00000000 </v>
   <v name="genvec1">      0.33333333       0.00000000       0.00000000 </v>
   <v name="genvec2">     -0.00000000       0.33333333       0.00000000 </v>
   <v name="genvec3">      0.00000000       0.00000000       0.33333333 </v>
   <v name="shift">      0.00000000       0.00000000       0.00000000 </v>
  </generation>
  <varray name="kpointlist" >
   <v>       0.00000000       0.00000000       0.00000000 </v>
   <v>       0.33333333       0.00000000      -0.00000000 </v>
   <v>      -0.00000000       0.33333333      -0.00000000 </v>
   <v>       0.33333333       0.33333333      -0.00000000 </v>
   <v>      -0.33333333       0.33333333      -0.00000000 </v>
   <v>       0.00000000       0.00000000       0.33333333 </v>
   <v>       0.33333333      -0.00000000       0.33333333 </v>
   <v>      -0.33333333       0.00000000       0.33333333 </v>
   <v>      -0.00000000       0.33333333       0.33333333 </v>
   <v>       0.33333333       0.33333333       0.33333333 </v>
   <v>      -0.33333333       0.33333333       0.33333333 </v>
   <v>       0.00000000      -0.33333333       0.33333333 </v>
   <v>       0.33333333      -0.33333333       0.33333333 </v>
   <v>      -0.33333333      -0.33333333       0.33333333 </v>
  </varray>
  <varray name="weights" >
   <v>       0.03703704 </v>
   <v>       0.07407407 </v>
   <v>       0.07407407 </v>
   <v>       0.07407407 </v>
   <v>       0.07407407 </v>
   <v>       0.07407407 </v>
   <v>       0.07407407 </v>
   <v>       0.07407407 </v>
   <v>       0.07407407 </v>
   <v>       0.07407407 </v>
   <v>       0.07407407 </v>
   <v>       0.07407407 </v>
   <v>       0.07407407 </v>
   <v>       0.07407407 </v>
  </varray>
 </kpoints>
 <parameters>
  <separator name="general" >
   <i type="string" name="SYSTEM">automatically generated by mexm</i>
   <i type="logical" name="LCOMPAT"> F  </i>
  </separator>
  <separator name="electronic" >
   <i type="string" name="PREC">accura</i>
   <i name="ENMAX">    300.00000000</i>
   <i name="ENAUG">    358.96600000</i>
   <i name="EDIFF">      0.00001000</i>
   <i type="int" name="IALGO">    68</i>
   <i type="int" name="IWAVPR">    11</i>
   <i type="int" name="NBANDS">   208</i>
   <i name="NELECT">    344.00000000</i>
   <i type="int" name="TURBO">     0</i>
   <i type="int" name="IRESTART">     0</i>
   <i type="int" name="NREBOOT">     0</i>
   <i type="int" name="NMIN">     0</i>
   <i name="EREF">      0.00000000</i>
   <separator name="electronic smearing" >
    <i type="int" name="ISMEAR">     1</i>
    <i name="SIGMA">      0.15000000</i>
    <i name="KSPACING">      0.50000000</i>
    <i type="logical" name="KGAMMA"> T  </i>
   </separator>
   <separator name="electronic projectors" >
    <i type="logical" name="LREAL"> T  </i>
    <v name="ROPT">     -0.00025000     -0.00025000</v>
    <i type="int" name="LMAXPAW">  -100</i>
    <i type="int" name="LMAXMIX">     2</i>
    <i type="logical" name="NLSPLINE"> F  </i>
   </separator>
   <separator name="electronic startup" >
    <i type="int" name="ISTART">     0</i>
    <i type="int" name="ICHARG">     2</i>
    <i type="int" name="INIWAV">     1</i>
   </separator>
   <separator name="electronic spin" >
    <i type="int" name="ISPIN">     1</i>
    <i type="logical" name="LNONCOLLINEAR"> F  </i>
    <v name="MAGMOM">      1.00000000      1.00000000      1.00000000      1.00000000      1.00000000      1.00000000      1.00000000      1.00000000      1.00000000      1.00000000      1.00000000      1.00000000      1.00000000      1.00000000      1.00000000      1.00000000      1.00000000      1.00000000      1.00000000      1.00000000
      1.00000000      1.00000000      1.00000000      1.00000000      1.00000000      1.00000000      1.00000000      1.00000000      1.00000000      1.00000000      1.00000000      1.00000000</v>
    <i name="NUPDOWN">     -1.00000000</i>
    <i type="logical" name="LSORBIT"> F  </i>
    <v name="SAXIS">      0.00000000      0.00000000      1.00000000</v>
    <i type="logical" name="LSPIRAL"> F  </i>
    <v name="QSPIRAL">      0.00000000      0.00000000      0.00000000</v>
    <i type="logical" name="LZEROZ"> F  </i>
   </separator>
   <separator name="electronic exchange-correlation" >
    <i type="logical" name="LASPH"> F  </i>
    <i type="logical" name="LMETAGGA"> F  </i>
   </separator>
   <separator name="electronic convergence" >
    <i type="int" name="NELM">    70</i>
    <i type="int" name="NELMDL">    -5</i>
    <i type="int" name="NELMIN">     2</i>
    <i name="ENINI">    300.00000000</i>
    <separator name="electronic convergence detail" >
     <i type="logical" name="LDIAG"> T  </i>
     <i type="logical" name="LSUBROT"> F  </i>
     <i name="WEIMIN">      0.00100000</i>
     <i name="EBREAK">      0.00000001</i>
     <i name="DEPER">      0.30000000</i>
     <i type="int" name="NRMM">     4</i>
     <i name="TIME">      0.40000000</i>
    </separator>
   </separator>
   <separator name="electronic mixer" >
    <i name="AMIX">      0.40000000</i>
    <i name="BMIX">      1.00000000</i>
    <i name="AMIN">      0.10000000</i>
    <i name="AMIX_MAG">      1.60000000</i>
    <i name="BMIX_MAG">      1.00000000</i>
    <separator name="electronic mixer details" >
     <i type="int" name="IMIX">     4</i>
     <i type="logical" name="MIXFIRST"> F  </i>
     <i type="int" name="MAXMIX">   -45</i>
     <i name="WC">    100.00000000</i>
     <i type="int" name="INIMIX">     1</i>
     <i type="int" name="MIXPRE">     1</i>
     <i type="int" name="MREMOVE">     5</i>
    </separator>
   </separator>
   <separator name="electronic dipolcorrection" >
    <i type="logical" name="LDIPOL"> F  </i>
    <i type="logical" name="LMONO"> F  </i>
    <i type="int" name="IDIPOL">     0</i>
    <i name="EPSILON">      1.00000000</i>
    <v name="DIPOL">   -100.00000000   -100.00000000   -100.00000000</v>
    <i name="EFIELD">      0.00000000</i>
   </separator>
  </separator>
  <separator name="grids" >
   <i type="int" name="NGX">    48</i>
   <i type="int" name="NGY">    48</i>
   <i type="int" name="NGZ">    48</i>
   <i type="int" name="NGXF">    96</i>
   <i type="int" name="NGYF">    96</i>
   <i type="int" name="NGZF">    96</i>
   <i type="logical" name="ADDGRID"> F  </i>
  </separator>
  <separator name="ionic" >
   <i type="int" name="NSW">   300</i>
   <i type="int" name="IBRION">     2</i>
   <i type="int" name="ISIF">     3</i>
   <i name="PSTRESS">      0.00000000</i>
   <i name="EDIFFG">     -0.01000000</i>
   <i type="int" name="NFREE">     1</i>
   <i name="POTIM">      0.15000000</i>
   <i name="SMASS">     -3.00000000</i>
   <i name="SCALEE">      1.00000000</i>
  </separator>
  <separator name="ionic md" >
   <i name="TEBEG">      0.00010000</i>
   <i name="TEEND">      0.00010000</i>
   <i type="int" name="NBLOCK">     1</i>
   <i type="int" name="KBLOCK">   300</i>
   <i type="int" name="NPACO">   256</i>
   <i name="APACO">     16.00000000</i>
  </separator>
  <separator name="symmetry" >
   <i type="int" name="ISYM">     1</i>
   <i name="SYMPREC">      0.00001000</i>
  </separator>
  <separator name="dos" >
   <i type="logical" name="LORBIT"> F  </i>
   <v name="RWIGS">     -1.00000000     -1.00000000</v>
   <i type="int" name="NEDOS">   301</i>
   <i name="EMIN">     10.00000000</i>
   <i name="EMAX">    -10.00000000</i>
   <i name="EFERMI">      0.00000000</i>
  </separator>
  <separator name="writing" >
   <i type="int" name="NWRITE">     2</i>
   <i type="logical" name="LWAVE"> F  </i>
   <i type="logical" name="LCHARG"> F  </i>
   <i type="logical" name="LPARD"> F  </i>
   <i type="logical" name="LVTOT"> F  </i>
   <i type="logical" name="LVHAR"> F  </i>
   <i type="logical" name="LELF"> F  </i>
   <i type="logical" name="LOPTICS"> F  </i>
   <v name="STM">      0.00000000      0.00000000      0.00000000      0.00000000      0.00000000      0.00000000      0.00000000</v>
  </separator>
  <separator name="performance" >
   <i type="int" name="NPAR">     4</i>
   <i type="int" name="NSIM">     4</i>
   <i type="int" name="NBLK">    -1</i>
   <i type="logical" name="LPLANE"> T  </i>
   <i type="logical" name="LSCALAPACK"> T  </i>
   <i type="logical" name="LSCAAWARE"> F  </i>
   <i type="logical" name="LSCALU"> F  </i>
   <i type="logical" name="LASYNC"> F  </i>
   <i type="logical" name="LORBITALREAL"> F  </i>
  </separator>
  <separator name="miscellaneous" >
   <i type="int" name="IDIOT">     3</i>
   <i type="logical" name="LMUSIC"> F  </i>
   <v name="POMASS">    195.08000000    196.96600000</v>
   <v name="DARWINR">      0.00000000      0.00000000</v>
   <v name="DARWINV">      1.00000000      1.00000000</v>
   <i type="logical" name="LCORR"> T  </i>
  </separator>
  <i type="logical" name="GGA_COMPAT"> T  </i>
  <i type="logical" name="LBERRY"> F  </i>
  <i type="int" name="ICORELEVEL">     0</i>
  <i type="logical" name="LDAU"> F  </i>
  <i type="int" name="I_CONSTRAINED_M">     0</i>
  <separator name="electronic exchange-correlation" >
   <i type="string" name="GGA">--</i>
   <i type="int" name="VOSKOWN">     0</i>
   <i type="logical" name="LHFCALC"> F  </i>
   <i type="string" name="PRECFOCK"></i>
   <i type="logical" name="LSYMGRAD"> F  </i>
   <i type="logical" name="LHFONE"> F  </i>
   <i type="logical" name="LRHFCALC"> F  </i>
   <i type="logical" name="LTHOMAS"> F  </i>
   <i type="logical" name="LMODELHF"> F  </i>
   <i name="ENCUT4O">     -1.00000000</i>
   <i type="int" name="EXXOEP">     0</i>
   <i type="int" name="FOURORBIT">     0</i>
   <i name="AEXX">      0.00000000</i>
   <i name="HFALPHA">      0.00000000</i>
   <i name="MCALPHA">      0.00000000</i>
   <i name="ALDAX">      1.00000000</i>
   <i name="AGGAX">      1.00000000</i>
   <i name="ALDAC">      1.00000000</i>
   <i name="AGGAC">      1.00000000</i>
   <i type="int" name="NKREDX">     1</i>
   <i type="int" name="NKREDY">     1</i>
   <i type="int" name="NKREDZ">     1</i>
   <i type="logical" name="SHIFTRED"> F  </i>
   <i type="logical" name="ODDONLY"> F  </i>
   <i type="logical" name="EVENONLY"> F  </i>
   <i type="int" name="LMAXFOCK">     0</i>
   <i type="int" name="NMAXFOCKAE">     0</i>
   <i type="logical" name="LFOCKAEDFT"> F  </i>
   <i name="HFSCREEN">      0.00000000</i>
   <i name="HFSCREENC">      0.00000000</i>
   <i type="int" name="NBANDSGWLOW">     0</i>
  </separator>
  <separator name="vdW DFT" >
   <i type="logical" name="LUSE_VDW"> F  </i>
   <i name="Zab_VDW">     -0.84910000</i>
   <i name="PARAM1">      0.12340000</i>
   <i name="PARAM2">      1.00000000</i>
   <i name="PARAM3">      0.00000000</i>
  </separator>
  <separator name="model GW" >
   <i type="int" name="MODEL_GW">     0</i>
   <i name="MODEL_EPS0">     10.11254986</i>
   <i name="MODEL_ALPHA">      1.00000000</i>
  </separator>
  <separator name="linear response parameters" >
   <i type="logical" name="LEPSILON"> F  </i>
   <i type="logical" name="LRPA"> F  </i>
   <i type="logical" name="LNABLA"> F  </i>
   <i type="logical" name="LVEL"> F  </i>
   <i type="int" name="KINTER">     0</i>
   <i name="CSHIFT">      0.10000000</i>
   <i name="OMEGAMAX">     -1.00000000</i>
   <i name="DEG_THRESHOLD">      0.00200000</i>
  </separator>
  <separator name="orbital magnetization" >
   <i type="logical" name="NUCIND"> F  </i>
   <v name="MAGPOS">      0.00000000      0.00000000      0.00000000</v>
   <i type="logical" name="LNICSALL"> T  </i>
   <i type="logical" name="ORBITALMAG"> F  </i>
   <i type="logical" name="LMAGBLOCH"> F  </i>
   <i type="logical" name="LCHIMAG"> F  </i>
   <i type="logical" name="LGAUGE"> T  </i>
   <i type="int" name="MAGATOM">     0</i>
   <v name="MAGDIPOL">      0.00000000      0.00000000      0.00000000</v>
   <v name="AVECCONST">      0.00000000      0.00000000      0.00000000</v>
  </separator>
  <separator name="response functions" >
   <i type="logical" name="LADDER"> F  </i>
   <i type="logical" name="LFXC"> F  </i>
   <i type="logical" name="LHARTREE"> T  </i>
   <i type="int" name="IBSE">     0</i>
   <v type="int" name="KPOINT">    -1     0     0     0</v>
   <i type="logical" name="LTCTE"> F  </i>
   <i type="logical" name="LTETE"> F  </i>
   <i type="logical" name="LTRIPLET"> F  </i>
   <i type="logical" name="LFXCEPS"> F  </i>
   <i type="logical" name="LFXHEG"> F  </i>
   <i type="int" name="NATURALO">     0</i>
   <i type="logical" name="L2ORDER"> F  </i>
   <i type="logical" name="LUSEW"> F  </i>
   <i name="ENCUTGW">     -2.00000000</i>
   <i name="ENCUTGWSOFT">     -2.00000000</i>
   <i name="ENCUTLF">     -1.00000000</i>
   <i type="int" name="LMAXMP2">    -1</i>
   <i name="SCISSOR">      0.00000000</i>
   <i type="int" name="NOMEGA">     0</i>
   <i type="int" name="NOMEGAR">     0</i>
   <i type="int" name="NBANDSGW">    -1</i>
   <i type="int" name="NBANDSO">    -1</i>
   <i type="int" name="NBANDSV">    -1</i>
   <i type="int" name="NELM">    70</i>
   <i type="int" name="NELMHF">     1</i>
   <i type="int" name="DIM">     3</i>
   <i type="int" name="ANTIRES">     0</i>
   <i name="OMEGAMAX">    -30.00000000</i>
   <i name="OMEGAMIN">    -30.00000000</i>
   <i name="OMEGATL">   -200.00000000</i>
   <i type="int" name="OMEGAGRID">     0</i>
   <i name="CSHIFT">     -0.10000000</i>
   <i type="logical" name="SELFENERGY"> F  </i>
   <i type="logical" name="LSPECTRAL"> F  </i>
   <i type="logical" name="LSPECTRALGW"> F  </i>
   <i type="logical" name="LSINGLES"> F  </i>
   <i type="logical" name="LFERMIGW"> F  </i>
   <i type="logical" name="ODDONLYGW"> F  </i>
   <i type="logical" name="EVENONLYGW"> F  </i>
   <i type="int" name="NKREDLFX">     1</i>
   <i type="int" name="NKREDLFY">     1</i>
   <i type="int" name="NKREDLFZ">     1</i>
   <i type="int" name="MAXMEM">  1800</i>
   <i type="int" name="TELESCOPE">     0</i>
   <i type="int" name="TAUPAR">     1</i>
   <i type="int" name="OMEGAPAR">    -1</i>
   <i name="LAMBDA">      1.00000000</i>
  </separator>
  <separator name="External order field" >
   <i name="OFIELD_KAPPA">      0.00000000</i>
   <v name="OFIELD_K">      0.00000000      0.00000000      0.00000000</v>
   <i name="OFIELD_Q6_NEAR">      0.00000000</i>
   <i name="OFIELD_Q6_FAR">      0.00000000</i>
   <i name="OFIELD_A">      0.00000000</i>
  </separator>
 </parameters>
 <atominfo>
  <atoms>      32 </atoms>
  <types>       2 </types>
  <array name="atoms" >
   <dimension dim="1">ion</dimension>
   <field type="string">element</field>
   <field type="int">atomtype</field>
   <set>
    <rc><c>Pt</c><c>   1</c></rc>
    <rc><c>Pt</c><c>   1</c></rc>
    <rc><c>Pt</c><c>   1</c></rc>
    <rc><c>Pt</c><c>   1</c></rc>
    <rc><c>Pt</c><c>   1</c></rc>
    <rc><c>Pt</c><c>   1</c></rc>
    <rc><c>Pt</c><c>   1</c></rc>
    <rc><c>Pt</c><c>   1</c></rc>
    <rc><c>Au</c><c>   2</c></rc>
    <rc><c>Au</c><c>   2</c></rc>
    <rc><c>Au</c><c>   2</c></rc>
    <rc><c>Au</c><c>   2</c></rc>
    <rc><c>Au</c><c>   2</c></rc>
    <rc><c>Au</c><c>   2</c></rc>
    <rc><c>Au</c><c>   2</c></rc>
    <rc><c>Au</c><c>   2</c></rc>
    <rc><c>Au</c><c>   2</c></rc>
    <rc><c>Au</c><c>   2</c></rc>
    <rc><c>Au</c><c>   2</c></rc>
    <rc><c>Au</c><c>   2</c></rc>
    <rc><c>Au</c><c>   2</c></rc>
    <rc><c>Au</c><c>   2</c></rc>
    <rc><c>Au</c><c>   2</c></rc>
    <rc><c>Au</c><c>   2</c></rc>
    <rc><c>Au</c><c>   2</c></rc>
    <rc><c>Au</c><c>   2</c></rc>
    <rc><c>Au</c><c>   2</c></rc>
    <rc><c>Au</c><c>   2</c></rc>
    <rc><c>Au</c><c>   2</c></rc>
    <rc><c>Au</c><c>   2</c></rc>
    <rc><c>Au</c><c>   2</c></rc>
    <rc><c>Au</c><c>   2</c></rc>
   </set>
  </array>
  <array name="atomtypes" >
   <dimension dim="1">type</dimension>
   <field type="int">atomspertype</field>
   <field type="string">element</field>
   <field>mass</field>
   <field>valence</field>
   <field type="string">pseudopotential</field>
   <set>
    <rc><c>   8</c><c>Pt</c><c>    195.08000000</c><c>     10.00000000</c><c>  PAW_PBE Pt 04Feb2005                  </c></rc>
    <rc><c>  24</c><c>Au</c><c>    196.96600000</c><c>     11.00000000</c><c>  PAW_PBE Au 04Oct2007                  </c></rc>
   </set>
  </array>
 </atominfo>
 <structure name="initialpos" >
  <crystal>
   <varray name="basis" >
    <v>       8.06632800       0.00158400      -0.00008200 </v>
    <v>       0.00156600       8.18459800      -0.01913900 </v>
    <v>      -0.00008500      -0.01912100       8.16937000 </v>
   </varray>
   <i name="volume">    539.33599235 </i>
   <varray name="rec_basis" >
    <v>       0.12397215      -0.00002372       0.00000123 </v>
    <v>      -0.00002399       0.12218138       0.00028597 </v>
    <v>       0.00000119       0.00028624       0.12240913 </v>
   </varray>
  </crystal>
  <varray name="positions" >
   <v>       0.49849400       0.00118400       0.49952000 </v>
   <v>       0.50169200       0.49594900       0.00208400 </v>
   <v>       0.24706900       0.99833200       0.25211400 </v>
   <v>       0.25028200       0.74723400       0.00116600 </v>
   <v>       0.50194800       0.74919900       0.74901900 </v>
   <v>       0.00332300       0.74487800       0.24879900 </v>
   <v>       0.75240800       0.99976700       0.24885700 </v>
   <v>       0.25022400       0.49823600       0.75046800 </v>
   <v>       0.25004100       0.74971600       0.49241400 </v>
   <v>       0.99963200       0.25317500       0.75523800 </v>
   <v>       0.49967900       0.49842100       0.49871500 </v>
   <v>       0.00047000       0.00131200       0.49928600 </v>
   <v>       0.74950900       0.74790000       0.49854900 </v>
   <v>       0.24991900       0.00357100       0.74774000 </v>
   <v>       0.75260100       0.25320500       0.99907400 </v>
   <v>       0.49756700       0.25131500       0.24889300 </v>
   <v>       0.74948500       0.49358400       0.75890000 </v>
   <v>       0.99866500       0.49553200       0.00244200 </v>
   <v>       0.74969200       0.74903800       0.00078600 </v>
   <v>       0.99761000       0.74877300       0.74931800 </v>
   <v>       0.00013600       0.49928400       0.49886200 </v>
   <v>       0.24813400       0.25350000       0.00154000 </v>
   <v>       0.49668900       0.74409800       0.24863800 </v>
   <v>       0.24881000       0.50012200       0.24699500 </v>
   <v>       0.24642600       0.25075800       0.49903600 </v>
   <v>       0.74932300       0.00752300       0.75242800 </v>
   <v>       0.75280700       0.50000500       0.24327000 </v>
   <v>       0.00567500       0.25428100       0.24623800 </v>
   <v>       0.75192400       0.25254200       0.50112200 </v>
   <v>       0.00132500       0.00195300       0.00071000 </v>
   <v>       0.49987100       0.25327700       0.75628600 </v>
   <v>       0.49856800       0.00233500       0.00149300 </v>
  </varray>
 </structure>
 <calculation>
  <scstep>
   <time name="dav">    0.75    0.75</time>
   <time name="total">    0.79    0.79</time>
   <energy>
    <i name="alphaZ">   2105.98355701 </i>
    <i name="ewald"> -29978.94152044 </i>
    <i name="hartreedc">  -3656.80707465 </i>
    <i name="XCdc">    403.89907494 </i>
    <i name="pawpsdc">  26547.32836389 </i>
    <i name="pawaedc"> -25766.96559563 </i>
    <i name="eentropy">      0.01014766 </i>
    <i name="bandstr">   4004.84819548 </i>
    <i name="atom">  28057.59819964 </i>
    <i name="e_fr_energy">   1716.95334789 </i>
    <i name="e_wo_entrp">   1716.94320024 </i>
    <i name="e_0_energy">   1716.94996534 </i>
   </energy>
  </scstep>
  <scstep>
   <time name="dav">    0.76    0.77</time>
   <time name="total">    0.77    0.79</time>
   <energy>
    <i name="e_fr_energy">    -62.72473742 </i>
    <i name="e_wo_entrp">    -62.72895930 </i>
    <i name="e_0_energy">    -62.72614471 </i>
   </energy>
  </scstep>
  <scstep>
   <time name="dav">    0.76    0.77</time>
   <time name="total">    0.76    0.77</time>
   <energy>
    <i name="e_fr_energy">   -134.11933331 </i>
    <i name="e_wo_entrp">   -134.12243328 </i>
    <i name="e_0_energy">   -134.12036663 </i>
   </energy>
  </scstep>
  <scstep>
   <time name="dav">    1.01    1.02</time>
   <time name="total">    1.01    1.02</time>
   <energy>
    <i name="e_fr_energy">   -135.20831162 </i>
    <i name="e_wo_entrp">   -135.21111076 </i>
    <i name="e_0_energy">   -135.20924466 </i>
   </energy>
  </scstep>
  <scstep>
   <time name="dav">    0.85    0.87</time>
   <time name="total">    0.89    0.90</time>
   <energy>
    <i name="e_fr_energy">   -135.22636056 </i>
    <i name="e_wo_entrp">   -135.22915138 </i>
    <i name="e_0_energy">   -135.22729084 </i>
   </energy>
  </scstep>
  <scstep>
   <time name="diag">    0.08    0.08</time>
   <time name="diis">    0.45    0.45</time>
   <time name="orth">    0.01    0.01</time>
   <time name="total">    0.59    0.60</time>
   <energy>
    <i name="e_fr_energy">   -127.29833638 </i>
    <i name="e_wo_entrp">   -127.27037645 </i>
    <i name="e_0_energy">   -127.28901640 </i>
   </energy>
  </scstep>
  <scstep>
   <time name="diag">    0.07    0.07</time>
   <time name="diis">    0.41    0.41</time>
   <time name="orth">    0.01    0.01</time>
   <time name="total">    0.55    0.55</time>
   <energy>
    <i name="e_fr_energy">   -128.26412688 </i>
    <i name="e_wo_entrp">   -128.25888025 </i>
    <i name="e_0_energy">   -128.26237800 </i>
   </energy>
  </scstep>
  <scstep>
   <time name="diag">    0.10    0.10</time>
   <time name="diis">    0.41    0.41</time>
   <time name="orth">    0.01    0.01</time>
   <time name="total">    0.58    0.59</time>
   <energy>
    <i name="e_fr_energy">   -125.03735918 </i>
    <i name="e_wo_entrp">   -125.02709816 </i>
    <i name="e_0_energy">   -125.03393884 </i>
   </energy>
  </scstep>
  <scstep>
   <time name="diag">    0.11    0.11</time>
   <time name="diis">    0.41    0.41</time>
   <time name="orth">    0.01    0.01</time>
   <time name="total">    0.62    0.63</time>
   <energy>
    <i name="e_fr_energy">   -125.04512648 </i>
    <i name="e_wo_entrp">   -125.02498766 </i>
    <i name="e_0_energy">   -125.03841354 </i>
   </energy>
  </scstep>
  <scstep>
   <time name="diag">    0.07    0.07</time>
   <time name="diis">    0.41    0.41</time>
   <time name="orth">    0.01    0.01</time>
   <time name="total">    0.58    0.59</time>
   <energy>
    <i name="e_fr_energy">   -124.95739762 </i>
    <i name="e_wo_entrp">   -124.93732682 </i>
    <i name="e_0_energy">   -124.95070736 </i>
   </energy>
  </scstep>
  <scstep>
   <time name="diag">    0.07    0.07</time>
   <time name="diis">    0.41    0.41</time>
   <time name="orth">    0.01    0.01</time>
   <time name="total">    0.57    0.57</time>
   <energy>
    <i name="e_fr_energy">   -124.92006409 </i>
    <i name="e_wo_entrp">   -124.90646564 </i>
    <i name="e_0_energy">   -124.91553127 </i>
   </energy>
  </scstep>
  <scstep>
   <time name="diag">    0.08    0.08</time>
   <time name="diis">    0.47    0.48</time>
   <time name="orth">    0.01    0.01</time>
   <time name="total">    0.63    0.64</time>
   <energy>
    <i name="e_fr_energy">   -124.91820659 </i>
    <i name="e_wo_entrp">   -124.90499106 </i>
    <i name="e_0_energy">   -124.91380141 </i>
   </energy>
  </scstep>
  <scstep>
   <time name="diag">    0.09    0.13</time>
   <time name="diis">    0.43    0.45</time>
   <time name="orth">    0.01    0.01</time>
   <time name="total">    0.59    0.66</time>
   <energy>
    <i name="e_fr_energy">   -124.91611162 </i>
    <i name="e_wo_entrp">   -124.90152422 </i>
    <i name="e_0_energy">   -124.91124915 </i>
   </energy>
  </scstep>
  <scstep>
   <time name="diag">    0.08    0.08</time>
   <time name="diis">    0.45    0.45</time>
   <time name="orth">    0.01    0.01</time>
   <time name="total">    0.60    0.60</time>
   <energy>
    <i name="e_fr_energy">   -124.91591323 </i>
    <i name="e_wo_entrp">   -124.90116824 </i>
    <i name="e_0_energy">   -124.91099823 </i>
   </energy>
  </scstep>
  <scstep>
   <time name="diag">    0.08    0.08</time>
   <time name="diis">    0.43    0.43</time>
   <time name="orth">    0.01    0.01</time>
   <time name="total">    0.59    0.60</time>
   <energy>
    <i name="e_fr_energy">   -124.91583559 </i>
    <i name="e_wo_entrp">   -124.90104914 </i>
    <i name="e_0_energy">   -124.91090677 </i>
   </energy>
  </scstep>
  <scstep>
   <time name="diag">    0.08    0.09</time>
   <time name="diis">    0.34    0.34</time>
   <time name="orth">    0.01    0.01</time>
   <time name="total">    0.47    0.47</time>
   <energy>
    <i name="alphaZ">   2105.98355701 </i>
    <i name="ewald"> -29978.94152044 </i>
    <i name="hartreedc">  -3311.43001467 </i>
    <i name="XCdc">    389.20900984 </i>
    <i name="pawpsdc">  32405.32875591 </i>
    <i name="pawaedc"> -31709.35446351 </i>
    <i name="eentropy">     -0.01491366 </i>
    <i name="bandstr">   1916.70556341 </i>
    <i name="atom">  28057.59819964 </i>
    <i name="e_fr_energy">   -124.91582648 </i>
    <i name="e_wo_entrp">   -124.90091282 </i>
    <i name="e_0_energy">   -124.91085526 </i>
   </energy>
  </scstep>
  <structure>
   <crystal>
    <varray name="basis" >
     <v>       8.06632800       0.00158400      -0.00008200 </v>
     <v>       0.00156600       8.18459800      -0.01913900 </v>
     <v>      -0.00008500      -0.01912100       8.16937000 </v>
    </varray>
    <i name="volume">    539.33599235 </i>
    <varray name="rec_basis" >
     <v>       0.12397215      -0.00002372       0.00000123 </v>
     <v>      -0.00002399       0.12218138       0.00028597 </v>
     <v>       0.00000119       0.00028624       0.12240913 </v>
    </varray>
   </crystal>
   <varray name="positions" >
    <v>       0.49849400       0.00118400       0.49952000 </v>
    <v>       0.50169200       0.49594900       0.00208400 </v>
    <v>       0.24706900       0.99833200       0.25211400 </v>
    <v>       0.25028200       0.74723400       0.00116600 </v>
    <v>       0.50194800       0.74919900       0.74901900 </v>
    <v>       0.00332300       0.74487800       0.24879900 </v>
    <v>       0.75240800       0.99976700       0.24885700 </v>
    <v>       0.25022400       0.49823600       0.75046800 </v>
    <v>       0.25004100       0.74971600       0.49241400 </v>
    <v>       0.99963200       0.25317500       0.75523800 </v>
    <v>       0.49967900       0.49842100       0.49871500 </v>
    <v>       0.00047000       0.00131200       0.49928600 </v>
    <v>       0.74950900       0.74790000       0.49854900 </v>
    <v>       0.24991900       0.00357100       0.74774000 </v>
    <v>       0.75260100       0.25320500       0.99907400 </v>
    <v>       0.49756700       0.25131500       0.24889300 </v>
    <v>       0.74948500       0.49358400       0.75890000 </v>
    <v>       0.99866500       0.49553200       0.00244200 </v>
    <v>       0.74969200       0.74903800       0.00078600 </v>
    <v>       0.99761000       0.74877300       0.74931800 </v>
    <v>       0.00013600       0.49928400       0.49886200 </v>
    <v>       0.24813400       0.25350000       0.00154000 </v>
    <v>       0.49668900       0.74409800       0.24863800 </v>
    <v>       0.24881000       0.50012200       0.24699500 </v>
    <v>       0.24642600       0.25075800       0.49903600 </v>
    <v>       0.74932300       0.00752300       0.75242800 </v>
    <v>       0.75280700       0.50000500       0.24327000 </v>
    <v>       0.00567500       0.25428100       0.24623800 </v>
    <v>       0.75192400       0.25254200       0.50112200 </v>
    <v>       0.00132500       0.00195300       0.00071000 </v>
    <v>       0.49987100       0.25327700       0.75628600 </v>
    <v>       0.49856800       0.00233500       0.00149300 </v>
   </varray>
  </structure>
  <varray name="forces" >
   <v>       0.20412549      -0.14771906      -0.14266898 </v>
   <v>      -0.51844427       0.64265522      -0.37885085 </v>
   <v>       0.19201765      -0.18907219      -0.22487992 </v>
   <v>       0.13110866       0.04605247      -0.35004177 </v>
   <v>      -0.43885435      -0.05763066       0.21236280 </v>
   <v>      -0.12055473       0.65572145      -0.23144056 </v>
   <v>      -0.14071962      -0.10930605       0.26052885 </v>
   <v>       0.28911525       0.58208825       0.19780377 </v>
   <v>       0.12513982       0.13981835       0.62874845 </v>
   <v>       0.31170563      -0.12929659      -0.44033324 </v>
   <v>      -0.02424932       0.11173408       0.32920776 </v>
   <v>      -0.19899979      -0.20999435      -0.23267291 </v>
   <v>      -0.13424067       0.35111459      -0.03359870 </v>
   <v>       0.24313888      -0.52509564       0.11135197 </v>
   <v>      -0.34174724      -0.58093198       0.56558430 </v>
   <v>       0.20328085      -0.42610927       0.21258940 </v>
   <v>      -0.23565632       0.71688440      -0.56111563 </v>
   <v>       0.49478383       0.84940950      -0.30226905 </v>
   <v>      -0.13650781       0.29868349      -0.00074304 </v>
   <v>       0.34578209      -0.00086383       0.11861196 </v>
   <v>      -0.00476051       0.21598479       0.18205368 </v>
   <v>       0.37245404      -0.25333196      -0.14263589 </v>
   <v>       0.21295697       0.58959965      -0.11976212 </v>
   <v>       0.21471216       0.16269038      -0.01445948 </v>
   <v>       0.37530889      -0.13125253       0.12975458 </v>
   <v>      -0.21288354      -0.58904379      -0.28929742 </v>
   <v>      -0.23863644       0.07649667       0.48491891 </v>
   <v>      -0.40346815      -0.64389587       0.38703334 </v>
   <v>      -0.24330668      -0.34578619      -0.32520909 </v>
   <v>       0.12998869      -0.53581829       0.27298594 </v>
   <v>      -0.30414065      -0.12604434      -0.45254073 </v>
   <v>      -0.14844882      -0.43774067       0.14898367 </v>
  </varray>
  <varray name="stress" >
   <v>      41.84546337       0.20898140       1.77666443 </v>
   <v>       0.20898097      33.48082073       2.00097334 </v>
   <v>       1.77666428       2.00097328      36.11360960 </v>
  </varray>
  <energy>
   <i name="e_fr_energy">   -124.91582648 </i>
   <i name="e_wo_entrp">   -124.91085526 </i>
   <i name="e_0_energy">     -0.01491366 </i>
  </energy>
  <time name="totalsc">   11.73   11.93</time>
 </calculation>
 <calculation>
  <scstep>
   <time name="dav">    0.85    0.86</time>
   <time name="total">    0.90    0.92</time>
   <energy>
    <i name="alphaZ">   2070.65399739 </i>
    <i name="ewald"> -29821.78958534 </i>
    <i name="hartreedc">  -3281.97181689 </i>
    <i name="XCdc">    383.76985511 </i>
    <i name="pawpsdc">  32405.81387785 </i>
    <i name="pawaedc"> -31709.84083698 </i>
    <i name="eentropy">      0.00291863 </i>
    <i name="bandstr">   1769.49857853 </i>
    <i name="atom">  28057.59819964 </i>
    <i name="e_fr_energy">   -126.26481204 </i>
    <i name="e_wo_entrp">   -126.26773067 </i>
    <i name="e_0_energy">   -126.26578492 </i>
   </energy>
  </scstep>
  <scstep>
   <time name="diag">    0.09    0.09</time>
   <time name="diis">    0.45    0.47</time>
   <time name="orth">    0.01    0.01</time>
   <time name="total">    0.61    0.63</time>
   <energy>
    <i name="e_fr_energy">   -125.27864802 </i>
    <i name="e_wo_entrp">   -125.25980734 </i>
    <i name="e_0_energy">   -125.27236779 </i>
   </energy>
  </scstep>
  <scstep>
   <time name="diag">    0.11    0.12</time>
   <time name="diis">    0.40    0.42</time>
   <time name="orth">    0.01    0.01</time>
   <time name="total">    0.57    0.61</time>
   <energy>
    <i name="e_fr_energy">   -125.26576414 </i>
    <i name="e_wo_entrp">   -125.26711400 </i>
    <i name="e_0_energy">   -125.26621410 </i>
   </energy>
  </scstep>
  <scstep>
   <time name="diag">    0.08    0.08</time>
   <time name="diis">    0.45    0.45</time>
   <time name="orth">    0.01    0.01</time>
   <time name="total">    0.60    0.60</time>
   <energy>
    <i name="e_fr_energy">   -125.18128633 </i>
    <i name="e_wo_entrp">   -125.16633204 </i>
    <i name="e_0_energy">   -125.17630157 </i>
   </energy>
  </scstep>
  <scstep>
   <time name="diag">    0.07    0.07</time>
   <time name="diis">    0.38    0.45</time>
   <time name="orth">    0.01    0.01</time>
   <time name="total">    0.51    0.59</time>
   <energy>
    <i name="e_fr_energy">   -125.18978739 </i>
    <i name="e_wo_entrp">   -125.17259814 </i>
    <i name="e_0_energy">   -125.18405764 </i>
   </energy>
  </scstep>
  <scstep>
   <time name="diag">    0.08    0.12</time>
   <time name="diis">    0.39    0.42</time>
   <time name="orth">    0.01    0.01</time>
   <time name="total">    0.54    0.61</time>
   <energy>
    <i name="e_fr_energy">   -125.18067188 </i>
    <i name="e_wo_entrp">   -125.16500373 </i>
    <i name="e_0_energy">   -125.17544916 </i>
   </energy>
  </scstep>
  <scstep>
   <time name="diag">    0.07    0.07</time>
   <time name="diis">    0.46    0.46</time>
   <time name="orth">    0.01    0.01</time>
   <time name="total">    0.61    0.61</time>
   <energy>
    <i name="e_fr_energy">   -125.18007897 </i>
    <i name="e_wo_entrp">   -125.16409013 </i>
    <i name="e_0_energy">   -125.17474936 </i>
   </energy>
  </scstep>
  <scstep>
   <time name="diag">    0.07    0.07</time>
   <time name="diis">    0.40    0.45</time>
   <time name="orth">    0.01    0.02</time>
   <time name="total">    0.55    0.62</time>
   <energy>
    <i name="e_fr_energy">   -125.17998804 </i>
    <i name="e_wo_entrp">   -125.16428641 </i>
    <i name="e_0_energy">   -125.17475416 </i>
   </energy>
  </scstep>
  <scstep>
   <time name="diag">    0.08    0.08</time>
   <time name="diis">    0.27    0.29</time>
   <time name="orth">    0.01    0.02</time>
   <time name="total">    0.38    0.41</time>
   <energy>
    <i name="alphaZ">   2070.65399739 </i>
    <i name="ewald"> -29821.78958534 </i>
    <i name="hartreedc">  -3365.80098734 </i>
    <i name="XCdc">    387.15788771 </i>
    <i name="pawpsdc">  32035.08043226 </i>
    <i name="pawaedc"> -31335.88596189 </i>
    <i name="eentropy">     -0.01570257 </i>
    <i name="bandstr">   1847.82173115 </i>
    <i name="atom">  28057.59819964 </i>
    <i name="e_fr_energy">   -125.17998899 </i>
    <i name="e_wo_entrp">   -125.16428642 </i>
    <i name="e_0_energy">   -125.17475480 </i>
   </energy>
  </scstep>
  <structure>
   <crystal>
    <varray name="basis" >
     <v>       8.11771767       0.00184870       0.00209992 </v>
     <v>       0.00183121       8.22631226      -0.01675042 </v>
     <v>       0.00212361      -0.01672972       8.21428115 </v>
    </varray>
    <i name="volume">    548.53815896 </i>
    <varray name="rec_basis" >
     <v>       0.12318735      -0.00002749      -0.00003190 </v>
     <v>      -0.00002775       0.12156166       0.00024759 </v>
     <v>      -0.00003155       0.00024789       0.12173971 </v>
    </varray>
   </crystal>
   <varray name="positions" >
    <v>       0.49886029       0.00092213       0.49926664 </v>
    <v>       0.50076157       0.49708402       0.00141548 </v>
    <v>       0.24741358       0.99799667       0.25171482 </v>
    <v>       0.25051722       0.74731394       0.00054606 </v>
    <v>       0.50116062       0.74909812       0.74939498 </v>
    <v>       0.00310647       0.74603660       0.24839169 </v>
    <v>       0.75215556       0.99957484       0.24931810 </v>
    <v>       0.25074254       0.49926603       0.75082085 </v>
    <v>       0.25026549       0.74996580       0.49352847 </v>
    <v>       0.00019131       0.25294443       0.75445737 </v>
    <v>       0.49963546       0.49861995       0.49929869 </v>
    <v>       0.00011302       0.00093977       0.49887292 </v>
    <v>       0.74926802       0.74852079       0.49849093 </v>
    <v>       0.25035543       0.00264285       0.74793510 </v>
    <v>       0.75198804       0.25218019       0.00007358 </v>
    <v>       0.49793188       0.25056232       0.24926786 </v>
    <v>       0.74906192       0.49484943       0.75790889 </v>
    <v>       0.99955246       0.49703259       0.00191003 </v>
    <v>       0.74944697       0.74956621       0.00078592 </v>
    <v>       0.99823041       0.74877184       0.74952814 </v>
    <v>       0.00012739       0.49966668       0.49918542 </v>
    <v>       0.24880235       0.25305131       0.00128626 </v>
    <v>       0.49707089       0.74514002       0.24842828 </v>
    <v>       0.24919519       0.50040955       0.24697006 </v>
    <v>       0.24709944       0.25052631       0.49926534 </v>
    <v>       0.74894124       0.00648027       0.75191304 </v>
    <v>       0.75237882       0.50014236       0.24412940 </v>
    <v>       0.00495132       0.25314414       0.24692099 </v>
    <v>       0.75148757       0.25192928       0.50054442 </v>
    <v>       0.00155842       0.00100659       0.00119141 </v>
    <v>       0.49932534       0.25305235       0.75548375 </v>
    <v>       0.49830180       0.00156161       0.00175512 </v>
   </varray>
  </structure>
  <varray name="forces" >
   <v>       0.15715525      -0.14284380      -0.12542580 </v>
   <v>      -0.40186270       0.52119636      -0.32456463 </v>
   <v>       0.15890974      -0.17412911      -0.16581117 </v>
   <v>       0.12808076       0.03455169      -0.26342715 </v>
   <v>      -0.37477578      -0.05149467       0.18953972 </v>
   <v>      -0.06366294       0.52978258      -0.18314332 </v>
   <v>      -0.12418212      -0.11184353       0.21749556 </v>
   <v>       0.24583403       0.47148989       0.17601749 </v>
   <v>       0.10660051       0.12321277       0.47281898 </v>
   <v>       0.22443530      -0.08692895      -0.30387962 </v>
   <v>      -0.03872350       0.11879059       0.26650100 </v>
   <v>      -0.13363767      -0.18334581      -0.20297182 </v>
   <v>      -0.12173597       0.30377829      -0.02854935 </v>
   <v>       0.20644673      -0.43846450       0.08361927 </v>
   <v>      -0.25741148      -0.39903310       0.39460397 </v>
   <v>       0.14466445      -0.33355026       0.15449693 </v>
   <v>      -0.19690663       0.53326905      -0.40032002 </v>
   <v>       0.36039794       0.62653956      -0.21696408 </v>
   <v>      -0.11963771       0.22284581       0.00589433 </v>
   <v>       0.29004490       0.00183705       0.09454172 </v>
   <v>       0.02161397       0.18946515       0.12576729 </v>
   <v>       0.27307734      -0.18150841      -0.09390259 </v>
   <v>       0.14631175       0.47832663      -0.08790641 </v>
   <v>       0.15292810       0.14193103      -0.01015929 </v>
   <v>       0.29788546      -0.11499720       0.08688595 </v>
   <v>      -0.17713213      -0.47265617      -0.22637028 </v>
   <v>      -0.18663655       0.07602801       0.33700372 </v>
   <v>      -0.29225483      -0.49412271       0.28268502 </v>
   <v>      -0.20107764      -0.29629629      -0.24341173 </v>
   <v>       0.10543206      -0.42749539       0.22011970 </v>
   <v>      -0.20990420      -0.09744881      -0.34373339 </v>
   <v>      -0.12027647      -0.36688578       0.11254999 </v>
  </varray>
  <varray name="stress" >
   <v>      10.02581467       0.18843953       1.53957803 </v>
   <v>       0.18843983       3.18329727       1.65922336 </v>
   <v>       1.53957766       1.65922285       5.13311548 </v>
  </varray>
  <energy>
   <i name="e_fr_energy">   -125.17998899 </i>
   <i name="e_wo_entrp">   -125.17475480 </i>
   <i name="e_0_energy">     -0.01570257 </i>
  </energy>
  <time name="totalsc">    6.45    6.83</time>
 </calculation>
 <calculation>
  <scstep>
   <time name="dav">    0.72    0.73</time>
   <time name="total">    0.78    0.78</time>
   <energy>
    <i name="alphaZ">   2042.54885553 </i>
    <i name="ewald"> -29693.86752469 </i>
    <i name="hartreedc">  -3343.20593816 </i>
    <i name="XCdc">    382.77341510 </i>
    <i name="pawpsdc">  32035.76349862 </i>
    <i name="pawaedc"> -31336.60645042 </i>
    <i name="eentropy">      0.00015475 </i>
    <i name="bandstr">   1729.03022249 </i>
    <i name="atom">  28057.59819964 </i>
    <i name="e_fr_energy">   -125.96556713 </i>
    <i name="e_wo_entrp">   -125.96572189 </i>
    <i name="e_0_energy">   -125.96561872 </i>
   </energy>
  </scstep>
  <scstep>
   <time name="diag">    0.07    0.07</time>
   <time name="diis">    0.40    0.40</time>
   <time name="orth">    0.01    0.01</time>
   <time name="total">    0.54    0.55</time>
   <energy>
    <i name="e_fr_energy">   -125.31487859 </i>
    <i name="e_wo_entrp">   -125.29534198 </i>
    <i name="e_0_energy">   -125.30836639 </i>
   </energy>
  </scstep>
  <scstep>
   <time name="diag">    0.07    0.07</time>
   <time name="diis">    0.42    0.42</time>
   <time name="orth">    0.01    0.01</time>
   <time name="total">    0.58    0.58</time>
   <energy>
    <i name="e_fr_energy">   -125.30741387 </i>
    <i name="e_wo_entrp">   -125.30654719 </i>
    <i name="e_0_energy">   -125.30712497 </i>
   </energy>
  </scstep>
  <scstep>
   <time name="diag">    0.09    0.09</time>
   <time name="diis">    0.47    0.47</time>
   <time name="orth">    0.01    0.01</time>
   <time name="total">    0.63    0.63</time>
   <energy>
    <i name="e_fr_energy">   -125.24644492 </i>
    <i name="e_wo_entrp">   -125.23103740 </i>
    <i name="e_0_energy">   -125.24130908 </i>
   </energy>
  </scstep>
  <scstep>
   <time name="diag">    0.07    0.07</time>
   <time name="diis">    0.50    0.50</time>
   <time name="orth">    0.01    0.01</time>
   <time name="total">    0.67    0.67</time>
   <energy>
    <i name="e_fr_energy">   -125.25236040 </i>
    <i name="e_wo_entrp">   -125.23551047 </i>
    <i name="e_0_energy">   -125.24674376 </i>
   </energy>
  </scstep>
  <scstep>
   <time name="diag">    0.10    0.10</time>
   <time name="diis">    0.45    0.45</time>
   <time name="orth">    0.01    0.01</time>
   <time name="total">    0.67    0.67</time>
   <energy>
    <i name="e_fr_energy">   -125.24602082 </i>
    <i name="e_wo_entrp">   -125.22990747 </i>
    <i name="e_0_energy">   -125.24064971 </i>
   </energy>
  </scstep>
  <scstep>
   <time name="diag">    0.09    0.09</time>
   <time name="diis">    0.44    0.45</time>
   <time name="orth">    0.01    0.01</time>
   <time name="total">    0.65    0.68</time>
   <energy>
    <i name="e_fr_energy">   -125.24562915 </i>
    <i name="e_wo_entrp">   -125.22933809 </i>
    <i name="e_0_energy">   -125.24019880 </i>
   </energy>
  </scstep>
  <scstep>
   <time name="diag">    0.08    0.08</time>
   <time name="diis">    0.37    0.45</time>
   <time name="orth">    0.01    0.01</time>
   <time name="total">    0.51    0.60</time>
   <energy>
    <i name="e_fr_energy">   -125.24556419 </i>
    <i name="e_wo_entrp">   -125.22951624 </i>
    <i name="e_0_energy">   -125.24021488 </i>
   </energy>
  </scstep>
  <scstep>
   <time name="diag">    0.07    0.07</time>
   <time name="diis">    0.24    0.24</time>
   <time name="orth">    0.01    0.01</time>
   <time name="total">    0.36    0.37</time>
   <energy>
    <i name="alphaZ">   2042.54885553 </i>
    <i name="ewald"> -29693.86752469 </i>
    <i name="hartreedc">  -3411.65006926 </i>
    <i name="XCdc">    385.54517074 </i>
    <i name="pawpsdc">  31755.96948976 </i>
    <i name="pawaedc"> -31054.34500782 </i>
    <i name="eentropy">     -0.01604089 </i>
    <i name="bandstr">   1792.97136199 </i>
    <i name="atom">  28057.59819964 </i>
    <i name="e_fr_energy">   -125.24556499 </i>
    <i name="e_wo_entrp">   -125.22952411 </i>
    <i name="e_0_energy">   -125.24021803 </i>
   </energy>
  </scstep>
  <structure>
   <crystal>
    <varray name="basis" >
     <v>       8.15944368       0.00206362       0.00387154 </v>
     <v>       0.00204655       8.26018230      -0.01481100 </v>
     <v>       0.00391690      -0.01478811       8.25074692 </v>
    </varray>
    <i name="volume">    556.08595530 </i>
    <varray name="rec_basis" >
     <v>       0.12255741      -0.00003047      -0.00005824 </v>
     <v>      -0.00003072       0.12106310       0.00021700 </v>
     <v>      -0.00005756       0.00021734       0.12120157 </v>
    </varray>
   </crystal>
   <varray name="positions" >
    <v>       0.49915589       0.00071063       0.49906203 </v>
    <v>       0.50001100       0.49800112       0.00087556 </v>
    <v>       0.24769169       0.99772586       0.25139249 </v>
    <v>       0.25070713       0.74737867       0.00004538 </v>
    <v>       0.50052527       0.74901656       0.74969878 </v>
    <v>       0.00293183       0.74697266       0.24806255 </v>
    <v>       0.75195179       0.99941950       0.24969054 </v>
    <v>       0.25116080       0.50009802       0.75110541 </v>
    <v>       0.25044636       0.75016732       0.49442832 </v>
    <v>       0.00064274       0.25275835       0.75382694 </v>
    <v>       0.49960020       0.49878053       0.49976998 </v>
    <v>      -0.00017490       0.00063918       0.49853952 </v>
    <v>       0.74907359       0.74902230       0.49844394 </v>
    <v>       0.25070752       0.00189299       0.74809278 </v>
    <v>       0.75149330       0.25135209       0.00088113 </v>
    <v>       0.49822621       0.24995417       0.24957067 </v>
    <v>       0.74872077       0.49587194       0.75710834 </v>
    <v>       0.00026855       0.49824493       0.00147989 </v>
    <v>       0.74924927       0.74999292       0.00078578 </v>
    <v>       0.99873092       0.74877084       0.74969769 </v>
    <v>       0.00012036       0.49997575       0.49944650 </v>
    <v>       0.24934165       0.25268889       0.00108133 </v>
    <v>       0.49737902       0.74598185       0.24825858 </v>
    <v>       0.24950596       0.50064184       0.24694977 </v>
    <v>       0.24764273       0.25033907       0.49945044 </v>
    <v>       0.74863336       0.00563805       0.75149753 </v>
    <v>       0.75203316       0.50025312       0.24482343 </v>
    <v>       0.00436732       0.25222559       0.24747296 </v>
    <v>       0.75113559       0.25143446       0.50007826 </v>
    <v>       0.00174666       0.00024193       0.00158033 </v>
    <v>       0.49888527       0.25287108       0.75483609 </v>
    <v>       0.49808699       0.00093678       0.00196704 </v>
   </varray>
  </structure>
  <varray name="forces" >
   <v>       0.12259425      -0.14118085      -0.11293208 </v>
   <v>      -0.32271594       0.43457084      -0.28675076 </v>
   <v>       0.13297277      -0.16490436      -0.12498313 </v>
   <v>       0.12599922       0.02447879      -0.20239936 </v>
   <v>      -0.32888306      -0.04639958       0.17394394 </v>
   <v>      -0.02539080       0.44083102      -0.14921754 </v>
   <v>      -0.11072219      -0.11183102       0.19019769 </v>
   <v>       0.21572794       0.39591729       0.16195756 </v>
   <v>       0.09586926       0.10929979       0.35721777 </v>
   <v>       0.16405467      -0.05759921      -0.21666667 </v>
   <v>      -0.04601518       0.11774085       0.21740602 </v>
   <v>      -0.08644780      -0.16474157      -0.18551731 </v>
   <v>      -0.10753433       0.26582125      -0.02920475 </v>
   <v>       0.17852301      -0.37751623       0.06835000 </v>
   <v>      -0.20920232      -0.27866538       0.28012948 </v>
   <v>       0.10709296      -0.27282936       0.11764383 </v>
   <v>      -0.17035297       0.41303545      -0.28827694 </v>
   <v>       0.27371530       0.48061606      -0.16125341 </v>
   <v>      -0.10708328       0.16972791       0.01007685 </v>
   <v>       0.25251124       0.00749939       0.07763460 </v>
   <v>       0.03731653       0.16400336       0.08169382 </v>
   <v>       0.21054900      -0.13988036      -0.06073313 </v>
   <v>       0.09378663       0.39964159      -0.06503651 </v>
   <v>       0.11451127       0.13068072      -0.00427449 </v>
   <v>       0.25229773      -0.10784382       0.05913596 </v>
   <v>      -0.16244312      -0.38388282      -0.17817325 </v>
   <v>      -0.14428964       0.07545018       0.23790385 </v>
   <v>      -0.21426594      -0.39124115       0.20930369 </v>
   <v>      -0.17905073      -0.25787082      -0.18382177 </v>
   <v>       0.08840473      -0.34816425       0.18760000 </v>
   <v>      -0.15110750      -0.07161360      -0.26566742 </v>
   <v>      -0.10042172      -0.31315012       0.08471345 </v>
  </varray>
  <varray name="stress" >
   <v>     -12.86576716       0.21078285       1.43356594 </v>
   <v>       0.21078260     -18.98827653       1.29485514 </v>
   <v>       1.43356594       1.29485506     -17.43735025 </v>
  </varray>
  <energy>
   <i name="e_fr_energy">   -125.24556499 </i>
   <i name="e_wo_entrp">   -125.24021803 </i>
   <i name="e_0_energy">     -0.01604089 </i>
  </energy>
  <time name="totalsc">    6.50    6.68</time>
 </calculation>
 <calculation>
  <scstep>
   <time name="dav">    0.80    0.80</time>
   <time name="total">    0.88    0.89</time>
   <energy>
    <i name="alphaZ">   2049.58952593 </i>
    <i name="ewald"> -29735.81333823 </i>
    <i name="hartreedc">  -3408.02312206 </i>
    <i name="XCdc">    386.62978700 </i>
    <i name="pawpsdc">  31756.46800459 </i>
    <i name="pawaedc"> -31054.87283865 </i>
    <i name="eentropy">     -0.01941832 </i>
    <i name="bandstr">   1823.05137756 </i>
    <i name="atom">  28057.59819964 </i>
    <i name="e_fr_energy">   -125.39182253 </i>
    <i name="e_wo_entrp">   -125.37240421 </i>
    <i name="e_0_energy">   -125.38534976 </i>
   </energy>
  </scstep>
  <scstep>
   <time name="diag">    0.07    0.07</time>
   <time name="diis">    0.40    0.41</time>
   <time name="orth">    0.01    0.01</time>
   <time name="total">    0.54    0.55</time>
   <energy>
    <i name="e_fr_energy">   -125.36355176 </i>
    <i name="e_wo_entrp">   -125.34861482 </i>
    <i name="e_0_energy">   -125.35857278 </i>
   </energy>
  </scstep>
  <scstep>
   <time name="diag">    0.07    0.07</time>
   <time name="diis">    0.41    0.41</time>
   <time name="orth">    0.01    0.01</time>
   <time name="total">    0.54    0.55</time>
   <energy>
    <i name="e_fr_energy">   -125.36236239 </i>
    <i name="e_wo_entrp">   -125.34270953 </i>
    <i name="e_0_energy">   -125.35581144 </i>
   </energy>
  </scstep>
  <scstep>
   <time name="diag">    0.07    0.07</time>
   <time name="diis">    0.40    0.41</time>
   <time name="orth">    0.01    0.01</time>
   <time name="total">    0.54    0.55</time>
   <energy>
    <i name="e_fr_energy">   -125.35655832 </i>
    <i name="e_wo_entrp">   -125.33896904 </i>
    <i name="e_0_energy">   -125.35069522 </i>
   </energy>
  </scstep>
  <scstep>
   <time name="diag">    0.07    0.07</time>
   <time name="diis">    0.40    0.40</time>
   <time name="orth">    0.04    0.04</time>
   <time name="total">    0.59    0.61</time>
   <energy>
    <i name="e_fr_energy">   -125.35660990 </i>
    <i name="e_wo_entrp">   -125.33895959 </i>
    <i name="e_0_energy">   -125.35072647 </i>
   </energy>
  </scstep>
  <scstep>
   <time name="diag">    0.07    0.07</time>
   <time name="diis">    0.42    0.42</time>
   <time name="orth">    0.01    0.01</time>
   <time name="total">    0.56    0.58</time>
   <energy>
    <i name="e_fr_energy">   -125.35620307 </i>
    <i name="e_wo_entrp">   -125.33834016 </i>
    <i name="e_0_energy">   -125.35024876 </i>
   </energy>
  </scstep>
  <scstep>
   <time name="diag">    0.11    0.11</time>
   <time name="diis">    0.41    0.41</time>
   <time name="orth">    0.01    0.01</time>
   <time name="total">    0.59    0.59</time>
   <energy>
    <i name="e_fr_energy">   -125.35620368 </i>
    <i name="e_wo_entrp">   -125.33848701 </i>
    <i name="e_0_energy">   -125.35029813 </i>
   </energy>
  </scstep>
  <scstep>
   <time name="diag">    0.07    0.07</time>
   <time name="diis">    0.29    0.29</time>
   <time name="orth">    0.01    0.01</time>
   <time name="total">    0.43    0.44</time>
   <energy>
    <i name="e_fr_energy">   -125.35617364 </i>
    <i name="e_wo_entrp">   -125.33837655 </i>
    <i name="e_0_energy">   -125.35024127 </i>
   </energy>
  </scstep>
  <scstep>
   <time name="diag">    0.07    0.07</time>
   <time name="diis">    0.23    0.23</time>
   <time name="orth">    0.01    0.01</time>
   <time name="total">    0.33    0.34</time>
   <energy>
    <i name="alphaZ">   2049.58952593 </i>
    <i name="ewald"> -29735.81333823 </i>
    <i name="hartreedc">  -3390.60419695 </i>
    <i name="XCdc">    385.92187717 </i>
    <i name="pawpsdc">  31819.78328149 </i>
    <i name="pawaedc"> -31118.86633912 </i>
    <i name="eentropy">     -0.01779489 </i>
    <i name="bandstr">   1807.05261069 </i>
    <i name="atom">  28057.59819964 </i>
    <i name="e_fr_energy">   -125.35617426 </i>
    <i name="e_wo_entrp">   -125.33837937 </i>
    <i name="e_0_energy">   -125.35024263 </i>
   </energy>
  </scstep>
  <structure>
   <crystal>
    <varray name="basis" >
     <v>       8.15731247       0.00246004       0.00672396 </v>
     <v>       0.00244458       8.24534581      -0.01201417 </v>
     <v>       0.00680420      -0.01198889       8.23934654 </v>
    </varray>
    <i name="volume">    554.17571041 </i>
    <varray name="rec_basis" >
     <v>       0.12258949      -0.00003649      -0.00010129 </v>
     <v>      -0.00003672       0.12128081       0.00017650 </v>
     <v>      -0.00010010       0.00017687       0.12136919 </v>
    </varray>
   </crystal>
   <varray name="positions" >
    <v>       0.49952746       0.00033769       0.49874897 </v>
    <v>       0.49904457       0.49925372       0.00007598 </v>
    <v>       0.24807768       0.99728074       0.25100750 </v>
    <v>       0.25104334       0.74745376      -0.00056840 </v>
    <v>       0.49959209       0.74889008       0.75017564 </v>
    <v>       0.00280934       0.74824595       0.24762770 </v>
    <v>       0.75164159       0.99913007       0.25022763 </v>
    <v>       0.25177302       0.50123898       0.75155102 </v>
    <v>       0.25071611       0.75047203       0.49551825 </v>
    <v>       0.00116242       0.25256548       0.75313165 </v>
    <v>       0.49949086       0.49908559       0.50040297 </v>
    <v>      -0.00046836       0.00018233       0.49802693 </v>
    <v>       0.74877376       0.74976507       0.49836656 </v>
    <v>       0.25121700       0.00082309       0.74829394 </v>
    <v>       0.75086327       0.25045300       0.00177587 </v>
    <v>       0.49856511       0.24915460       0.24993106 </v>
    <v>       0.74823278       0.49712296       0.75620072 </v>
    <v>       0.00112015       0.49971002       0.00097971 </v>
    <v>       0.74894906       0.75051008       0.00080697 </v>
    <v>       0.99945228       0.74878584       0.74992380 </v>
    <v>       0.00019429       0.50043415       0.49971843 </v>
    <v>       0.24999230       0.25225812       0.00087449 </v>
    <v>       0.49769589       0.74713362       0.24805910 </v>
    <v>       0.24986668       0.50100122       0.24693322 </v>
    <v>       0.24838088       0.25004429       0.49964467 </v>
    <v>       0.74817533       0.00451741       0.75096627 </v>
    <v>       0.75159664       0.50045216       0.24558761 </v>
    <v>       0.00369118       0.25106066       0.24812026 </v>
    <v>       0.75062556       0.25071000       0.49951559 </v>
    <v>       0.00200443      -0.00077368       0.00211770 </v>
    <v>       0.49839751       0.25265159       0.75403430 </v>
    <v>       0.49779382       0.00004838       0.00222389 </v>
   </varray>
  </structure>
  <varray name="forces" >
   <v>       0.09268781      -0.13621146      -0.09060232 </v>
   <v>      -0.24247750       0.35278802      -0.23580395 </v>
   <v>       0.11916296      -0.13637233      -0.09565392 </v>
   <v>       0.11547209       0.03213491      -0.14654354 </v>
   <v>      -0.26905033      -0.02827828       0.15683763 </v>
   <v>      -0.00838470       0.35234401      -0.10898533 </v>
   <v>      -0.10695812      -0.10815621       0.15611968 </v>
   <v>       0.16805082       0.31050462       0.12711480 </v>
   <v>       0.07806152       0.08622599       0.27115166 </v>
   <v>       0.11222852      -0.04372113      -0.15283263 </v>
   <v>      -0.04373842       0.11501973       0.15991263 </v>
   <v>      -0.04279846      -0.14258917      -0.13356977 </v>
   <v>      -0.08952377       0.21342983      -0.02016967 </v>
   <v>       0.13766098      -0.30070174       0.05130755 </v>
   <v>      -0.16299998      -0.19034274       0.18079692 </v>
   <v>       0.07345955      -0.20495127       0.08281434 </v>
   <v>      -0.12517858       0.30832068      -0.21938407 </v>
   <v>       0.18491761       0.34322429      -0.11209664 </v>
   <v>      -0.08584097       0.12229721       0.00376831 </v>
   <v>       0.19909342       0.02223227       0.05456868 </v>
   <v>       0.04369825       0.14115762       0.04749856 </v>
   <v>       0.14873528      -0.11255971      -0.03568696 </v>
   <v>       0.06454181       0.31867669      -0.02934130 </v>
   <v>       0.08228475       0.10335681       0.01705248 </v>
   <v>       0.20504216      -0.09461460       0.03921907 </v>
   <v>      -0.13185105      -0.31803871      -0.13045868 </v>
   <v>      -0.11448743       0.07003813       0.17145639 </v>
   <v>      -0.15447041      -0.28616096       0.14852350 </v>
   <v>      -0.14811356      -0.20672443      -0.12542688 </v>
   <v>       0.06786059      -0.26541196       0.12873022 </v>
   <v>      -0.09247428      -0.06862884      -0.21002196 </v>
   <v>      -0.07461058      -0.24828728       0.04970518 </v>
  </varray>
  <varray name="stress" >
   <v>      -8.18879186       0.21608297       1.37500975 </v>
   <v>       0.21608310     -13.98082144       1.11261771 </v>
   <v>       1.37500962       1.11261792     -12.79681074 </v>
  </varray>
  <energy>
   <i name="e_fr_energy">   -125.35617426 </i>
   <i name="e_wo_entrp">   -125.35024263 </i>
   <i name="e_0_energy">     -0.01779489 </i>
  </energy>
  <time name="totalsc">    6.12    6.36</time>
 </calculation>
 <calculation>
  <scstep>
   <time name="dav">    0.73    0.74</time>
   <time name="total">    0.79    0.79</time>
   <energy>
    <i name="alphaZ">   2070.92843648 </i>
    <i name="ewald"> -29848.27481038 </i>
    <i name="hartreedc">  -3393.19543991 </i>
    <i name="XCdc">    389.28326806 </i>
    <i name="pawpsdc">  31819.46598500 </i>
    <i name="pawaedc"> -31118.53816879 </i>
    <i name="eentropy">     -0.01964956 </i>
    <i name="bandstr">   1896.93327292 </i>
    <i name="atom">  28057.59819964 </i>
    <i name="e_fr_energy">   -125.81890655 </i>
    <i name="e_wo_entrp">   -125.79925699 </i>
    <i name="e_0_energy">   -125.81235670 </i>
   </energy>
  </scstep>
  <scstep>
   <time name="diag">    0.07    0.08</time>
   <time name="diis">    0.41    0.41</time>
   <time name="orth">    0.01    0.01</time>
   <time name="total">    0.55    0.56</time>
   <energy>
    <i name="e_fr_energy">   -125.55470453 </i>
    <i name="e_wo_entrp">   -125.54085028 </i>
    <i name="e_0_energy">   -125.55008645 </i>
   </energy>
  </scstep>
  <scstep>
   <time name="diag">    0.07    0.07</time>
   <time name="diis">    0.41    0.41</time>
   <time name="orth">    0.01    0.01</time>
   <time name="total">    0.58    0.59</time>
   <energy>
    <i name="e_fr_energy">   -125.54958618 </i>
    <i name="e_wo_entrp">   -125.52851110 </i>
    <i name="e_0_energy">   -125.54256115 </i>
   </energy>
  </scstep>
  <scstep>
   <time name="diag">    0.08    0.08</time>
   <time name="diis">    0.45    0.45</time>
   <time name="orth">    0.01    0.01</time>
   <time name="total">    0.61    0.62</time>
   <energy>
    <i name="e_fr_energy">   -125.50158897 </i>
    <i name="e_wo_entrp">   -125.48128268 </i>
    <i name="e_0_energy">   -125.49482020 </i>
   </energy>
  </scstep>
  <scstep>
   <time name="diag">    0.07    0.07</time>
   <time name="diis">    0.42    0.42</time>
   <time name="orth">    0.01    0.01</time>
   <time name="total">    0.58    0.58</time>
   <energy>
    <i name="e_fr_energy">   -125.50179031 </i>
    <i name="e_wo_entrp">   -125.48036650 </i>
    <i name="e_0_energy">   -125.49464904 </i>
   </energy>
  </scstep>
  <scstep>
   <time name="diag">    0.07    0.07</time>
   <time name="diis">    0.42    0.42</time>
   <time name="orth">    0.01    0.01</time>
   <time name="total">    0.55    0.56</time>
   <energy>
    <i name="e_fr_energy">   -125.49819803 </i>
    <i name="e_wo_entrp">   -125.47690256 </i>
    <i name="e_0_energy">   -125.49109954 </i>
   </energy>
  </scstep>
  <scstep>
   <time name="diag">    0.07    0.07</time>
   <time name="diis">    0.41    0.41</time>
   <time name="orth">    0.01    0.01</time>
   <time name="total">    0.59    0.59</time>
   <energy>
    <i name="e_fr_energy">   -125.49820643 </i>
    <i name="e_wo_entrp">   -125.47714596 </i>
    <i name="e_0_energy">   -125.49118627 </i>
   </energy>
  </scstep>
  <scstep>
   <time name="diag">    0.07    0.07</time>
   <time name="diis">    0.40    0.41</time>
   <time name="orth">    0.01    0.01</time>
   <time name="total">    0.56    0.57</time>
   <energy>
    <i name="e_fr_energy">   -125.49797489 </i>
    <i name="e_wo_entrp">   -125.47679747 </i>
    <i name="e_0_energy">   -125.49091575 </i>
   </energy>
  </scstep>
  <scstep>
   <time name="diag">    0.07    0.07</time>
   <time name="diis">    0.30    0.30</time>
   <time name="orth">    0.01    0.01</time>
   <time name="total">    0.41    0.41</time>
   <energy>
    <i name="alphaZ">   2070.92843648 </i>
    <i name="ewald"> -29848.27481038 </i>
    <i name="hartreedc">  -3340.96236917 </i>
    <i name="XCdc">    387.16260578 </i>
    <i name="pawpsdc">  32034.69262506 </i>
    <i name="pawaedc"> -31335.82617258 </i>
    <i name="eentropy">     -0.02116882 </i>
    <i name="bandstr">   1849.20468023 </i>
    <i name="atom">  28057.59819964 </i>
    <i name="e_fr_energy">   -125.49797377 </i>
    <i name="e_wo_entrp">   -125.47680494 </i>
    <i name="e_0_energy">   -125.49091749 </i>
   </energy>
  </scstep>
  <structure>
   <crystal>
    <varray name="basis" >
     <v>       8.15091882       0.00364933       0.01528121 </v>
     <v>       0.00363869       8.20083634      -0.00362369 </v>
     <v>       0.01546608      -0.00359121       8.20514539 </v>
    </varray>
    <i name="volume">    548.46546678 </i>
    <varray name="rec_basis" >
     <v>       0.12268601      -0.00005454      -0.00023128 </v>
     <v>      -0.00005469       0.12193883       0.00005347 </v>
     <v>      -0.00022851       0.00005395       0.12187520 </v>
    </varray>
   </crystal>
   <varray name="positions" >
    <v>       0.50064285      -0.00078289       0.49780849 </v>
    <v>       0.49614518       0.50301923      -0.00232637 </v>
    <v>       0.24923643       0.99594332       0.24985098 </v>
    <v>       0.25205288       0.74768002      -0.00241270 </v>
    <v>       0.49679131       0.74850962       0.75160929 </v>
    <v>       0.00244208       0.75207314       0.24632020 </v>
    <v>       0.75071020       0.99825970       0.25184172 </v>
    <v>       0.25360949       0.50466748       0.75288790 </v>
    <v>       0.25152436       0.75138666       0.49879199 </v>
    <v>       0.00272262       0.25198647       0.75104253 </v>
    <v>       0.49916204       0.50000181       0.50230435 </v>
    <v>      -0.00134836      -0.00119011       0.49648778 </v>
    <v>       0.74787400       0.75199751       0.49813368 </v>
    <v>       0.25274575      -0.00239268       0.74889883 </v>
    <v>       0.74897185       0.24775006       0.00446534 </v>
    <v>       0.49958182       0.24675114       0.25101419 </v>
    <v>       0.74676922       0.50088374       0.75347333 </v>
    <v>       0.00367594       0.50411355      -0.00052529 </v>
    <v>       0.74804809       0.75206436       0.00087041 </v>
    <v>       0.00161666       0.74883060       0.75060232 </v>
    <v>       0.00041577       0.50181156       0.50053481 </v>
    <v>       0.25194504       0.25096361       0.00025286 </v>
    <v>       0.49864678       0.75059531       0.24745834 </v>
    <v>       0.25094911       0.50208124       0.24688278 </v>
    <v>       0.25059577       0.24915805       0.50022771 </v>
    <v>       0.74680159       0.00115007       0.74937189 </v>
    <v>       0.75028590       0.50104962       0.24788358 </v>
    <v>       0.00166172       0.24755905       0.25006674 </v>
    <v>       0.74909576       0.24853333       0.49782651 </v>
    <v>       0.00277752      -0.00382659       0.00373280 </v>
    <v>       0.49693471       0.25199284       0.75162632 </v>
    <v>       0.49691393      -0.00262181       0.00299670 </v>
   </varray>
  </structure>
  <varray name="forces" >
   <v>      -0.01997100      -0.11848132      -0.00458865 </v>
   <v>       0.01974522       0.08772392      -0.05682262 </v>
   <v>       0.06754996      -0.03749973       0.00702377 </v>
   <v>       0.06599664       0.06685164       0.06366560 </v>
   <v>      -0.03648864       0.04836897       0.07141972 </v>
   <v>       0.03971070       0.04251661       0.03258296 </v>
   <v>      -0.07651102      -0.08213502       0.02216218 </v>
   <v>       0.00062375       0.00632246       0.00148233 </v>
   <v>       0.02098283       0.01394522      -0.01366214 </v>
   <v>      -0.03321886      -0.01607680       0.02912462 </v>
   <v>      -0.04319806       0.10323493      -0.03211660 </v>
   <v>       0.09253607      -0.07610209       0.02757103 </v>
   <v>      -0.03122357       0.02716797       0.01004821 </v>
   <v>       0.01054672      -0.04017827       0.00918157 </v>
   <v>      -0.02881200       0.06156176      -0.10400107 </v>
   <v>      -0.04837048       0.00526863      -0.02471894 </v>
   <v>       0.00782865       0.00807411      -0.02073334 </v>
   <v>      -0.07495433      -0.06153268       0.04117924 </v>
   <v>      -0.01454561      -0.02643337      -0.01518929 </v>
   <v>       0.00535907       0.08795951      -0.03123352 </v>
   <v>       0.06189414       0.05928835      -0.06076305 </v>
   <v>      -0.03104604      -0.02911664       0.04077937 </v>
   <v>      -0.01773687       0.03449448       0.08977328 </v>
   <v>      -0.00549267       0.02829697       0.08636170 </v>
   <v>       0.04268556      -0.04978117      -0.03309625 </v>
   <v>      -0.03985556      -0.10419077       0.01313175 </v>
   <v>      -0.02540022       0.05293658      -0.01662199 </v>
   <v>       0.02373397       0.01236244      -0.02058453 </v>
   <v>      -0.04177426      -0.04274285       0.06736972 </v>
   <v>       0.00018844       0.02551589      -0.07039294 </v>
   <v>       0.09173744      -0.06778129      -0.03436583 </v>
   <v>       0.01748001      -0.01983845      -0.07396630 </v>
  </varray>
  <varray name="stress" >
   <v>       8.88988395       0.29927734       1.00103450 </v>
   <v>       0.29927707       4.07427324      -0.07911484 </v>
   <v>       1.00103509      -0.07911504       4.32622774 </v>
  </varray>
  <energy>
   <i name="e_fr_energy">   -125.49797377 </i>
   <i name="e_wo_entrp">   -125.49091749 </i>
   <i name="e_0_energy">     -0.02116882 </i>
  </energy>
  <time name="totalsc">    6.43    6.49</time>
 </calculation>
 <calculation>
  <scstep>
   <time name="dav">    0.78    0.85</time>
   <time name="total">    0.84    0.91</time>
   <energy>
    <i name="alphaZ">   2070.16193051 </i>
    <i name="ewald"> -29844.61163570 </i>
    <i name="hartreedc">  -3340.61847995 </i>
    <i name="XCdc">    387.04422136 </i>
    <i name="pawpsdc">  32033.30200989 </i>
    <i name="pawaedc"> -31334.40223548 </i>
    <i name="eentropy">     -0.02111178 </i>
    <i name="bandstr">   1846.04856460 </i>
    <i name="atom">  28057.59819964 </i>
    <i name="e_fr_energy">   -125.49853691 </i>
    <i name="e_wo_entrp">   -125.47742513 </i>
    <i name="e_0_energy">   -125.49149965 </i>
   </energy>
  </scstep>
  <scstep>
   <time name="diag">    0.07    0.07</time>
   <time name="diis">    0.41    0.41</time>
   <time name="orth">    0.01    0.01</time>
   <time name="total">    0.55    0.55</time>
   <energy>
    <i name="e_fr_energy">   -125.49822106 </i>
    <i name="e_wo_entrp">   -125.47693654 </i>
    <i name="e_0_energy">   -125.49112622 </i>
   </energy>
  </scstep>
  <scstep>
   <time name="diag">    0.07    0.07</time>
   <time name="diis">    0.41    0.41</time>
   <time name="orth">    0.01    0.01</time>
   <time name="total">    0.54    0.55</time>
   <energy>
    <i name="e_fr_energy">   -125.49819675 </i>
    <i name="e_wo_entrp">   -125.47719960 </i>
    <i name="e_0_energy">   -125.49119770 </i>
   </energy>
  </scstep>
  <scstep>
   <time name="diag">    0.07    0.07</time>
   <time name="diis">    0.37    0.41</time>
   <time name="orth">    0.01    0.02</time>
   <time name="total">    0.52    0.56</time>
   <energy>
    <i name="e_fr_energy">   -125.49812601 </i>
    <i name="e_wo_entrp">   -125.47697377 </i>
    <i name="e_0_energy">   -125.49107526 </i>
   </energy>
  </scstep>
  <scstep>
   <time name="diag">    0.07    0.08</time>
   <time name="diis">    0.25    0.31</time>
   <time name="orth">    0.01    0.01</time>
   <time name="total">    0.36    0.44</time>
   <energy>
    <i name="alphaZ">   2070.16193051 </i>
    <i name="ewald"> -29844.61163570 </i>
    <i name="hartreedc">  -3342.50539605 </i>
    <i name="XCdc">    387.12067862 </i>
    <i name="pawpsdc">  32024.02763256 </i>
    <i name="pawaedc"> -31325.01816626 </i>
    <i name="eentropy">     -0.02112620 </i>
    <i name="bandstr">   1847.74976088 </i>
    <i name="atom">  28057.59819964 </i>
    <i name="e_fr_energy">   -125.49812200 </i>
    <i name="e_wo_entrp">   -125.47699580 </i>
    <i name="e_0_energy">   -125.49107993 </i>
   </energy>
  </scstep>
  <structure>
   <crystal>
    <varray name="basis" >
     <v>       8.15114679       0.00360692       0.01497609 </v>
     <v>       0.00359611       8.20242337      -0.00392286 </v>
     <v>       0.01515724      -0.00389064       8.20636487 </v>
    </varray>
    <i name="volume">    548.66854367 </i>
    <varray name="rec_basis" >
     <v>       0.12268256      -0.00005389      -0.00022662 </v>
     <v>      -0.00005405       0.12191524       0.00005790 </v>
     <v>      -0.00022391       0.00005838       0.12185708 </v>
    </varray>
   </crystal>
   <varray name="positions" >
    <v>       0.50060300      -0.00074275       0.49784216 </v>
    <v>       0.49624857       0.50288413      -0.00224033 </v>
    <v>       0.24919503       0.99599123       0.24989239 </v>
    <v>       0.25201679       0.74767185      -0.00234662 </v>
    <v>       0.49689131       0.74852329       0.75155784 </v>
    <v>       0.00245515       0.75193589       0.24636714 </v>
    <v>       0.75074349       0.99829096       0.25178386 </v>
    <v>       0.25354403       0.50454463       0.75284023 </v>
    <v>       0.25149565       0.75135399       0.49867483 </v>
    <v>       0.00266687       0.25200716       0.75111736 </v>
    <v>       0.49917385       0.49996903       0.50223629 </v>
    <v>      -0.00131703      -0.00114097       0.49654281 </v>
    <v>       0.74790611       0.75191747       0.49814207 </v>
    <v>       0.25269121      -0.00227737       0.74887711 </v>
    <v>       0.74903944       0.24784705       0.00436887 </v>
    <v>       0.49954557       0.24683735       0.25097536 </v>
    <v>       0.74682136       0.50074881       0.75357107 </v>
    <v>       0.00358470       0.50395565      -0.00047115 </v>
    <v>       0.74808025       0.75200864       0.00086816 </v>
    <v>       0.00153945       0.74882903       0.75057811 </v>
    <v>       0.00040791       0.50176221       0.50050564 </v>
    <v>       0.25187533       0.25101000       0.00027515 </v>
    <v>       0.49861284       0.75047119       0.24748001 </v>
    <v>       0.25091049       0.50204253       0.24688467 </v>
    <v>       0.25051675       0.24918985       0.50020688 </v>
    <v>       0.74685053       0.00127073       0.74942881 </v>
    <v>       0.75033276       0.50102827       0.24780134 </v>
    <v>       0.00173420       0.24768464       0.24999684 </v>
    <v>       0.74915027       0.24861130       0.49788685 </v>
    <v>       0.00274998      -0.00371708       0.00367489 </v>
    <v>       0.49698682       0.25201636       0.75171245 </v>
    <v>       0.49694534      -0.00252606       0.00296890 </v>
   </varray>
  </structure>
  <varray name="forces" >
   <v>      -0.01507593      -0.11969195      -0.00845429 </v>
   <v>       0.00915345       0.09895375      -0.06504998 </v>
   <v>       0.07003116      -0.04134159       0.00287958 </v>
   <v>       0.06866780       0.06537652       0.05433409 </v>
   <v>      -0.04673589       0.04458450       0.07532726 </v>
   <v>       0.03774606       0.05581748       0.02686725 </v>
   <v>      -0.07837749      -0.08336855       0.02752011 </v>
   <v>       0.00836502       0.01948285       0.00730522 </v>
   <v>       0.02479553       0.01625641      -0.00174194 </v>
   <v>      -0.02712908      -0.01678280       0.02168532 </v>
   <v>      -0.04373974       0.10410476      -0.02544674 </v>
   <v>       0.08743547      -0.07815900       0.02027329 </v>
   <v>      -0.03328208       0.03449678       0.00875208 </v>
   <v>       0.01541804      -0.05069372       0.01157731 </v>
   <v>      -0.03369203       0.05173034      -0.09220734 </v>
   <v>      -0.04388839      -0.00200055      -0.02114101 </v>
   <v>       0.00311137       0.01895343      -0.02760431 </v>
   <v>      -0.06503685      -0.04778298       0.03532462 </v>
   <v>      -0.01794599      -0.02105181      -0.01457827 </v>
   <v>       0.01229993       0.08502567      -0.02797466 </v>
   <v>       0.06080243       0.06183142      -0.05619055 </v>
   <v>      -0.02517713      -0.03163156       0.03832135 </v>
   <v>      -0.01508595       0.04593930       0.08572481 </v>
   <v>      -0.00179846       0.03070675       0.08400481 </v>
   <v>       0.04933711      -0.05076109      -0.02998869 </v>
   <v>      -0.04301905      -0.11218457       0.00712800 </v>
   <v>      -0.02827373       0.05343411      -0.01028650 </v>
   <v>       0.01527865       0.00103722      -0.01409592 </v>
   <v>      -0.04648925      -0.04952889       0.05988171 </v>
   <v>       0.00221881       0.01428568      -0.06267157 </v>
   <v>       0.08538191      -0.06744168      -0.04041954 </v>
   <v>       0.01470429      -0.02959622      -0.06905551 </v>
  </varray>
  <varray name="stress" >
   <v>       8.14971395       0.29593006       1.02180948 </v>
   <v>       0.29593080       3.33498184      -0.03204042 </v>
   <v>       1.02180957      -0.03204028       3.60187276 </v>
  </varray>
  <energy>
   <i name="e_fr_energy">   -125.49812200 </i>
   <i name="e_wo_entrp">   -125.49107993 </i>
   <i name="e_0_energy">     -0.02112620 </i>
  </energy>
  <time name="totalsc">    3.97    4.19</time>
 </calculation>
 <calculation>
  <scstep>
   <time name="dav">    0.79    0.81</time>
   <time name="total">    0.87    0.89</time>
   <energy>
    <i name="alphaZ">   2063.12064585 </i>
    <i name="ewald"> -29810.85479731 </i>
    <i name="hartreedc">  -3338.55777050 </i>
    <i name="XCdc">    386.03744723 </i>
    <i name="pawpsdc">  32023.19514495 </i>
    <i name="pawaedc"> -31324.19207857 </i>
    <i name="eentropy">     -0.02025396 </i>
    <i name="bandstr">   1818.11855962 </i>
    <i name="atom">  28057.59819964 </i>
    <i name="e_fr_energy">   -125.55490306 </i>
    <i name="e_wo_entrp">   -125.53464910 </i>
    <i name="e_0_energy">   -125.54815174 </i>
   </energy>
  </scstep>
  <scstep>
   <time name="diag">    0.08    0.08</time>
   <time name="diis">    0.41    0.41</time>
   <time name="orth">    0.01    0.01</time>
   <time name="total">    0.57    0.57</time>
   <energy>
    <i name="e_fr_energy">   -125.51409174 </i>
    <i name="e_wo_entrp">   -125.49189711 </i>
    <i name="e_0_energy">   -125.50669353 </i>
   </energy>
  </scstep>
  <scstep>
   <time name="diag">    0.07    0.07</time>
   <time name="diis">    0.40    0.40</time>
   <time name="orth">    0.01    0.01</time>
   <time name="total">    0.54    0.54</time>
   <energy>
    <i name="e_fr_energy">   -125.51339993 </i>
    <i name="e_wo_entrp">   -125.49340007 </i>
    <i name="e_0_energy">   -125.50673331 </i>
   </energy>
  </scstep>
  <scstep>
   <time name="diag">    0.09    0.09</time>
   <time name="diis">    0.41    0.41</time>
   <time name="orth">    0.01    0.01</time>
   <time name="total">    0.60    0.61</time>
   <energy>
    <i name="e_fr_energy">   -125.50906062 </i>
    <i name="e_wo_entrp">   -125.48744175 </i>
    <i name="e_0_energy">   -125.50185433 </i>
   </energy>
  </scstep>
  <scstep>
   <time name="diag">    0.07    0.07</time>
   <time name="diis">    0.41    0.41</time>
   <time name="orth">    0.01    0.01</time>
   <time name="total">    0.54    0.55</time>
   <energy>
    <i name="e_fr_energy">   -125.50931213 </i>
    <i name="e_wo_entrp">   -125.48788936 </i>
    <i name="e_0_energy">   -125.50217121 </i>
   </energy>
  </scstep>
  <scstep>
   <time name="diag">    0.07    0.07</time>
   <time name="diis">    0.46    0.46</time>
   <time name="orth">    0.04    0.05</time>
   <time name="total">    0.61    0.65</time>
   <energy>
    <i name="e_fr_energy">   -125.50879355 </i>
    <i name="e_wo_entrp">   -125.48718008 </i>
    <i name="e_0_energy">   -125.50158906 </i>
   </energy>
  </scstep>
  <scstep>
   <time name="diag">    0.08    0.12</time>
   <time name="diis">    0.28    0.31</time>
   <time name="orth">    0.01    0.01</time>
   <time name="total">    0.42    0.50</time>
   <energy>
    <i name="e_fr_energy">   -125.50878287 </i>
    <i name="e_wo_entrp">   -125.48713693 </i>
    <i name="e_0_energy">   -125.50156756 </i>
   </energy>
  </scstep>
  <scstep>
   <time name="diag">    0.09    0.09</time>
   <time name="diis">    0.26    0.30</time>
   <time name="orth">    0.01    0.01</time>
   <time name="total">    0.39    0.45</time>
   <energy>
    <i name="alphaZ">   2063.12064585 </i>
    <i name="ewald"> -29810.85479731 </i>
    <i name="hartreedc">  -3355.59642103 </i>
    <i name="XCdc">    386.72941117 </i>
    <i name="pawpsdc">  31955.48958754 </i>
    <i name="pawaedc"> -31255.88323827 </i>
    <i name="eentropy">     -0.02160939 </i>
    <i name="bandstr">   1833.90944492 </i>
[...]
       <r>    7.8429    1.0000 </r>
       <r>    7.8702    1.0000 </r>
       <r>    7.9310    1.0000 </r>
       <r>    7.9667    1.0000 </r>
       <r>    8.0135    1.0000 </r>
       <r>    8.0539    1.0000 </r>
       <r>    8.1103    1.0000 </r>
       <r>    8.1835    1.0000 </r>
       <r>    8.2348    1.0000 </r>
       <r>    8.2699    1.0000 </r>
       <r>    8.2859    1.0000 </r>
       <r>    8.3399    1.0000 </r>
       <r>    8.3784    1.0000 </r>
       <r>    8.4524    1.0000 </r>
       <r>    8.5495    1.0013 </r>
       <r>    8.6933    1.0268 </r>
       <r>    8.8095    0.9747 </r>
       <r>    8.9114    0.5556 </r>
       <r>    8.9633    0.2731 </r>
       <r>    9.6395   -0.0000 </r>
       <r>    9.7567   -0.0000 </r>
       <r>    9.8119   -0.0000 </r>
       <r>    9.8857   -0.0000 </r>
       <r>    9.9486   -0.0000 </r>
       <r>    9.9890   -0.0000 </r>
       <r>   10.3043   -0.0000 </r>
       <r>   10.3584   -0.0000 </r>
       <r>   10.4315   -0.0000 </r>
       <r>   10.7596   -0.0000 </r>
       <r>   10.8550   -0.0000 </r>
       <r>   10.9975   -0.0000 </r>
       <r>   11.9208   -0.0000 </r>
       <r>   11.9592   -0.0000 </r>
       <r>   12.0341   -0.0000 </r>
       <r>   12.0635   -0.0000 </r>
       <r>   12.1725   -0.0000 </r>
       <r>   12.2230   -0.0000 </r>
       <r>   12.3561   -0.0000 </r>
       <r>   12.4978   -0.0000 </r>
       <r>   12.6476   -0.0000 </r>
       <r>   13.0601    0.0000 </r>
       <r>   13.1768    0.0000 </r>
       <r>   13.3321    0.0000 </r>
       <r>   13.7032    0.0000 </r>
       <r>   13.7140    0.0000 </r>
       <r>   13.7635    0.0000 </r>
       <r>   14.3792    0.0000 </r>
       <r>   14.4689    0.0000 </r>
       <r>   14.5754    0.0000 </r>
       <r>   14.6004    0.0000 </r>
       <r>   14.6755    0.0000 </r>
       <r>   14.8197    0.0000 </r>
       <r>   15.7174    0.0000 </r>
       <r>   15.7991    0.0000 </r>
       <r>   15.8282    0.0000 </r>
       <r>   15.9794    0.0000 </r>
      </set>
     </set>
    </set>
   </array>
  </eigenvalues>
  <separator name="orbital magnetization" >
   <v name="MAGDIPOLOUT">      0.00000000      0.00000000      0.00000000</v>
  </separator>
  <dos>
   <i name="efermi">      8.92126934 </i>
   <total>
    <array>
     <dimension dim="1">gridpoints</dimension>
     <dimension dim="2">spin</dimension>
     <field>energy</field>
     <field>total</field>
     <field>integrated</field>
     <set>
      <set comment="spin 1">
       <r>    -1.8174     0.0000     0.0000 </r>
       <r>    -1.7510     0.0000     0.0000 </r>
       <r>    -1.6846     0.0000     0.0000 </r>
       <r>    -1.6182     0.0000     0.0000 </r>
       <r>    -1.5518    -0.0000    -0.0000 </r>
       <r>    -1.4855    -0.0000    -0.0000 </r>
       <r>    -1.4191    -0.0000    -0.0000 </r>
       <r>    -1.3527    -0.0000    -0.0000 </r>
       <r>    -1.2863    -0.0000    -0.0000 </r>
       <r>    -1.2200    -0.0000    -0.0000 </r>
       <r>    -1.1536    -0.0000    -0.0000 </r>
       <r>    -1.0872    -0.0000    -0.0000 </r>
       <r>    -1.0208    -0.0000    -0.0000 </r>
       <r>    -0.9544    -0.0000    -0.0000 </r>
       <r>    -0.8881    -0.0000    -0.0000 </r>
       <r>    -0.8217    -0.0000    -0.0000 </r>
       <r>    -0.7553    -0.0002    -0.0000 </r>
       <r>    -0.6889    -0.0013    -0.0001 </r>
       <r>    -0.6226    -0.0065    -0.0005 </r>
       <r>    -0.5562    -0.0182    -0.0017 </r>
       <r>    -0.4898    -0.0125    -0.0026 </r>
       <r>    -0.4234     0.0792     0.0027 </r>
       <r>    -0.3570     0.2650     0.0203 </r>
       <r>    -0.2907     0.3565     0.0439 </r>
       <r>    -0.2243     0.1950     0.0569 </r>
       <r>    -0.1579     0.0856     0.0626 </r>
       <r>    -0.0915     0.6431     0.1053 </r>
       <r>    -0.0252     1.7872     0.2239 </r>
       <r>     0.0412     2.2709     0.3746 </r>
       <r>     0.1076     1.4348     0.4699 </r>
       <r>     0.1740     0.7975     0.5228 </r>
       <r>     0.2404     2.1017     0.6623 </r>
       <r>     0.3067     4.2454     0.9441 </r>
       <r>     0.3731     4.3615     1.2336 </r>
       <r>     0.4395     2.4320     1.3950 </r>
       <r>     0.5059     1.4454     1.4910 </r>
       <r>     0.5722     2.3790     1.6489 </r>
       <r>     0.6386     2.9729     1.8462 </r>
       <r>     0.7050     1.8923     1.9718 </r>
       <r>     0.7714     0.6797     2.0170 </r>
       <r>     0.8378     0.8607     2.0741 </r>
       <r>     0.9041     1.6924     2.1864 </r>
       <r>     0.9705     1.7817     2.3047 </r>
       <r>     1.0369     1.9668     2.4352 </r>
       <r>     1.1033     4.3295     2.7226 </r>
       <r>     1.1696     7.8194     3.2417 </r>
       <r>     1.2360     9.2371     3.8548 </r>
       <r>     1.3024     8.9520     4.4490 </r>
       <r>     1.3688     9.1121     5.0539 </r>
       <r>     1.4352     8.3445     5.6078 </r>
       <r>     1.5015     5.0943     5.9459 </r>
       <r>     1.5679     1.4419     6.0416 </r>
       <r>     1.6343    -0.4846     6.0094 </r>
       <r>     1.7007    -0.9752     5.9447 </r>
       <r>     1.7670    -0.1150     5.9371 </r>
       <r>     1.8334     3.6621     6.1802 </r>
       <r>     1.8998    10.0059     6.8443 </r>
       <r>     1.9662    14.2453     7.7899 </r>
       <r>     2.0326    12.8856     8.6452 </r>
       <r>     2.0989     8.3271     9.1980 </r>
       <r>     2.1653     5.4732     9.5612 </r>
       <r>     2.2317     7.7989    10.0789 </r>
       <r>     2.2981    15.5439    11.1107 </r>
       <r>     2.3644    24.7847    12.7558 </r>
       <r>     2.4308    29.6425    14.7235 </r>
       <r>     2.4972    27.5561    16.5526 </r>
       <r>     2.5636    23.1948    18.0922 </r>
       <r>     2.6300    23.9821    19.6841 </r>
       <r>     2.6963    32.0529    21.8117 </r>
       <r>     2.7627    43.1200    24.6739 </r>
       <r>     2.8291    51.0358    28.0615 </r>
       <r>     2.8955    53.2037    31.5931 </r>
       <r>     2.9618    51.8297    35.0334 </r>
       <r>     3.0282    49.9534    38.3492 </r>
       <r>     3.0946    49.1965    41.6147 </r>
       <r>     3.1610    50.9273    44.9952 </r>
       <r>     3.2274    56.0383    48.7149 </r>
       <r>     3.2937    62.0318    52.8324 </r>
       <r>     3.3601    63.5937    57.0536 </r>
       <r>     3.4265    57.9057    60.8973 </r>
       <r>     3.4929    47.3802    64.0423 </r>
       <r>     3.5592    38.6388    66.6070 </r>
       <r>     3.6256    38.6932    69.1754 </r>
       <r>     3.6920    47.7327    72.3438 </r>
       <r>     3.7584    57.3682    76.1517 </r>
       <r>     3.8248    59.6544    80.1115 </r>
       <r>     3.8911    53.5766    83.6678 </r>
       <r>     3.9575    43.2537    86.5388 </r>
       <r>     4.0239    35.3075    88.8825 </r>
       <r>     4.0903    36.3440    91.2949 </r>
       <r>     4.1566    48.1472    94.4908 </r>
       <r>     4.2230    63.4166    98.7003 </r>
       <r>     4.2894    70.7350   103.3955 </r>
       <r>     4.3558    67.0351   107.8451 </r>
       <r>     4.4222    60.3169   111.8488 </r>
       <r>     4.4885    58.6425   115.7414 </r>
       <r>     4.5549    62.2571   119.8739 </r>
       <r>     4.6213    67.0528   124.3247 </r>
       <r>     4.6877    70.0219   128.9726 </r>
       <r>     4.7540    69.8257   133.6075 </r>
       <r>     4.8204    66.8337   138.0437 </r>
       <r>     4.8868    64.8656   142.3494 </r>
       <r>     4.9532    68.5307   146.8983 </r>
       <r>     5.0196    76.5175   151.9773 </r>
       <r>     5.0859    81.8733   157.4119 </r>
       <r>     5.1523    80.7917   162.7747 </r>
       <r>     5.2187    75.9826   167.8182 </r>
       <r>     5.2851    71.2752   172.5493 </r>
       <r>     5.3514    68.0497   177.0663 </r>
       <r>     5.4178    65.9623   181.4447 </r>
       <r>     5.4842    64.0252   185.6946 </r>
       <r>     5.5506    61.4201   189.7715 </r>
       <r>     5.6170    59.0395   193.6904 </r>
       <r>     5.6833    59.0196   197.6080 </r>
       <r>     5.7497    60.4202   201.6186 </r>
       <r>     5.8161    59.8165   205.5890 </r>
       <r>     5.8825    58.0545   209.4426 </r>
       <r>     5.9488    58.8593   213.3495 </r>
       <r>     6.0152    61.4028   217.4253 </r>
       <r>     6.0816    62.2730   221.5588 </r>
       <r>     6.1480    61.1593   225.6185 </r>
       <r>     6.2144    59.1413   229.5441 </r>
       <r>     6.2807    55.9292   233.2566 </r>
       <r>     6.3471    51.5378   236.6775 </r>
       <r>     6.4135    48.3425   239.8864 </r>
       <r>     6.4799    48.6930   243.1185 </r>
       <r>     6.5462    51.6413   246.5464 </r>
       <r>     6.6126    54.8058   250.1843 </r>
       <r>     6.6790    57.0211   253.9692 </r>
       <r>     6.7454    58.1552   257.8294 </r>
       <r>     6.8118    58.1745   261.6909 </r>
       <r>     6.8781    56.0512   265.4114 </r>
       <r>     6.9445    50.9328   268.7922 </r>
       <r>     7.0109    44.8727   271.7708 </r>
       <r>     7.0773    41.5344   274.5278 </r>
       <r>     7.1436    42.4387   277.3447 </r>
       <r>     7.2100    45.6286   280.3735 </r>
       <r>     7.2764    47.6551   283.5367 </r>
       <r>     7.3428    46.9398   286.6525 </r>
       <r>     7.4092    44.3639   289.5972 </r>
       <r>     7.4755    41.7533   292.3687 </r>
       <r>     7.5419    40.3009   295.0438 </r>
       <r>     7.6083    39.5521   297.6692 </r>
       <r>     7.6747    39.0005   300.2580 </r>
       <r>     7.7410    39.1701   302.8580 </r>
       <r>     7.8074    40.3612   305.5371 </r>
       <r>     7.8738    42.1391   308.3342 </r>
       <r>     7.9402    43.7415   311.2376 </r>
       <r>     8.0066    44.4472   314.1879 </r>
       <r>     8.0729    43.9566   317.1057 </r>
       <r>     8.1393    42.9926   319.9594 </r>
       <r>     8.2057    42.6992   322.7937 </r>
       <r>     8.2721    42.8266   325.6364 </r>
       <r>     8.3384    41.6080   328.3983 </r>
       <r>     8.4048    37.1529   330.8644 </r>
       <r>     8.4712    29.9399   332.8517 </r>
       <r>     8.5376    24.0896   334.4507 </r>
       <r>     8.6040    22.8545   335.9678 </r>
       <r>     8.6703    24.5011   337.5941 </r>
       <r>     8.7367    25.9712   339.3180 </r>
       <r>     8.8031    26.8346   341.0992 </r>
       <r>     8.8695    26.2905   342.8443 </r>
       <r>     8.9358    21.4460   344.2679 </r>
       <r>     9.0022    12.8556   345.1212 </r>
       <r>     9.0686     5.8240   345.5078 </r>
       <r>     9.1350     3.5606   345.7441 </r>
       <r>     9.2014     4.3007   346.0296 </r>
       <r>     9.2677     5.0937   346.3677 </r>
       <r>     9.3341     4.9941   346.6992 </r>
       <r>     9.4005     4.7307   347.0132 </r>
       <r>     9.4669     5.0469   347.3482 </r>
       <r>     9.5332     6.7557   347.7967 </r>
       <r>     9.5996    10.7392   348.5095 </r>
       <r>     9.6660    15.6484   349.5482 </r>
       <r>     9.7324    18.4832   350.7751 </r>
       <r>     9.7988    18.2863   351.9889 </r>
       <r>     9.8651    16.2822   353.0697 </r>
       <r>     9.9315    13.6506   353.9758 </r>
       <r>     9.9979    10.8814   354.6980 </r>
       <r>    10.0643     8.0553   355.2327 </r>
       <r>    10.1306     5.6887   355.6103 </r>
       <r>    10.1970     5.3057   355.9625 </r>
       <r>    10.2634     7.6541   356.4706 </r>
       <r>    10.3298    10.4885   357.1668 </r>
       <r>    10.3961    10.5188   357.8650 </r>
       <r>    10.4625     7.2495   358.3462 </r>
       <r>    10.5289     3.1487   358.5552 </r>
       <r>    10.5953     1.1351   358.6305 </r>
       <r>    10.6617     3.0412   358.8324 </r>
       <r>    10.7280     9.0237   359.4314 </r>
       <r>    10.7944    16.3055   360.5137 </r>
       <r>    10.8608    20.5989   361.8810 </r>
       <r>    10.9272    20.8901   363.2677 </r>
       <r>    10.9935    19.4252   364.5571 </r>
       <r>    11.0599    17.3775   365.7105 </r>
       <r>    11.1263    14.2050   366.6534 </r>
       <r>    11.1927     9.4475   367.2805 </r>
       <r>    11.2591     4.2147   367.5603 </r>
       <r>    11.3254     0.9886   367.6259 </r>
       <r>    11.3918     0.7350   367.6747 </r>
       <r>    11.4582     2.2814   367.8261 </r>
       <r>    11.5246     4.4654   368.1226 </r>
       <r>    11.5909     6.2614   368.5382 </r>
       <r>    11.6573     6.4926   368.9691 </r>
       <r>    11.7237     5.3809   369.3263 </r>
       <r>    11.7901     4.7997   369.6449 </r>
       <r>    11.8565     6.4598   370.0737 </r>
       <r>    11.9228    10.0121   370.7383 </r>
       <r>    11.9892    12.9553   371.5982 </r>
       <r>    12.0556    13.2334   372.4766 </r>
       <r>    12.1220    11.5089   373.2405 </r>
       <r>    12.1883     9.7218   373.8859 </r>
       <r>    12.2547     8.2721   374.4349 </r>
       <r>    12.3211     6.4196   374.8611 </r>
       <r>    12.3875     4.6335   375.1686 </r>
       <r>    12.4539     5.3471   375.5235 </r>
       <r>    12.5202    10.4224   376.2154 </r>
       <r>    12.5866    17.2475   377.3602 </r>
       <r>    12.6530    20.0692   378.6924 </r>
       <r>    12.7194    16.8248   379.8092 </r>
       <r>    12.7857    11.7213   380.5872 </r>
       <r>    12.8521     9.1017   381.1913 </r>
       <r>    12.9185     8.9248   381.7837 </r>
       <r>    12.9849     9.5243   382.4159 </r>
       <r>    13.0513     9.6812   383.0586 </r>
       <r>    13.1176     8.2890   383.6088 </r>
       <r>    13.1840     5.4909   383.9732 </r>
       <r>    13.2504     3.0884   384.1782 </r>
       <r>    13.3168     2.3499   384.3342 </r>
       <r>    13.3831     2.6894   384.5127 </r>
       <r>    13.4495     3.8603   384.7690 </r>
       <r>    13.5159     7.2805   385.2522 </r>
       <r>    13.5823    13.6759   386.1600 </r>
       <r>    13.6487    21.5367   387.5896 </r>
       <r>    13.7150    27.0613   389.3858 </r>
       <r>    13.7814    25.5059   391.0789 </r>
       <r>    13.8478    16.7333   392.1896 </r>
       <r>    13.9142     7.1152   392.6619 </r>
       <r>    13.9805     1.9080   392.7885 </r>
       <r>    14.0469     0.9738   392.8532 </r>
       <r>    14.1133     2.8699   393.0437 </r>
       <r>    14.1797     6.5343   393.4774 </r>
       <r>    14.2461    10.2670   394.1589 </r>
       <r>    14.3124    13.4388   395.0509 </r>
       <r>    14.3788    16.5041   396.1464 </r>
       <r>    14.4452    18.5584   397.3783 </r>
       <r>    14.5116    19.3508   398.6628 </r>
       <r>    14.5779    20.6912   400.0362 </r>
       <r>    14.6443    21.5647   401.4676 </r>
       <r>    14.7107    18.4282   402.6908 </r>
       <r>    14.7771    11.8523   403.4776 </r>
       <r>    14.8435     6.0118   403.8766 </r>
       <r>    14.9098     2.8924   404.0686 </r>
       <r>    14.9762     1.6778   404.1800 </r>
       <r>    15.0426     1.3637   404.2705 </r>
       <r>    15.1090     1.3444   404.3597 </r>
       <r>    15.1753     1.3547   404.4496 </r>
       <r>    15.2417     1.7426   404.5653 </r>
       <r>    15.3081     3.0673   404.7689 </r>
       <r>    15.3745     5.4809   405.1327 </r>
       <r>    15.4409     7.8247   405.6521 </r>
       <r>    15.5072     7.8609   406.1739 </r>
       <r>    15.5736     5.4097   406.5330 </r>
       <r>    15.6400     3.8090   406.7858 </r>
       <r>    15.7064     6.2029   407.1976 </r>
       <r>    15.7727    11.5621   407.9650 </r>
       <r>    15.8391    15.8267   409.0156 </r>
       <r>    15.9055    16.5307   410.1128 </r>
       <r>    15.9719    14.1663   411.0532 </r>
       <r>    16.0383    10.0197   411.7183 </r>
       <r>    16.1046     6.2263   412.1315 </r>
       <r>    16.1710     5.3611   412.4874 </r>
       <r>    16.2374     7.2290   412.9672 </r>
       <r>    16.3038     9.2384   413.5805 </r>
       <r>    16.3701    10.0843   414.2498 </r>
       <r>    16.4365     9.8841   414.9059 </r>
       <r>    16.5029     8.2905   415.4562 </r>
       <r>    16.5693     5.3822   415.8135 </r>
       <r>    16.6357     2.4903   415.9788 </r>
       <r>    16.7020     0.6705   416.0233 </r>
       <r>    16.7684    -0.0649   416.0190 </r>
       <r>    16.8348    -0.1707   416.0076 </r>
       <r>    16.9012    -0.0865   416.0019 </r>
       <r>    16.9675    -0.0241   416.0003 </r>
       <r>    17.0339    -0.0041   416.0000 </r>
       <r>    17.1003    -0.0005   416.0000 </r>
       <r>    17.1667    -0.0000   416.0000 </r>
       <r>    17.2331    -0.0000   416.0000 </r>
       <r>    17.2994    -0.0000   416.0000 </r>
       <r>    17.3658    -0.0000   416.0000 </r>
       <r>    17.4322    -0.0000   416.0000 </r>
       <r>    17.4986    -0.0000   416.0000 </r>
       <r>    17.5649    -0.0000   416.0000 </r>
       <r>    17.6313     0.0000   416.0000 </r>
       <r>    17.6977     0.0000   416.0000 </r>
       <r>    17.7641     0.0000   416.0000 </r>
       <r>    17.8305     0.0000   416.0000 </r>
       <r>    17.8968     0.0000   416.0000 </r>
       <r>    17.9632     0.0000   416.0000 </r>
       <r>    18.0296     0.0000   416.0000 </r>
       <r>    18.0960     0.0000   416.0000 </r>
      </set>
     </set>
    </array>
   </total>
  </dos>
 </calculation>
 <structure name="finalpos" >
  <crystal>
   <varray name="basis" >
    <v>       8.27698815       0.00518615       0.01742973 </v>
    <v>       0.00535829       8.09440108      -0.00302877 </v>
    <v>       0.01830341      -0.00294842       8.21369592 </v>
   </varray>
   <i name="volume">    550.29225109 </i>
   <varray name="rec_basis" >
    <v>       0.12081751      -0.00008008      -0.00026926 </v>
    <v>      -0.00007750       0.12354225       0.00004452 </v>
    <v>      -0.00025641       0.00004573       0.12174846 </v>
   </varray>
  </crystal>
  <varray name="positions" >
   <v>       0.49973357      -0.00367213       0.49864924 </v>
   <v>       0.49559099       0.50467310      -0.00392565 </v>
   <v>       0.25110842       0.99621958       0.24870801 </v>
   <v>       0.25234733       0.74894915       0.00006941 </v>
   <v>       0.49544659       0.74853188       0.75299673 </v>
   <v>       0.00328917       0.75396728       0.24687497 </v>
   <v>       0.74944871       0.99757661       0.25154214 </v>
   <v>       0.25310574       0.50384287       0.75429844 </v>
   <v>       0.25170018       0.75167633       0.49965833 </v>
   <v>       0.00198988       0.25211908       0.75016207 </v>
   <v>       0.49798831       0.50192492       0.50241979 </v>
   <v>       0.00081195      -0.00218801       0.49666486 </v>
   <v>       0.74847960       0.75210014       0.49810888 </v>
   <v>       0.25266219      -0.00206613       0.75042950 </v>
   <v>       0.74731241       0.24984148       0.00153424 </v>
   <v>       0.49946047       0.24736125       0.25005419 </v>
   <v>       0.74717283       0.50211691       0.75106881 </v>
   <v>       0.00227197       0.50318527       0.00139897 </v>
   <v>       0.74846516       0.75093583       0.00135687 </v>
   <v>       0.00315239       0.74928104       0.75146097 </v>
   <v>       0.00196530       0.50248139       0.49888264 </v>
   <v>       0.25177135       0.25110795       0.00080136 </v>
   <v>       0.49862822       0.75112198       0.24866817 </v>
   <v>       0.25084701       0.50248512       0.24815090 </v>
   <v>       0.25208073       0.24769270       0.49958151 </v>
   <v>       0.74685811      -0.00234397       0.74916929 </v>
   <v>       0.74920980       0.50161329       0.24858277 </v>
   <v>       0.00060484       0.24697140       0.25010226 </v>
   <v>       0.74796629       0.24649233       0.49844897 </v>
   <v>       0.00176623      -0.00205096       0.00271952 </v>
   <v>       0.49844497       0.25057338       0.74995243 </v>
   <v>       0.49831730      -0.00252207       0.00140940 </v>
  </varray>
 </structure>
</modeling>
