automatically generated by mexm         
           1
     8.117718    0.001849    0.002100
     0.001831    8.226312   -0.016750
     0.002124   -0.016730    8.214281
   Pt   Au
   8  24
Direct configuration=     1
   0.49849400  0.00118400  0.49952000
   0.50169200  0.49594900  0.00208400
   0.24706900  0.99833200  0.25211400
   0.25028200  0.74723400  0.00116600
   0.50194800  0.74919900  0.74901900
   0.00332300  0.74487800  0.24879900
   0.75240800  0.99976700  0.24885700
   0.25022400  0.49823600  0.75046800
   0.25004100  0.74971600  0.49241400
   0.99963200  0.25317500  0.75523800
   0.49967900  0.49842100  0.49871500
   0.00047000  0.00131200  0.49928600
   0.74950900  0.74790000  0.49854900
   0.24991900  0.00357100  0.74774000
   0.75260100  0.25320500  0.99907400
   0.49756700  0.25131500  0.24889300
   0.74948500  0.49358400  0.75890000
   0.99866500  0.49553200  0.00244200
   0.74969200  0.74903800  0.00078600
   0.99761000  0.74877300  0.74931800
   0.00013600  0.49928400  0.49886200
   0.24813400  0.25350000  0.00154000
   0.49668900  0.74409800  0.24863800
   0.24881000  0.50012200  0.24699500
   0.24642600  0.25075800  0.49903600
   0.74932300  0.00752300  0.75242800
   0.75280700  0.50000500  0.24327000
   0.00567500  0.25428100  0.24623800
   0.75192400  0.25254200  0.50112200
   0.00132500  0.00195300  0.00071000
   0.49987100  0.25327700  0.75628600
   0.49856800  0.00233500  0.00149300
automatically generated by mexm         
           1
     8.159444    0.002064    0.003872
     0.002047    8.260182   -0.014811
     0.003917   -0.014788    8.250747
   Pt   Au
   8  24
Direct configuration=     2
   0.49886029  0.00092213  0.49926664
   0.50076157  0.49708402  0.00141548
   0.24741358  0.99799667  0.25171482
   0.25051722  0.74731394  0.00054606
   0.50116062  0.74909812  0.74939498
   0.00310647  0.74603660  0.24839169
   0.75215556  0.99957484  0.24931810
   0.25074254  0.49926603  0.75082085
   0.25026549  0.74996580  0.49352847
   0.00019131  0.25294443  0.75445737
   0.49963546  0.49861995  0.49929869
   0.00011302  0.00093977  0.49887292
   0.74926802  0.74852079  0.49849093
   0.25035543  0.00264285  0.74793510
   0.75198804  0.25218019  0.00007358
   0.49793188  0.25056232  0.24926786
   0.74906192  0.49484943  0.75790889
   0.99955246  0.49703259  0.00191003
   0.74944697  0.74956621  0.00078592
   0.99823041  0.74877184  0.74952814
   0.00012739  0.49966668  0.49918542
   0.24880235  0.25305131  0.00128626
   0.49707089  0.74514002  0.24842828
   0.24919519  0.50040955  0.24697006
   0.24709944  0.25052631  0.49926534
   0.74894124  0.00648027  0.75191304
   0.75237882  0.50014236  0.24412940
   0.00495132  0.25314414  0.24692099
   0.75148757  0.25192928  0.50054442
   0.00155842  0.00100659  0.00119141
   0.49932534  0.25305235  0.75548375
   0.49830180  0.00156161  0.00175512
automatically generated by mexm         
           1
     8.157312    0.002460    0.006724
     0.002445    8.245346   -0.012014
     0.006804   -0.011989    8.239347
   Pt   Au
   8  24
Direct configuration=     3
   0.49915589  0.00071063  0.49906203
   0.50001100  0.49800112  0.00087556
   0.24769169  0.99772586  0.25139249
   0.25070713  0.74737867  0.00004538
   0.50052527  0.74901656  0.74969878
   0.00293183  0.74697266  0.24806255
   0.75195179  0.99941950  0.24969054
   0.25116080  0.50009802  0.75110541
   0.25044636  0.75016732  0.49442832
   0.00064274  0.25275835  0.75382694
   0.49960020  0.49878053  0.49976998
  -0.00017490  0.00063918  0.49853952
   0.74907359  0.74902230  0.49844394
   0.25070752  0.00189299  0.74809278
   0.75149330  0.25135209  0.00088113
   0.49822621  0.24995417  0.24957067
   0.74872077  0.49587194  0.75710834
   0.00026855  0.49824493  0.00147989
   0.74924927  0.74999292  0.00078578
   0.99873092  0.74877084  0.74969769
   0.00012036  0.49997575  0.49944650
   0.24934165  0.25268889  0.00108133
   0.49737902  0.74598185  0.24825858
   0.24950596  0.50064184  0.24694977
   0.24764273  0.25033907  0.49945044
   0.74863336  0.00563805  0.75149753
   0.75203316  0.50025312  0.24482343
   0.00436732  0.25222559  0.24747296
   0.75113559  0.25143446  0.50007826
   0.00174666  0.00024193  0.00158033
   0.49888527  0.25287108  0.75483609
   0.49808699  0.00093678  0.00196704
automatically generated by mexm         
           1
     8.150919    0.003649    0.015281
     0.003639    8.200836   -0.003624
     0.015466   -0.003591    8.205145
   Pt   Au
   8  24
Direct configuration=     4
   0.49952746  0.00033769  0.49874897
   0.49904457  0.49925372  0.00007598
   0.24807768  0.99728074  0.25100750
   0.25104334  0.74745376 -0.00056840
   0.49959209  0.74889008  0.75017564
   0.00280934  0.74824595  0.24762770
   0.75164159  0.99913007  0.25022763
   0.25177302  0.50123898  0.75155102
   0.25071611  0.75047203  0.49551825
   0.00116242  0.25256548  0.75313165
   0.49949086  0.49908559  0.50040297
  -0.00046836  0.00018233  0.49802693
   0.74877376  0.74976507  0.49836656
   0.25121700  0.00082309  0.74829394
   0.75086327  0.25045300  0.00177587
   0.49856511  0.24915460  0.24993106
   0.74823278  0.49712296  0.75620072
   0.00112015  0.49971002  0.00097971
   0.74894906  0.75051008  0.00080697
   0.99945228  0.74878584  0.74992380
   0.00019429  0.50043415  0.49971843
   0.24999230  0.25225812  0.00087449
   0.49769589  0.74713362  0.24805910
   0.24986668  0.50100122  0.24693322
   0.24838088  0.25004429  0.49964467
   0.74817533  0.00451741  0.75096627
   0.75159664  0.50045216  0.24558761
   0.00369118  0.25106066  0.24812026
   0.75062556  0.25071000  0.49951559
   0.00200443 -0.00077368  0.00211770
   0.49839751  0.25265159  0.75403430
   0.49779382  0.00004838  0.00222389
automatically generated by mexm         
           1
     8.151147    0.003607    0.014976
     0.003596    8.202423   -0.003923
     0.015157   -0.003891    8.206365
   Pt   Au
   8  24
Direct configuration=     5
   0.50064285 -0.00078289  0.49780849
   0.49614518  0.50301923 -0.00232637
   0.24923643  0.99594332  0.24985098
   0.25205288  0.74768002 -0.00241270
   0.49679131  0.74850962  0.75160929
   0.00244208  0.75207314  0.24632020
   0.75071020  0.99825970  0.25184172
   0.25360949  0.50466748  0.75288790
   0.25152436  0.75138666  0.49879199
   0.00272262  0.25198647  0.75104253
   0.49916204  0.50000181  0.50230435
  -0.00134836 -0.00119011  0.49648778
   0.74787400  0.75199751  0.49813368
   0.25274575 -0.00239268  0.74889883
   0.74897185  0.24775006  0.00446534
   0.49958182  0.24675114  0.25101419
   0.74676922  0.50088374  0.75347333
   0.00367594  0.50411355 -0.00052529
   0.74804809  0.75206436  0.00087041
   0.00161666  0.74883060  0.75060232
   0.00041577  0.50181156  0.50053481
   0.25194504  0.25096361  0.00025286
   0.49864678  0.75059531  0.24745834
   0.25094911  0.50208124  0.24688278
   0.25059577  0.24915805  0.50022771
   0.74680159  0.00115007  0.74937189
   0.75028590  0.50104962  0.24788358
   0.00166172  0.24755905  0.25006674
   0.74909576  0.24853333  0.49782651
   0.00277752 -0.00382659  0.00373280
   0.49693471  0.25199284  0.75162632
   0.49691393 -0.00262181  0.00299670
automatically generated by mexm         
           1
     8.169489    0.004397    0.018082
     0.004395    8.206439   -0.003295
     0.018307   -0.003262    8.211878
   Pt   Au
   8  24
Direct configuration=     6
   0.50060300 -0.00074275  0.49784216
   0.49624857  0.50288413 -0.00224033
   0.24919503  0.99599123  0.24989239
   0.25201679  0.74767185 -0.00234662
   0.49689131  0.74852329  0.75155784
   0.00245515  0.75193589  0.24636714
   0.75074349  0.99829096  0.25178386
   0.25354403  0.50454463  0.75284023
   0.25149565  0.75135399  0.49867483
   0.00266687  0.25200716  0.75111736
   0.49917385  0.49996903  0.50223629
  -0.00131703 -0.00114097  0.49654281
   0.74790611  0.75191747  0.49814207
   0.25269121 -0.00227737  0.74887711
   0.74903944  0.24784705  0.00436887
   0.49954557  0.24683735  0.25097536
   0.74682136  0.50074881  0.75357107
   0.00358470  0.50395565 -0.00047115
   0.74808025  0.75200864  0.00086816
   0.00153945  0.74882903  0.75057811
   0.00040791  0.50176221  0.50050564
   0.25187533  0.25101000  0.00027515
   0.49861284  0.75047119  0.24748001
   0.25091049  0.50204253  0.24688467
   0.25051675  0.24918985  0.50020688
   0.74685053  0.00127073  0.74942881
   0.75033276  0.50102827  0.24780134
   0.00173420  0.24768464  0.24999684
   0.74915027  0.24861130  0.49788685
   0.00274998 -0.00371708  0.00367489
   0.49698682  0.25201636  0.75171245
   0.49694534 -0.00252606  0.00296890
automatically generated by mexm         
           1
     8.179368    0.004823    0.019755
     0.004825    8.208602   -0.002957
     0.020004   -0.002923    8.214847
   Pt   Au
   8  24
Direct configuration=     7
   0.50064916 -0.00122603  0.49773437
   0.49603197  0.50352665 -0.00265600
   0.24952200  0.99574300  0.24980245
   0.25232620  0.74790299 -0.00232872
   0.49649995  0.74863521  0.75192469
   0.00254669  0.75244400  0.24634198
   0.75040866  0.99794663  0.25201127
   0.25372740  0.50490077  0.75297759
   0.25164493  0.75148452  0.49894855
   0.00271139  0.25190353  0.75100915
   0.49900317  0.50038431  0.50231672
  -0.00110694 -0.00151135  0.49647650
   0.74772096  0.75222016  0.49815064
   0.25287158 -0.00271658  0.74896621
   0.74876891  0.24778309  0.00430086
   0.49948920  0.24662526  0.25099983
   0.74670723  0.50113199  0.75324860
   0.00359033  0.50417776 -0.00048565
   0.74794517  0.75207341  0.00082642
   0.00176378  0.74910800  0.75054540
   0.00062502  0.50207995  0.50039313
   0.25195943  0.25079701  0.00034611
   0.49864408  0.75091616  0.24770591
   0.25099623  0.50223443  0.24715209
   0.25086628  0.24894952  0.50015915
   0.74659371  0.00061976  0.74931617
   0.75012883  0.50125222  0.24796448
   0.00161115  0.24738836  0.25011786
   0.74886845  0.24826511  0.49793688
   0.00282328 -0.00393215  0.00361023
   0.49714102  0.25174171  0.75137554
   0.49691876 -0.00285042  0.00281160
automatically generated by mexm         
           1
     8.187565    0.005562    0.022992
     0.005577    8.198322   -0.003076
     0.023297   -0.003042    8.206046
   Pt   Au
   8  24
Direct configuration=     8
   0.50067402 -0.00148622  0.49767636
   0.49591561  0.50387261 -0.00287974
   0.24969777  0.99560933  0.24975399
   0.25249247  0.74802742 -0.00231916
   0.49628954  0.74869546  0.75212223
   0.00259587  0.75271756  0.24632840
   0.75022867  0.99776126  0.25213377
   0.25382591  0.50509249  0.75305148
   0.25172510  0.75155478  0.49909586
   0.00273535  0.25184774  0.75095090
   0.49891140  0.50060790  0.50236003
  -0.00099399 -0.00171077  0.49644078
   0.74762144  0.75238314  0.49815528
   0.25296853 -0.00295306  0.74901415
   0.74862354  0.24774867  0.00426431
   0.49945891  0.24651108  0.25101302
   0.74664593  0.50133831  0.75307502
   0.00359335  0.50429735 -0.00049347
   0.74787257  0.75210829  0.00080398
   0.00188434  0.74925819  0.75052774
   0.00074172  0.50225101  0.50033251
   0.25200463  0.25068233  0.00038430
   0.49866079  0.75115571  0.24782748
   0.25104224  0.50233773  0.24729601
   0.25105415  0.24882012  0.50013339
   0.74645575  0.00026931  0.74925562
   0.75001918  0.50137279  0.24805232
   0.00154501  0.24722886  0.25018304
   0.74871700  0.24807874  0.49796388
   0.00286270 -0.00404794  0.00357541
   0.49722398  0.25159384  0.75119417
   0.49690453 -0.00302504  0.00272694
automatically generated by mexm         
           1
     8.198075    0.006509    0.027143
     0.006541    8.185141   -0.003228
     0.027519   -0.003193    8.194760
   Pt   Au
   8  24
Direct configuration=     9
   0.50059168 -0.00201451  0.49766310
   0.49587105  0.50432872 -0.00317786
   0.24999257  0.99543298  0.24972233
   0.25272995  0.74825050 -0.00202572
   0.49606168  0.74884238  0.75244863
   0.00277158  0.75299827  0.24638404
   0.74992677  0.99745018  0.25223931
   0.25385683  0.50516138  0.75314983
   0.25182886  0.75162005  0.49912729
   0.00266359  0.25177512  0.75098452
   0.49872915  0.50106072  0.50231147
  -0.00061351 -0.00201662  0.49647503
   0.74748705  0.75250688  0.49820372
   0.25306093 -0.00311144  0.74906595
   0.74841285  0.24793114  0.00392466
   0.49931864  0.24648693  0.25088713
   0.74664837  0.50150371  0.75287007
   0.00339150  0.50419262 -0.00033650
   0.74782486  0.75200443  0.00077644
   0.00197641  0.74957121  0.75045644
   0.00101033  0.50253018  0.50009659
   0.25194915  0.25058780  0.00052676
   0.49861224  0.75133167  0.24816148
   0.25104310  0.50249838  0.24759712
   0.25130494  0.24855845  0.50003971
   0.74625217 -0.00026809  0.74925877
   0.74986574  0.50160230  0.24804823
   0.00152416  0.24714274  0.25016594
   0.74851822  0.24781478  0.49817547
   0.00285903 -0.00397760  0.00336021
   0.49753925  0.25131197  0.75097548
   0.49698886 -0.00310823  0.00244437
automatically generated by mexm         
           1
     8.200546    0.006732    0.028120
     0.006767    8.182041   -0.003264
     0.028512   -0.003229    8.192106
   Pt   Au
   8  24
Direct configuration=    10
   0.50048628 -0.00269276  0.49764610
   0.49581407  0.50491431 -0.00356051
   0.25037024  0.99520653  0.24968155
   0.25303398  0.74853688 -0.00164916
   0.49576962  0.74903104  0.75286773
   0.00299660  0.75335864  0.24645538
   0.74954003  0.99705082  0.25237493
   0.25389638  0.50524981  0.75327605
   0.25196174  0.75170385  0.49916758
   0.00257165  0.25168188  0.75102773
   0.49849566  0.50164211  0.50224924
  -0.00012611 -0.00240933  0.49651879
   0.74731487  0.75266576  0.49826596
   0.25317929 -0.00331479  0.74913240
   0.74814311  0.24816543  0.00348878
   0.49913902  0.24645594  0.25072560
   0.74665158  0.50171606  0.75260699
   0.00313287  0.50405820 -0.00013489
   0.74776378  0.75187111  0.00074111
   0.00209435  0.74997308  0.75036488
   0.00135449  0.50288856  0.49979361
   0.25187802  0.25046644  0.00070965
   0.49854984  0.75155758  0.24859024
   0.25104402  0.50270462  0.24798363
   0.25162628  0.24822248  0.49991933
   0.74599147 -0.00095802  0.74926290
   0.74966916  0.50189697  0.24804305
   0.00149748  0.24703217  0.25014400
   0.74826352  0.24747592  0.49844717
   0.00285445 -0.00388730  0.00308397
   0.49794324  0.25095004  0.75069460
   0.49709705 -0.00321504  0.00208161
automatically generated by mexm         
           1
     8.225237    0.006863    0.030996
     0.006923    8.175787   -0.003541
     0.031483   -0.003507    8.188630
   Pt   Au
   8  24
Direct configuration=    11
   0.50046155 -0.00285251  0.49764210
   0.49580071  0.50505224 -0.00365061
   0.25045895  0.99515318  0.24967190
   0.25310533  0.74860432 -0.00156052
   0.49570098  0.74907548  0.75296646
   0.00304942  0.75344352  0.24647215
   0.74944919  0.99695677  0.25240691
   0.25390565  0.50527064  0.75330577
   0.25199294  0.75172358  0.49917706
   0.00255006  0.25165993  0.75103791
   0.49844082  0.50177906  0.50223461
  -0.00001164 -0.00250184  0.49652903
   0.74727442  0.75270318  0.49828064
   0.25320708 -0.00336269  0.74914803
   0.74807981  0.24822061  0.00338617
   0.49909685  0.24644865  0.25068758
   0.74665236  0.50176608  0.75254503
   0.00307211  0.50402654 -0.00008739
   0.74774944  0.75183971  0.00073279
   0.00212204  0.75006773  0.75034331
   0.00143535  0.50297296  0.49972223
   0.25186130  0.25043786  0.00075273
   0.49853513  0.75161080  0.24869122
   0.25104418  0.50275321  0.24807465
   0.25170178  0.24814334  0.49989094
   0.74593026 -0.00112051  0.74926391
   0.74962298  0.50196638  0.24804186
   0.00149121  0.24700613  0.25013883
   0.74820368  0.24739611  0.49851118
   0.00285340 -0.00386603  0.00301892
   0.49803817  0.25086478  0.75062841
   0.49712251 -0.00324021  0.00199617
automatically generated by mexm         
           1
     8.238263    0.006931    0.032513
     0.007005    8.172488   -0.003687
     0.033050   -0.003654    8.186797
   Pt   Au
   8  24
Direct configuration=    12
   0.50025807 -0.00335714  0.49779076
   0.49578429  0.50528923 -0.00381270
   0.25072976  0.99515867  0.24955465
   0.25308001  0.74875631 -0.00096111
   0.49556257  0.74916403  0.75320814
   0.00324495  0.75360456  0.24648329
   0.74926787  0.99682519  0.25234438
   0.25373315  0.50503537  0.75346283
   0.25201244  0.75167680  0.49919868
   0.00241361  0.25161477  0.75102445
   0.49827746  0.50217312  0.50217164
   0.00041823 -0.00261426  0.49662118
   0.74732052  0.75256366  0.49841119
   0.25319020 -0.00315465  0.74924776
   0.74783956  0.24856749  0.00289832
   0.49901419  0.24663300  0.25038679
   0.74683402  0.50182945  0.75219422
   0.00281221  0.50380160  0.00020845
   0.74789086  0.75159151  0.00080462
   0.00217867  0.75027201  0.75036060
   0.00169706  0.50317116  0.49941760
   0.25177796  0.25050653  0.00087474
   0.49851484  0.75151349  0.24897367
   0.25098928  0.50283407  0.24829124
   0.25192088  0.24786240  0.49983697
   0.74586135 -0.00162886  0.74932455
   0.74946188  0.50212322  0.24800284
   0.00134365  0.24695438  0.25010539
   0.74811277  0.24714667  0.49872850
   0.00269219 -0.00352225  0.00275904
   0.49839405  0.25061943  0.75040651
   0.49736942 -0.00301199  0.00168080
automatically generated by mexm         
           1
     8.253222    0.006096    0.032087
     0.006203    8.156553   -0.003651
     0.032730   -0.003618    8.175812
   Pt   Au
   8  24
Direct configuration=    13
   0.50015103 -0.00362356  0.49786924
   0.49577568  0.50541436 -0.00389825
   0.25087222  0.99516157  0.24949272
   0.25306658  0.74883657 -0.00064474
   0.49548972  0.74921079  0.75333573
   0.00334779  0.75368959  0.24648914
   0.74917251  0.99675571  0.25231140
   0.25364239  0.50491117  0.75354575
   0.25202269  0.75165209  0.49921009
   0.00234184  0.25159094  0.75101738
   0.49819155  0.50238118  0.50213844
   0.00064431 -0.00267362  0.49666973
   0.74734475  0.75249000  0.49848009
   0.25318131 -0.00304481  0.74930040
   0.74771329  0.24875062  0.00264089
   0.49897077  0.24673033  0.25022806
   0.74692963  0.50186290  0.75200903
   0.00267546  0.50368285  0.00036464
   0.74796524  0.75146047  0.00084250
   0.00220845  0.75037986  0.75036971
   0.00183477  0.50327580  0.49925677
   0.25173411  0.25054279  0.00093916
   0.49850412  0.75146212  0.24912274
   0.25096037  0.50287677  0.24840556
   0.25203614  0.24771407  0.49980844
   0.74582511 -0.00189725  0.74935656
   0.74937714  0.50220602  0.24798228
   0.00126605  0.24692706  0.25008776
   0.74806491  0.24701498  0.49884321
   0.00260744 -0.00334075  0.00262191
   0.49858128  0.25048989  0.75028933
   0.49749935 -0.00289150  0.00151432
automatically generated by mexm         
           1
     8.263188    0.005540    0.031802
     0.005668    8.145937   -0.003626
     0.032517   -0.003595    8.168494
   Pt   Au
   8  24
Direct configuration=    14
   0.49996931 -0.00381555  0.49809226
   0.49570645  0.50531040 -0.00392243
   0.25100051  0.99538773  0.24927736
   0.25275620  0.74885073 -0.00012202
   0.49539343  0.74909579  0.75338886
   0.00343913  0.75375546  0.24643026
   0.74923071  0.99692352  0.25214422
   0.25339011  0.50453830  0.75378395
   0.25191010  0.75152196  0.49934155
   0.00222619  0.25162311  0.75087226
   0.49813156  0.50239873  0.50218028
   0.00082787 -0.00249336  0.49668401
   0.74762125  0.75220531  0.49857538
   0.25307891 -0.00261904  0.74950823
   0.74755172  0.24909467  0.00229782
   0.49905280  0.24703225  0.24995799
   0.74716696  0.50184474  0.75162397
   0.00255521  0.50352559  0.00064579
   0.74824528  0.75120746  0.00101562
   0.00231336  0.75027178  0.75057249
   0.00195024  0.50322631  0.49904873
   0.25169510  0.25079118  0.00094042
   0.49856865  0.75121506  0.24907390
   0.25088070  0.50277472  0.24837279
   0.25216008  0.24759659  0.49981646
   0.74597805 -0.00215971  0.74938326
   0.74927205  0.50213977  0.24801052
   0.00096126  0.24685862  0.25011454
   0.74811487  0.24684420  0.49881906
   0.00235317 -0.00290785  0.00254994
   0.49872147  0.25049483  0.75010562
   0.49777529 -0.00253430  0.00141690
automatically generated by mexm         
           1
     8.282567    0.004517    0.027767
     0.004678    8.139527   -0.003382
     0.028594   -0.003347    8.171225
   Pt   Au
   8  24
Direct configuration=    15
   0.49984847 -0.00394372  0.49824103
   0.49566041  0.50524101 -0.00393857
   0.25108583  0.99553871  0.24913370
   0.25254981  0.74886016  0.00022667
   0.49532939  0.74901902  0.75342431
   0.00349987  0.75379944  0.24639099
   0.74926942  0.99703554  0.25203270
   0.25322232  0.50428939  0.75394285
   0.25183523  0.75143508  0.49942925
   0.00214929  0.25164458  0.75077545
   0.49809167  0.50241045  0.50220818
   0.00094995 -0.00237303  0.49669354
   0.74780510  0.75201529  0.49863897
   0.25301085 -0.00233485  0.74964686
   0.74744430  0.24932431  0.00206895
   0.49910736  0.24723380  0.24977783
   0.74732478  0.50183263  0.75136710
   0.00247524  0.50342060  0.00083334
   0.74843150  0.75103859  0.00113112
   0.00238312  0.75019965  0.75070777
   0.00202703  0.50319329  0.49890995
   0.25166918  0.25095699  0.00094126
   0.49861155  0.75105015  0.24904132
   0.25082770  0.50270659  0.24835093
   0.25224250  0.24751818  0.49982181
   0.74607974 -0.00233489  0.74940108
   0.74920215  0.50209553  0.24802936
   0.00075857  0.24681292  0.25013238
   0.74814808  0.24673020  0.49880295
   0.00218411 -0.00261890  0.00250192
   0.49881469  0.25049814  0.74998307
   0.49795881 -0.00229585  0.00135193
automatically generated by mexm         
           1
     8.280865    0.004606    0.028122
     0.004765    8.140090   -0.003404
     0.028938   -0.003369    8.170985
   Pt   Au
   8  24
Direct configuration=    16
   0.49977894 -0.00391962  0.49840719
   0.49558512  0.50495611 -0.00395843
   0.25114636  0.99587839  0.24888372
   0.25219166  0.74890787  0.00044229
   0.49519750  0.74877852  0.75339474
   0.00347445  0.75386376  0.24642002
   0.74940813  0.99733179  0.25187619
   0.25299182  0.50395613  0.75419946
   0.25165342  0.75132573  0.49966519
   0.00203861  0.25175325  0.75053521
   0.49808377  0.50211464  0.50233934
   0.00091549 -0.00211304  0.49663527
   0.74819738  0.75178955  0.49859902
   0.25286723 -0.00196800  0.75002918
   0.74738551  0.24962403  0.00182342
   0.49929925  0.24753828  0.24970395
   0.74750843  0.50179438  0.75105313
   0.00243251  0.50329588  0.00103955
   0.74865471  0.75086834  0.00129203
   0.00260868  0.74990992  0.75104253
   0.00204999  0.50291463  0.49877348
   0.25166998  0.25121505  0.00086975
   0.49872816  0.75089936  0.24876016
   0.25073949  0.50241529  0.24826491
   0.25229545  0.24761070  0.49977896
   0.74638146 -0.00241404  0.74937058
   0.74915505  0.50184597  0.24819678
   0.00041730  0.24678741  0.25020871
   0.74821259  0.24661750  0.49857896
   0.00193448 -0.00217337  0.00253921
   0.49880369  0.25067813  0.74981752
   0.49819137 -0.00208356  0.00141796
automatically generated by mexm         
           1
     8.278647    0.004724    0.028584
     0.004878    8.140824   -0.003432
     0.029387   -0.003397    8.170673
   Pt   Au
   8  24
Direct configuration=    17
   0.49978502 -0.00392174  0.49839260
   0.49559173  0.50498116 -0.00395669
   0.25114106  0.99584853  0.24890567
   0.25222303  0.74890368  0.00042338
   0.49520906  0.74879966  0.75339734
   0.00347668  0.75385811  0.24641747
   0.74939598  0.99730574  0.25188992
   0.25301201  0.50398543  0.75417694
   0.25166934  0.75133534  0.49964448
   0.00204831  0.25174370  0.75055631
   0.49808446  0.50214064  0.50232782
   0.00091851 -0.00213589  0.49664039
   0.74816302  0.75180939  0.49860251
   0.25287980 -0.00200024  0.74999562
   0.74739067  0.24959769  0.00184498
   0.49928244  0.24751152  0.24971043
   0.74749235  0.50179774  0.75108069
   0.00243625  0.50330684  0.00102145
   0.74863515  0.75088330  0.00127789
   0.00258891  0.74993538  0.75101313
   0.00204798  0.50293912  0.49878546
   0.25166991  0.25119237  0.00087603
   0.49871796  0.75091261  0.24878484
   0.25074722  0.50244090  0.24827247
   0.25229081  0.24760257  0.49978272
   0.74635503 -0.00240708  0.74937324
   0.74915917  0.50186790  0.24818208
   0.00044720  0.24678966  0.25020202
   0.74820695  0.24662740  0.49859863
   0.00195635 -0.00221253  0.00253595
   0.49880465  0.25066231  0.74983205
   0.49817099 -0.00210223  0.00141215
automatically generated by mexm         
           1
     8.279533    0.004677    0.028399
     0.004833    8.140530   -0.003421
     0.029208   -0.003386    8.170798
   Pt   Au
   8  24
Direct configuration=    18
   0.49979296 -0.00392450  0.49837359
   0.49560033  0.50501380 -0.00395441
   0.25113415  0.99580961  0.24893428
   0.25226394  0.74889822  0.00039872
   0.49522413  0.74882722  0.75340073
   0.00347958  0.75385074  0.24641415
   0.74938014  0.99727180  0.25190783
   0.25303834  0.50402361  0.75414758
   0.25169010  0.75134787  0.49961749
   0.00206097  0.25173125  0.75058381
   0.49808536  0.50217453  0.50231281
   0.00092245 -0.00216568  0.49664706
   0.74811820  0.75183525  0.49860706
   0.25289618 -0.00204227  0.74995187
   0.74739739  0.24956335  0.00187309
   0.49926052  0.24747663  0.24971888
   0.74747139  0.50180212  0.75111662
   0.00244112  0.50332113  0.00099785
   0.74860964  0.75090281  0.00125946
   0.00256312  0.74996858  0.75097480
   0.00204537  0.50297105  0.49880108
   0.25166982  0.25116280  0.00088422
   0.49870465  0.75092988  0.24881701
   0.25075731  0.50247428  0.24828232
   0.25228476  0.24759197  0.49978763
   0.74632056 -0.00239802  0.74937672
   0.74916455  0.50189650  0.24816292
   0.00048618  0.24679258  0.25019330
   0.74819959  0.24664031  0.49862426
   0.00198486 -0.00226357  0.00253170
   0.49880592  0.25064169  0.74985100
   0.49814441 -0.00212655  0.00140459
automatically generated by mexm         
           1
     8.280199    0.004642    0.028260
     0.004799    8.140310   -0.003412
     0.029073   -0.003377    8.170891
   Pt   Au
   8  24
Direct configuration=    19
   0.49978978 -0.00392340  0.49838119
   0.49559689  0.50500076 -0.00395532
   0.25113692  0.99582516  0.24892284
   0.25224759  0.74890041  0.00040857
   0.49521811  0.74881621  0.75339937
   0.00347842  0.75385368  0.24641548
   0.74938647  0.99728536  0.25190068
   0.25302782  0.50400836  0.75415931
   0.25168180  0.75134287  0.49962828
   0.00205591  0.25173623  0.75057282
   0.49808500  0.50216099  0.50231881
   0.00092088 -0.00215378  0.49664439
   0.74813611  0.75182492  0.49860524
   0.25288963 -0.00202548  0.74996936
   0.74739471  0.24957707  0.00186186
   0.49926928  0.24749057  0.24971550
   0.74747977  0.50180037  0.75110226
   0.00243917  0.50331542  0.00100728
   0.74861983  0.75089501  0.00126683
   0.00257343  0.74995532  0.75099012
   0.00204641  0.50295829  0.49879484
   0.25166986  0.25117462  0.00088095
   0.49870997  0.75092298  0.24880416
   0.25075328  0.50246094  0.24827838
   0.25228718  0.24759620  0.49978567
   0.74633433 -0.00240164  0.74937533
   0.74916240  0.50188507  0.24817057
   0.00047060  0.24679141  0.25019679
   0.74820253  0.24663515  0.49861402
   0.00197346 -0.00224317  0.00253340
   0.49880541  0.25064993  0.74984343
   0.49815504 -0.00211683  0.00140761
automatically generated by mexm         
           1
     8.280532    0.004624    0.028191
     0.004782    8.140200   -0.003408
     0.029006   -0.003373    8.170938
   Pt   Au
   8  24
Direct configuration=    20
   0.49978740 -0.00392257  0.49838690
   0.49559431  0.50499096 -0.00395600
   0.25113899  0.99583685  0.24891426
   0.25223530  0.74890205  0.00041597
   0.49521358  0.74880794  0.75339836
   0.00347755  0.75385589  0.24641647
   0.74939123  0.99729555  0.25189530
   0.25301991  0.50399689  0.75416813
   0.25167557  0.75133911  0.49963638
   0.00205211  0.25173996  0.75056457
   0.49808473  0.50215082  0.50232332
   0.00091969 -0.00214483  0.49664239
   0.74814957  0.75181716  0.49860388
   0.25288471 -0.00201286  0.74998249
   0.74739269  0.24958738  0.00185342
   0.49927586  0.24750104  0.24971296
   0.74748606  0.50179906  0.75109147
   0.00243771  0.50331113  0.00101437
   0.74862749  0.75088916  0.00127236
   0.00258117  0.74994535  0.75100162
   0.00204720  0.50294871  0.49879015
   0.25166989  0.25118349  0.00087849
   0.49871397  0.75091780  0.24879450
   0.25075025  0.50245092  0.24827543
   0.25228900  0.24759938  0.49978420
   0.74634468 -0.00240436  0.74937428
   0.74916078  0.50187649  0.24817633
   0.00045890  0.24679054  0.25019941
   0.74820474  0.24663128  0.49860632
   0.00196490 -0.00222785  0.00253467
   0.49880503  0.25065612  0.74983774
   0.49816302 -0.00210953  0.00140988
automatically generated by mexm         
           1
     8.280517    0.004272    0.024107
     0.004441    8.132833   -0.003259
     0.024970   -0.003219    8.172431
   Pt   Au
   8  24
Direct configuration=    21
   0.49978621 -0.00392215  0.49838975
   0.49559302  0.50498606 -0.00395635
   0.25114003  0.99584269  0.24890996
   0.25222916  0.74890286  0.00041968
   0.49521132  0.74880380  0.75339785
   0.00347711  0.75385700  0.24641697
   0.74939361  0.99730065  0.25189261
   0.25301596  0.50399116  0.75417254
   0.25167245  0.75133722  0.49964043
   0.00205021  0.25174183  0.75056044
   0.49808460  0.50214573  0.50232557
   0.00091910 -0.00214036  0.49664139
   0.74815630  0.75181327  0.49860319
   0.25288225 -0.00200656  0.74998906
   0.74739168  0.24959253  0.00184920
   0.49927915  0.24750628  0.24971170
   0.74748921  0.50179840  0.75108608
   0.00243698  0.50330899  0.00101791
   0.74863132  0.75088623  0.00127512
   0.00258504  0.74994037  0.75100738
   0.00204759  0.50294392  0.49878781
   0.25166990  0.25118793  0.00087726
   0.49871596  0.75091520  0.24878967
   0.25074874  0.50244591  0.24827395
   0.25228991  0.24760097  0.49978346
   0.74634986 -0.00240572  0.74937376
   0.74915998  0.50187220  0.24817920
   0.00045304  0.24679010  0.25020072
   0.74820585  0.24662934  0.49860247
   0.00196062 -0.00222019  0.00253531