<?xml version="1.0" encoding="ISO-8859-1"?>
<modeling>
 <generator>
  <i name="program" type="string">vasp </i>
  <i name="version" type="string">5.4.1  </i>
  <i name="subversion" type="string">05Feb16 (build Jan 29 2020 16:04:39) complex                          parallel </i>
  <i name="platform" type="string">IFC91_ompi </i>
  <i name="date" type="string">2020 06 15 </i>
  <i name="time" type="string">05:04:25 </i>
 </generator>
 <incar>
  <i type="string" name="SYSTEM"> automatically generated by mexm</i>
  <i type="int" name="ISTART">     0</i>
  <i type="string" name="PREC">accurate               ! avoid wrap aro</i>
  <i type="string" name="ALGO"> Fast                   ! blocked Davids</i>
  <i type="int" name="ISPIN">     1</i>
  <i type="int" name="ICHARG">     2</i>
  <i type="int" name="NELM">    70</i>
  <i type="int" name="IBRION">     2</i>
  <i name="EDIFF">      0.00001000</i>
  <i name="EDIFFG">     -0.01000000</i>
  <i type="int" name="NSW">   300</i>
  <i type="int" name="ISIF">     3</i>
  <i type="int" name="ISYM">     1</i>
  <i name="ENCUT">    300.00000000</i>
  <i name="POTIM">      0.15000000</i>
  <i type="string" name="LREAL"> Auto                  ! unpublished met</i>
  <i type="int" name="ISMEAR">     1</i>
  <i name="SIGMA">      0.15000000</i>
  <i type="logical" name="LWAVE"> F  </i>
  <i type="logical" name="LCHARG"> F  </i>
  <i type="logical" name="LVTOT"> F  </i>
  <v type="int" name="KPOINT_BSE">    -1     0     0     0</v>
  <i type="int" name="NELM">    70</i>
 </incar>
 <kpoints>
  <generation param="Gamma">
   <v type="int" name="divisions">       3        3        3 </v>
   <v name="usershift">      0.00000000       0.00000000       0.00000000 </v>
   <v name="genvec1">      0.33333333      -0.00000000       0.00000000 </v>
   <v name="genvec2">     -0.00000000       0.33333333       0.00000000 </v>
   <v name="genvec3">      0.00000000       0.00000000       0.33333333 </v>
   <v name="shift">      0.00000000       0.00000000       0.00000000 </v>
  </generation>
  <varray name="kpointlist" >
   <v>       0.00000000       0.00000000       0.00000000 </v>
   <v>       0.33333333       0.00000000       0.00000000 </v>
   <v>       0.00000000       0.33333333       0.00000000 </v>
   <v>       0.33333333       0.33333333       0.00000000 </v>
   <v>      -0.33333333       0.33333333      -0.00000000 </v>
   <v>       0.00000000      -0.00000000       0.33333333 </v>
   <v>       0.33333333       0.00000000       0.33333333 </v>
   <v>      -0.33333333      -0.00000000       0.33333333 </v>
   <v>       0.00000000       0.33333333       0.33333333 </v>
   <v>       0.33333333       0.33333333       0.33333333 </v>
   <v>      -0.33333333       0.33333333       0.33333333 </v>
   <v>      -0.00000000      -0.33333333       0.33333333 </v>
   <v>       0.33333333      -0.33333333       0.33333333 </v>
   <v>      -0.33333333      -0.33333333       0.33333333 </v>
  </varray>
  <varray name="weights" >
   <v>       0.03703704 </v>
   <v>       0.07407407 </v>
   <v>       0.07407407 </v>
   <v>       0.07407407 </v>
   <v>       0.07407407 </v>
   <v>       0.07407407 </v>
   <v>       0.07407407 </v>
   <v>       0.07407407 </v>
   <v>       0.07407407 </v>
   <v>       0.07407407 </v>
   <v>       0.07407407 </v>
   <v>       0.07407407 </v>
   <v>       0.07407407 </v>
   <v>       0.07407407 </v>
  </varray>
 </kpoints>
 <parameters>
  <separator name="general" >
   <i type="string" name="SYSTEM">automatically generated by mexm</i>
   <i type="logical" name="LCOMPAT"> F  </i>
  </separator>
  <separator name="electronic" >
   <i type="string" name="PREC">accura</i>
   <i name="ENMAX">    300.00000000</i>
   <i name="ENAUG">    461.25700000</i>
   <i name="EDIFF">      0.00001000</i>
   <i type="int" name="IALGO">    68</i>
   <i type="int" name="IWAVPR">    11</i>
   <i type="int" name="NBANDS">   180</i>
   <i name="NELECT">    301.00000000</i>
   <i type="int" name="TURBO">     0</i>
   <i type="int" name="IRESTART">     0</i>
   <i type="int" name="NREBOOT">     0</i>
   <i type="int" name="NMIN">     0</i>
   <i name="EREF">      0.00000000</i>
   <separator name="electronic smearing" >
    <i type="int" name="ISMEAR">     1</i>
    <i name="SIGMA">      0.15000000</i>
    <i name="KSPACING">      0.50000000</i>
    <i type="logical" name="KGAMMA"> T  </i>
   </separator>
   <separator name="electronic projectors" >
    <i type="logical" name="LREAL"> T  </i>
    <v name="ROPT">     -0.00025000     -0.00025000     -0.00025000     -0.00025000</v>
    <i type="int" name="LMAXPAW">  -100</i>
    <i type="int" name="LMAXMIX">     2</i>
    <i type="logical" name="NLSPLINE"> F  </i>
   </separator>
   <separator name="electronic startup" >
    <i type="int" name="ISTART">     0</i>
    <i type="int" name="ICHARG">     2</i>
    <i type="int" name="INIWAV">     1</i>
   </separator>
   <separator name="electronic spin" >
    <i type="int" name="ISPIN">     1</i>
    <i type="logical" name="LNONCOLLINEAR"> F  </i>
    <v name="MAGMOM">      1.00000000      1.00000000      1.00000000      1.00000000      1.00000000      1.00000000      1.00000000      1.00000000      1.00000000      1.00000000      1.00000000      1.00000000      1.00000000      1.00000000      1.00000000      1.00000000      1.00000000      1.00000000      1.00000000      1.00000000
      1.00000000      1.00000000      1.00000000      1.00000000      1.00000000      1.00000000      1.00000000      1.00000000      1.00000000      1.00000000      1.00000000      1.00000000      1.00000000      1.00000000      1.00000000      1.00000000</v>
    <i name="NUPDOWN">     -1.00000000</i>
    <i type="logical" name="LSORBIT"> F  </i>
    <v name="SAXIS">      0.00000000      0.00000000      1.00000000</v>
    <i type="logical" name="LSPIRAL"> F  </i>
    <v name="QSPIRAL">      0.00000000      0.00000000      0.00000000</v>
    <i type="logical" name="LZEROZ"> F  </i>
   </separator>
   <separator name="electronic exchange-correlation" >
    <i type="logical" name="LASPH"> F  </i>
    <i type="logical" name="LMETAGGA"> F  </i>
   </separator>
   <separator name="electronic convergence" >
    <i type="int" name="NELM">    70</i>
    <i type="int" name="NELMDL">    -5</i>
    <i type="int" name="NELMIN">     2</i>
    <i name="ENINI">    300.00000000</i>
    <separator name="electronic convergence detail" >
     <i type="logical" name="LDIAG"> T  </i>
     <i type="logical" name="LSUBROT"> F  </i>
     <i name="WEIMIN">      0.00100000</i>
     <i name="EBREAK">      0.00000001</i>
     <i name="DEPER">      0.30000000</i>
     <i type="int" name="NRMM">     4</i>
     <i name="TIME">      0.40000000</i>
    </separator>
   </separator>
   <separator name="electronic mixer" >
    <i name="AMIX">      0.40000000</i>
    <i name="BMIX">      1.00000000</i>
    <i name="AMIN">      0.10000000</i>
    <i name="AMIX_MAG">      1.60000000</i>
    <i name="BMIX_MAG">      1.00000000</i>
    <separator name="electronic mixer details" >
     <i type="int" name="IMIX">     4</i>
     <i type="logical" name="MIXFIRST"> F  </i>
     <i type="int" name="MAXMIX">   -45</i>
     <i name="WC">    100.00000000</i>
     <i type="int" name="INIMIX">     1</i>
     <i type="int" name="MIXPRE">     1</i>
     <i type="int" name="MREMOVE">     5</i>
    </separator>
   </separator>
   <separator name="electronic dipolcorrection" >
    <i type="logical" name="LDIPOL"> F  </i>
    <i type="logical" name="LMONO"> F  </i>
    <i type="int" name="IDIPOL">     0</i>
    <i name="EPSILON">      1.00000000</i>
    <v name="DIPOL">   -100.00000000   -100.00000000   -100.00000000</v>
    <i name="EFIELD">      0.00000000</i>
   </separator>
  </separator>
  <separator name="grids" >
   <i type="int" name="NGX">    40</i>
   <i type="int" name="NGY">    60</i>
   <i type="int" name="NGZ">    60</i>
   <i type="int" name="NGXF">    80</i>
   <i type="int" name="NGYF">   120</i>
   <i type="int" name="NGZF">   120</i>
   <i type="logical" name="ADDGRID"> F  </i>
  </separator>
  <separator name="ionic" >
   <i type="int" name="NSW">   300</i>
   <i type="int" name="IBRION">     2</i>
   <i type="int" name="ISIF">     3</i>
   <i name="PSTRESS">      0.00000000</i>
   <i name="EDIFFG">     -0.01000000</i>
   <i type="int" name="NFREE">     1</i>
   <i name="POTIM">      0.15000000</i>
   <i name="SMASS">     -3.00000000</i>
   <i name="SCALEE">      1.00000000</i>
  </separator>
  <separator name="ionic md" >
   <i name="TEBEG">      0.00010000</i>
   <i name="TEEND">      0.00010000</i>
   <i type="int" name="NBLOCK">     1</i>
   <i type="int" name="KBLOCK">   300</i>
   <i type="int" name="NPACO">   256</i>
   <i name="APACO">     16.00000000</i>
  </separator>
  <separator name="symmetry" >
   <i type="int" name="ISYM">     1</i>
   <i name="SYMPREC">      0.00001000</i>
  </separator>
  <separator name="dos" >
   <i type="logical" name="LORBIT"> F  </i>
   <v name="RWIGS">     -1.00000000     -1.00000000     -1.00000000     -1.00000000</v>
   <i type="int" name="NEDOS">   301</i>
   <i name="EMIN">     10.00000000</i>
   <i name="EMAX">    -10.00000000</i>
   <i name="EFERMI">      0.00000000</i>
  </separator>
  <separator name="writing" >
   <i type="int" name="NWRITE">     2</i>
   <i type="logical" name="LWAVE"> F  </i>
   <i type="logical" name="LCHARG"> F  </i>
   <i type="logical" name="LPARD"> F  </i>
   <i type="logical" name="LVTOT"> F  </i>
   <i type="logical" name="LVHAR"> F  </i>
   <i type="logical" name="LELF"> F  </i>
   <i type="logical" name="LOPTICS"> F  </i>
   <v name="STM">      0.00000000      0.00000000      0.00000000      0.00000000      0.00000000      0.00000000      0.00000000</v>
  </separator>
  <separator name="performance" >
   <i type="int" name="NPAR">     4</i>
   <i type="int" name="NSIM">     4</i>
   <i type="int" name="NBLK">    -1</i>
   <i type="logical" name="LPLANE"> T  </i>
   <i type="logical" name="LSCALAPACK"> T  </i>
   <i type="logical" name="LSCAAWARE"> F  </i>
   <i type="logical" name="LSCALU"> F  </i>
   <i type="logical" name="LASYNC"> F  </i>
   <i type="logical" name="LORBITALREAL"> F  </i>
  </separator>
  <separator name="miscellaneous" >
   <i type="int" name="IDIOT">     3</i>
   <i type="logical" name="LMUSIC"> F  </i>
   <v name="POMASS">    180.94800000    178.49000000     91.22400000     92.91000000</v>
   <v name="DARWINR">      0.00000000      0.00000000      0.00000000      0.00000000</v>
   <v name="DARWINV">      1.00000000      1.00000000      1.00000000      1.00000000</v>
   <i type="logical" name="LCORR"> T  </i>
  </separator>
  <i type="logical" name="GGA_COMPAT"> T  </i>
  <i type="logical" name="LBERRY"> F  </i>
  <i type="int" name="ICORELEVEL">     0</i>
  <i type="logical" name="LDAU"> F  </i>
  <i type="int" name="I_CONSTRAINED_M">     0</i>
  <separator name="electronic exchange-correlation" >
   <i type="string" name="GGA">--</i>
   <i type="int" name="VOSKOWN">     0</i>
   <i type="logical" name="LHFCALC"> F  </i>
   <i type="string" name="PRECFOCK"></i>
   <i type="logical" name="LSYMGRAD"> F  </i>
   <i type="logical" name="LHFONE"> F  </i>
   <i type="logical" name="LRHFCALC"> F  </i>
   <i type="logical" name="LTHOMAS"> F  </i>
   <i type="logical" name="LMODELHF"> F  </i>
   <i name="ENCUT4O">     -1.00000000</i>
   <i type="int" name="EXXOEP">     0</i>
   <i type="int" name="FOURORBIT">     0</i>
   <i name="AEXX">      0.00000000</i>
   <i name="HFALPHA">      0.00000000</i>
   <i name="MCALPHA">      0.00000000</i>
   <i name="ALDAX">      1.00000000</i>
   <i name="AGGAX">      1.00000000</i>
   <i name="ALDAC">      1.00000000</i>
   <i name="AGGAC">      1.00000000</i>
   <i type="int" name="NKREDX">     1</i>
   <i type="int" name="NKREDY">     1</i>
   <i type="int" name="NKREDZ">     1</i>
   <i type="logical" name="SHIFTRED"> F  </i>
   <i type="logical" name="ODDONLY"> F  </i>
   <i type="logical" name="EVENONLY"> F  </i>
   <i type="int" name="LMAXFOCK">     0</i>
   <i type="int" name="NMAXFOCKAE">     0</i>
   <i type="logical" name="LFOCKAEDFT"> F  </i>
   <i name="HFSCREEN">      0.00000000</i>
   <i name="HFSCREENC">      0.00000000</i>
   <i type="int" name="NBANDSGWLOW">     0</i>
  </separator>
  <separator name="vdW DFT" >
   <i type="logical" name="LUSE_VDW"> F  </i>
   <i name="Zab_VDW">     -0.84910000</i>
   <i name="PARAM1">      0.12340000</i>
   <i name="PARAM2">      1.00000000</i>
   <i name="PARAM3">      0.00000000</i>
  </separator>
  <separator name="model GW" >
   <i type="int" name="MODEL_GW">     0</i>
   <i name="MODEL_EPS0">     12.45982571</i>
   <i name="MODEL_ALPHA">      1.00000000</i>
  </separator>
  <separator name="linear response parameters" >
   <i type="logical" name="LEPSILON"> F  </i>
   <i type="logical" name="LRPA"> F  </i>
   <i type="logical" name="LNABLA"> F  </i>
   <i type="logical" name="LVEL"> F  </i>
   <i type="int" name="KINTER">     0</i>
   <i name="CSHIFT">      0.10000000</i>
   <i name="OMEGAMAX">     -1.00000000</i>
   <i name="DEG_THRESHOLD">      0.00200000</i>
  </separator>
  <separator name="orbital magnetization" >
   <i type="logical" name="NUCIND"> F  </i>
   <v name="MAGPOS">      0.00000000      0.00000000      0.00000000</v>
   <i type="logical" name="LNICSALL"> T  </i>
   <i type="logical" name="ORBITALMAG"> F  </i>
   <i type="logical" name="LMAGBLOCH"> F  </i>
   <i type="logical" name="LCHIMAG"> F  </i>
   <i type="logical" name="LGAUGE"> T  </i>
   <i type="int" name="MAGATOM">     0</i>
   <v name="MAGDIPOL">      0.00000000      0.00000000      0.00000000</v>
   <v name="AVECCONST">      0.00000000      0.00000000      0.00000000</v>
  </separator>
  <separator name="response functions" >
   <i type="logical" name="LADDER"> F  </i>
   <i type="logical" name="LFXC"> F  </i>
   <i type="logical" name="LHARTREE"> T  </i>
   <i type="int" name="IBSE">     0</i>
   <v type="int" name="KPOINT">    -1     0     0     0</v>
   <i type="logical" name="LTCTE"> F  </i>
   <i type="logical" name="LTETE"> F  </i>
   <i type="logical" name="LTRIPLET"> F  </i>
   <i type="logical" name="LFXCEPS"> F  </i>
   <i type="logical" name="LFXHEG"> F  </i>
   <i type="int" name="NATURALO">     0</i>
   <i type="logical" name="L2ORDER"> F  </i>
   <i type="logical" name="LUSEW"> F  </i>
   <i name="ENCUTGW">     -2.00000000</i>
   <i name="ENCUTGWSOFT">     -2.00000000</i>
   <i name="ENCUTLF">     -1.00000000</i>
   <i type="int" name="LMAXMP2">    -1</i>
   <i name="SCISSOR">      0.00000000</i>
   <i type="int" name="NOMEGA">     0</i>
   <i type="int" name="NOMEGAR">     0</i>
   <i type="int" name="NBANDSGW">    -1</i>
   <i type="int" name="NBANDSO">    -1</i>
   <i type="int" name="NBANDSV">    -1</i>
   <i type="int" name="NELM">    70</i>
   <i type="int" name="NELMHF">     1</i>
   <i type="int" name="DIM">     3</i>
   <i type="int" name="ANTIRES">     0</i>
   <i name="OMEGAMAX">    -30.00000000</i>
   <i name="OMEGAMIN">    -30.00000000</i>
   <i name="OMEGATL">   -200.00000000</i>
   <i type="int" name="OMEGAGRID">     0</i>
   <i name="CSHIFT">     -0.10000000</i>
   <i type="logical" name="SELFENERGY"> F  </i>
   <i type="logical" name="LSPECTRAL"> F  </i>
   <i type="logical" name="LSPECTRALGW"> F  </i>
   <i type="logical" name="LSINGLES"> F  </i>
   <i type="logical" name="LFERMIGW"> F  </i>
   <i type="logical" name="ODDONLYGW"> F  </i>
   <i type="logical" name="EVENONLYGW"> F  </i>
   <i type="int" name="NKREDLFX">     1</i>
   <i type="int" name="NKREDLFY">     1</i>
   <i type="int" name="NKREDLFZ">     1</i>
   <i type="int" name="MAXMEM">  1800</i>
   <i type="int" name="TELESCOPE">     0</i>
   <i type="int" name="TAUPAR">     1</i>
   <i type="int" name="OMEGAPAR">    -1</i>
   <i name="LAMBDA">      1.00000000</i>
  </separator>
  <separator name="External order field" >
   <i name="OFIELD_KAPPA">      0.00000000</i>
   <v name="OFIELD_K">      0.00000000      0.00000000      0.00000000</v>
   <i name="OFIELD_Q6_NEAR">      0.00000000</i>
   <i name="OFIELD_Q6_FAR">      0.00000000</i>
   <i name="OFIELD_A">      0.00000000</i>
  </separator>
 </parameters>
 <atominfo>
  <atoms>      36 </atoms>
  <types>       4 </types>
  <array name="atoms" >
   <dimension dim="1">ion</dimension>
   <field type="string">element</field>
   <field type="int">atomtype</field>
   <set>
    <rc><c>Ta</c><c>   1</c></rc>
    <rc><c>Ta</c><c>   1</c></rc>
    <rc><c>Ta</c><c>   1</c></rc>
    <rc><c>Ta</c><c>   1</c></rc>
    <rc><c>Ta</c><c>   1</c></rc>
    <rc><c>Ta</c><c>   1</c></rc>
    <rc><c>Ta</c><c>   1</c></rc>
    <rc><c>Ta</c><c>   1</c></rc>
    <rc><c>Ta</c><c>   1</c></rc>
    <rc><c>Hf</c><c>   2</c></rc>
    <rc><c>Hf</c><c>   2</c></rc>
    <rc><c>Hf</c><c>   2</c></rc>
    <rc><c>Hf</c><c>   2</c></rc>
    <rc><c>Hf</c><c>   2</c></rc>
    <rc><c>Hf</c><c>   2</c></rc>
    <rc><c>Hf</c><c>   2</c></rc>
    <rc><c>Hf</c><c>   2</c></rc>
    <rc><c>Hf</c><c>   2</c></rc>
    <rc><c>Zr</c><c>   3</c></rc>
    <rc><c>Zr</c><c>   3</c></rc>
    <rc><c>Zr</c><c>   3</c></rc>
    <rc><c>Zr</c><c>   3</c></rc>
    <rc><c>Zr</c><c>   3</c></rc>
    <rc><c>Zr</c><c>   3</c></rc>
    <rc><c>Zr</c><c>   3</c></rc>
    <rc><c>Zr</c><c>   3</c></rc>
    <rc><c>Zr</c><c>   3</c></rc>
    <rc><c>Zr</c><c>   3</c></rc>
    <rc><c>Zr</c><c>   3</c></rc>
    <rc><c>Zr</c><c>   3</c></rc>
    <rc><c>Zr</c><c>   3</c></rc>
    <rc><c>Zr</c><c>   3</c></rc>
    <rc><c>Nb</c><c>   4</c></rc>
    <rc><c>Nb</c><c>   4</c></rc>
    <rc><c>Nb</c><c>   4</c></rc>
    <rc><c>Nb</c><c>   4</c></rc>
   </set>
  </array>
  <array name="atomtypes" >
   <dimension dim="1">type</dimension>
   <field type="int">atomspertype</field>
   <field type="string">element</field>
   <field>mass</field>
   <field>valence</field>
   <field type="string">pseudopotential</field>
   <set>
    <rc><c>   9</c><c>Ta</c><c>    180.94800000</c><c>      5.00000000</c><c>  PAW_PBE Ta 17Jan2003                  </c></rc>
    <rc><c>   9</c><c>Hf</c><c>    178.49000000</c><c>      4.00000000</c><c>  PAW_PBE Hf 20Jan2003                  </c></rc>
    <rc><c>  14</c><c>Zr</c><c>     91.22400000</c><c>     12.00000000</c><c>  PAW_PBE Zr_sv 04Jan2005               </c></rc>
    <rc><c>   4</c><c>Nb</c><c>     92.91000000</c><c>     13.00000000</c><c>  PAW_PBE Nb_sv 25May2007               </c></rc>
   </set>
  </array>
 </atominfo>
 <structure name="initialpos" >
  <crystal>
   <varray name="basis" >
    <v>       7.02294188       0.02414342      -0.03398536 </v>
    <v>       0.03519253      10.32726826      -0.02165425 </v>
    <v>      -0.05071116      -0.02199845      10.30803833 </v>
   </varray>
   <i name="volume">    747.58954251 </i>
   <varray name="rec_basis" >
    <v>       0.14239552      -0.00048378       0.00069949 </v>
    <v>      -0.00033190       0.09683259       0.00020502 </v>
    <v>       0.00046878       0.00020182       0.09701441 </v>
   </varray>
  </crystal>
  <varray name="positions" >
   <v>       0.74355100       0.83286600       0.82398400 </v>
   <v>       0.75908300       0.84242200       0.17513000 </v>
   <v>       0.00782900       0.98679500       0.33218000 </v>
   <v>       0.28200200       0.49733900       0.14634200 </v>
   <v>       0.24146400       0.83723700       0.17585100 </v>
   <v>       0.48587900       0.98717800       0.66132400 </v>
   <v>       0.72567400       0.50988800       0.15572400 </v>
   <v>       0.77719800       0.15574100       0.48471700 </v>
   <v>       0.50379000       0.67277400       0.99836100 </v>
   <v>       0.96584000       0.31975300       0.68256400 </v>
   <v>       0.74923700       0.15253800       0.17365900 </v>
   <v>       0.00020700       0.00096200       0.67617900 </v>
   <v>       0.22546100       0.50166400       0.51531200 </v>
   <v>       0.01345300       0.66689500       0.31446400 </v>
   <v>       0.49010200       0.96563300       0.00379800 </v>
   <v>       0.49224700       0.99672400       0.34331900 </v>
   <v>       0.52848000       0.33223900       0.64971100 </v>
   <v>       0.98136800       0.33960700       0.00364500 </v>
   <v>       0.99998600       0.34808400       0.31569800 </v>
   <v>       0.49145500       0.67025300       0.32856200 </v>
   <v>       0.71116300       0.15347600       0.84617900 </v>
   <v>       0.00420400       0.99320100       0.99517000 </v>
   <v>       0.22473800       0.16866500       0.50366400 </v>
   <v>       0.27348500       0.17263300       0.83561600 </v>
   <v>       0.99687600       0.66826000       0.00254100 </v>
   <v>       0.51015400       0.33651300       0.34031500 </v>
   <v>       0.78618500       0.51554200       0.50538800 </v>
   <v>       0.49639400       0.67238700       0.66642000 </v>
   <v>       0.76359400       0.83294700       0.50303200 </v>
   <v>       0.25489400       0.49617500       0.83404700 </v>
   <v>       0.26615300       0.17189300       0.15498600 </v>
   <v>       0.23514000       0.83452800       0.50213800 </v>
   <v>       0.00280100       0.67977100       0.68383600 </v>
   <v>       0.24877500       0.82482500       0.82342700 </v>
   <v>       0.52224700       0.35319700       0.00253300 </v>
   <v>       0.73889300       0.50939900       0.84019900 </v>
  </varray>
 </structure>
 <calculation>
  <scstep>
   <time name="dav">    1.03    1.15</time>
   <time name="total">    1.28    1.61</time>
   <energy>
    <i name="alphaZ">   1509.75896050 </i>
    <i name="ewald"> -20238.61674240 </i>
    <i name="hartreedc">  -6592.08719052 </i>
    <i name="XCdc">   -150.60119455 </i>
    <i name="pawpsdc">  21807.49619268 </i>
    <i name="pawaedc"> -20271.30178312 </i>
    <i name="eentropy">     -0.00345549 </i>
    <i name="bandstr">   -189.52929184 </i>
    <i name="atom">  26057.72617038 </i>
    <i name="e_fr_energy">   1932.84166564 </i>
    <i name="e_wo_entrp">   1932.84512114 </i>
    <i name="e_0_energy">   1932.84281747 </i>
   </energy>
  </scstep>
  <scstep>
   <time name="dav">    1.08    1.10</time>
   <time name="total">    1.08    1.19</time>
   <energy>
    <i name="e_fr_energy">    -51.51268296 </i>
    <i name="e_wo_entrp">    -51.51639253 </i>
    <i name="e_0_energy">    -51.51391948 </i>
   </energy>
  </scstep>
  <scstep>
   <time name="dav">    1.60    1.63</time>
   <time name="total">    1.60    1.65</time>
   <energy>
    <i name="e_fr_energy">   -327.51193238 </i>
    <i name="e_wo_entrp">   -327.52226970 </i>
    <i name="e_0_energy">   -327.51537815 </i>
   </energy>
  </scstep>
  <scstep>
   <time name="dav">    1.42    1.50</time>
   <time name="total">    1.42    1.52</time>
   <energy>
    <i name="e_fr_energy">   -363.11502926 </i>
    <i name="e_wo_entrp">   -363.12721630 </i>
    <i name="e_0_energy">   -363.11909161 </i>
   </energy>
  </scstep>
  <scstep>
   <time name="dav">    1.36    1.39</time>
   <time name="total">    1.40    1.45</time>
   <energy>
    <i name="e_fr_energy">   -366.85912730 </i>
    <i name="e_wo_entrp">   -366.87198749 </i>
    <i name="e_0_energy">   -366.86341403 </i>
   </energy>
  </scstep>
  <scstep>
   <time name="diag">    0.09    0.09</time>
   <time name="diis">    0.79    0.80</time>
   <time name="orth">    0.06    0.06</time>
   <time name="total">    1.00    1.04</time>
   <energy>
    <i name="e_fr_energy">   -357.21549118 </i>
    <i name="e_wo_entrp">   -357.23597395 </i>
    <i name="e_0_energy">   -357.22231877 </i>
   </energy>
  </scstep>
  <scstep>
   <time name="diag">    0.11    0.11</time>
   <time name="diis">    0.84    0.86</time>
   <time name="orth">    0.01    0.01</time>
   <time name="total">    1.06    1.10</time>
   <energy>
    <i name="e_fr_energy">   -361.34552067 </i>
    <i name="e_wo_entrp">   -361.33834841 </i>
    <i name="e_0_energy">   -361.34312992 </i>
   </energy>
  </scstep>
  <scstep>
   <time name="diag">    0.08    0.08</time>
   <time name="diis">    0.85    0.87</time>
   <time name="orth">    0.01    0.01</time>
   <time name="total">    1.02    1.06</time>
   <energy>
    <i name="e_fr_energy">   -352.80425530 </i>
    <i name="e_wo_entrp">   -352.81745514 </i>
    <i name="e_0_energy">   -352.80865525 </i>
   </energy>
  </scstep>
  <scstep>
   <time name="diag">    0.09    0.09</time>
   <time name="diis">    0.88    0.90</time>
   <time name="orth">    0.01    0.01</time>
   <time name="total">    1.05    1.10</time>
   <energy>
    <i name="e_fr_energy">   -352.36507358 </i>
    <i name="e_wo_entrp">   -352.38570218 </i>
    <i name="e_0_energy">   -352.37194978 </i>
   </energy>
  </scstep>
  <scstep>
   <time name="diag">    0.09    0.09</time>
   <time name="diis">    0.77    0.79</time>
   <time name="orth">    0.01    0.01</time>
   <time name="total">    0.94    0.98</time>
   <energy>
    <i name="e_fr_energy">   -352.38062946 </i>
    <i name="e_wo_entrp">   -352.40103575 </i>
    <i name="e_0_energy">   -352.38743156 </i>
   </energy>
  </scstep>
  <scstep>
   <time name="diag">    0.08    0.08</time>
   <time name="diis">    0.75    0.77</time>
   <time name="orth">    0.01    0.01</time>
   <time name="total">    0.92    0.95</time>
   <energy>
    <i name="e_fr_energy">   -352.36195566 </i>
    <i name="e_wo_entrp">   -352.38189497 </i>
    <i name="e_0_energy">   -352.36860210 </i>
   </energy>
  </scstep>
  <scstep>
   <time name="diag">    0.18    0.18</time>
   <time name="diis">    0.78    0.82</time>
   <time name="orth">    0.02    0.02</time>
   <time name="total">    1.13    1.22</time>
   <energy>
    <i name="e_fr_energy">   -352.35276717 </i>
    <i name="e_wo_entrp">   -352.37290403 </i>
    <i name="e_0_energy">   -352.35947945 </i>
   </energy>
  </scstep>
  <scstep>
   <time name="diag">    0.09    0.09</time>
   <time name="diis">    0.77    0.79</time>
   <time name="orth">    0.01    0.01</time>
   <time name="total">    0.95    1.00</time>
   <energy>
    <i name="e_fr_energy">   -352.35108658 </i>
    <i name="e_wo_entrp">   -352.37130128 </i>
    <i name="e_0_energy">   -352.35782481 </i>
   </energy>
  </scstep>
  <scstep>
   <time name="diag">    0.08    0.08</time>
   <time name="diis">    0.79    0.80</time>
   <time name="orth">    0.02    0.02</time>
   <time name="total">    0.98    1.02</time>
   <energy>
    <i name="e_fr_energy">   -352.35148246 </i>
    <i name="e_wo_entrp">   -352.37171803 </i>
    <i name="e_0_energy">   -352.35822765 </i>
   </energy>
  </scstep>
  <scstep>
   <time name="diag">    0.09    0.09</time>
   <time name="diis">    0.77    0.78</time>
   <time name="orth">    0.01    0.01</time>
   <time name="total">    0.93    0.99</time>
   <energy>
    <i name="e_fr_energy">   -352.35196363 </i>
    <i name="e_wo_entrp">   -352.37223606 </i>
    <i name="e_0_energy">   -352.35872111 </i>
   </energy>
  </scstep>
  <scstep>
   <time name="diag">    0.09    0.09</time>
   <time name="diis">    0.73    0.74</time>
   <time name="orth">    0.02    0.02</time>
   <time name="total">    0.91    0.97</time>
   <energy>
    <i name="e_fr_energy">   -352.35207128 </i>
    <i name="e_wo_entrp">   -352.37241663 </i>
    <i name="e_0_energy">   -352.35885306 </i>
   </energy>
  </scstep>
  <scstep>
   <time name="diag">    0.09    0.09</time>
   <time name="diis">    0.64    0.66</time>
   <time name="orth">    0.01    0.01</time>
   <time name="total">    0.82    0.86</time>
   <energy>
    <i name="e_fr_energy">   -352.35211921 </i>
    <i name="e_wo_entrp">   -352.37239319 </i>
    <i name="e_0_energy">   -352.35887720 </i>
   </energy>
  </scstep>
  <scstep>
   <time name="diag">    0.14    0.14</time>
   <time name="diis">    0.63    0.64</time>
   <time name="orth">    0.01    0.01</time>
   <time name="total">    0.87    0.91</time>
   <energy>
    <i name="e_fr_energy">   -352.35216035 </i>
    <i name="e_wo_entrp">   -352.37245139 </i>
    <i name="e_0_energy">   -352.35892403 </i>
   </energy>
  </scstep>
  <scstep>
   <time name="diag">    0.08    0.08</time>
   <time name="diis">    0.66    0.67</time>
   <time name="orth">    0.01    0.01</time>
   <time name="total">    0.82    0.86</time>
   <energy>
    <i name="e_fr_energy">   -352.35217726 </i>
    <i name="e_wo_entrp">   -352.37248719 </i>
    <i name="e_0_energy">   -352.35894724 </i>
   </energy>
  </scstep>
  <scstep>
   <time name="diag">    0.08    0.08</time>
   <time name="diis">    0.50    0.51</time>
   <time name="orth">    0.01    0.01</time>
   <time name="total">    0.67    0.70</time>
   <energy>
    <i name="e_fr_energy">   -352.35218374 </i>
    <i name="e_wo_entrp">   -352.37250004 </i>
    <i name="e_0_energy">   -352.35895584 </i>
   </energy>
  </scstep>
  <scstep>
   <time name="diag">    0.09    0.09</time>
   <time name="diis">    0.49    0.50</time>
   <time name="orth">    0.01    0.01</time>
   <time name="total">    0.62    0.65</time>
   <energy>
    <i name="alphaZ">   1509.75896050 </i>
    <i name="ewald"> -20238.61674240 </i>
    <i name="hartreedc">  -6341.48298613 </i>
    <i name="XCdc">   -152.36936428 </i>
    <i name="pawpsdc">  35625.53193398 </i>
    <i name="pawaedc"> -34071.90468494 </i>
    <i name="eentropy">      0.02031856 </i>
    <i name="bandstr">  -2741.01579407 </i>
    <i name="atom">  26057.72617038 </i>
    <i name="e_fr_energy">   -352.35218840 </i>
    <i name="e_wo_entrp">   -352.37250695 </i>
    <i name="e_0_energy">   -352.35896125 </i>
   </energy>
  </scstep>
  <structure>
   <crystal>
    <varray name="basis" >
     <v>       7.02294188       0.02414342      -0.03398536 </v>
     <v>       0.03519253      10.32726826      -0.02165425 </v>
     <v>      -0.05071116      -0.02199845      10.30803833 </v>
    </varray>
    <i name="volume">    747.58954251 </i>
    <varray name="rec_basis" >
     <v>       0.14239552      -0.00048378       0.00069949 </v>
     <v>      -0.00033190       0.09683259       0.00020502 </v>
     <v>       0.00046878       0.00020182       0.09701441 </v>
    </varray>
   </crystal>
   <varray name="positions" >
    <v>       0.74355100       0.83286600       0.82398400 </v>
    <v>       0.75908300       0.84242200       0.17513000 </v>
    <v>       0.00782900       0.98679500       0.33218000 </v>
    <v>       0.28200200       0.49733900       0.14634200 </v>
    <v>       0.24146400       0.83723700       0.17585100 </v>
    <v>       0.48587900       0.98717800       0.66132400 </v>
    <v>       0.72567400       0.50988800       0.15572400 </v>
    <v>       0.77719800       0.15574100       0.48471700 </v>
    <v>       0.50379000       0.67277400       0.99836100 </v>
    <v>       0.96584000       0.31975300       0.68256400 </v>
    <v>       0.74923700       0.15253800       0.17365900 </v>
    <v>       0.00020700       0.00096200       0.67617900 </v>
    <v>       0.22546100       0.50166400       0.51531200 </v>
    <v>       0.01345300       0.66689500       0.31446400 </v>
    <v>       0.49010200       0.96563300       0.00379800 </v>
    <v>       0.49224700       0.99672400       0.34331900 </v>
    <v>       0.52848000       0.33223900       0.64971100 </v>
    <v>       0.98136800       0.33960700       0.00364500 </v>
    <v>       0.99998600       0.34808400       0.31569800 </v>
    <v>       0.49145500       0.67025300       0.32856200 </v>
    <v>       0.71116300       0.15347600       0.84617900 </v>
    <v>       0.00420400       0.99320100       0.99517000 </v>
    <v>       0.22473800       0.16866500       0.50366400 </v>
    <v>       0.27348500       0.17263300       0.83561600 </v>
    <v>       0.99687600       0.66826000       0.00254100 </v>
    <v>       0.51015400       0.33651300       0.34031500 </v>
    <v>       0.78618500       0.51554200       0.50538800 </v>
    <v>       0.49639400       0.67238700       0.66642000 </v>
    <v>       0.76359400       0.83294700       0.50303200 </v>
    <v>       0.25489400       0.49617500       0.83404700 </v>
    <v>       0.26615300       0.17189300       0.15498600 </v>
    <v>       0.23514000       0.83452800       0.50213800 </v>
    <v>       0.00280100       0.67977100       0.68383600 </v>
    <v>       0.24877500       0.82482500       0.82342700 </v>
    <v>       0.52224700       0.35319700       0.00253300 </v>
    <v>       0.73889300       0.50939900       0.84019900 </v>
   </varray>
  </structure>
  <varray name="forces" >
   <v>      -0.02279139      -0.00312118      -0.01455546 </v>
   <v>       0.01852333       0.00622646       0.03801538 </v>
   <v>      -0.42748435       0.38357920      -0.58829515 </v>
   <v>      -0.01521527      -0.00435209      -0.00101143 </v>
   <v>       0.00033430       0.00297916      -0.07036972 </v>
   <v>       0.42742160       0.34320269       0.40524138 </v>
   <v>       0.00018061       0.03840138       0.08153652 </v>
   <v>       0.02435558      -0.04451267       0.01457115 </v>
   <v>       0.03412183      -0.00471634      -0.01621246 </v>
   <v>       0.02355782       0.01228088      -0.00530929 </v>
   <v>      -0.00100023      -0.01569486       0.03199272 </v>
   <v>      -0.24258737       0.27484268       0.35794515 </v>
   <v>       0.00936186      -0.17758204      -0.02636603 </v>
   <v>      -0.18345826      -0.24548082      -0.32460450 </v>
   <v>       0.02285806      -0.00351191       0.00344487 </v>
   <v>       0.27150503       0.23714060      -0.20076702 </v>
   <v>      -0.00083689       0.00239011       0.00935917 </v>
   <v>      -0.01823501      -0.00581255       0.00386105 </v>
   <v>      -0.00947812      -0.00584512      -0.00712610 </v>
   <v>       0.22488638      -0.20221151      -0.22698984 </v>
   <v>      -0.01933221      -0.01432002      -0.06853979 </v>
   <v>      -0.00120050       0.01626449      -0.00037858 </v>
   <v>       0.03392892       0.10544833       0.01319741 </v>
   <v>      -0.01969429      -0.02967620      -0.02150816 </v>
   <v>      -0.00468264      -0.00909002      -0.01857857 </v>
   <v>       0.00965884      -0.00549715      -0.02093586 </v>
   <v>       0.01407892       0.09250408      -0.00759277 </v>
   <v>       0.26027156      -0.15644478       0.20840637 </v>
   <v>      -0.09118294      -0.04437367      -0.00509333 </v>
   <v>      -0.00593157      -0.00992717       0.00478061 </v>
   <v>      -0.01221024      -0.00995488       0.01241584 </v>
   <v>      -0.01368423      -0.32102970       0.02588578 </v>
   <v>      -0.28634412      -0.25364781       0.42386434 </v>
   <v>      -0.01149095       0.05037196       0.04211211 </v>
   <v>       0.00622811      -0.01086330       0.00485249 </v>
   <v>       0.00556782       0.01203378      -0.05724827 </v>
  </varray>
  <varray name="stress" >
   <v>       7.75169707       0.08741867       0.63791336 </v>
   <v>       0.08741869       6.80052683       0.04519113 </v>
   <v>       0.63791334       0.04519112       8.71247224 </v>
  </varray>
  <energy>
   <i name="e_fr_energy">   -352.35218840 </i>
   <i name="e_wo_entrp">   -352.35896125 </i>
   <i name="e_0_energy">      0.02031856 </i>
  </energy>
  <time name="totalsc">   23.20   24.70</time>
 </calculation>
 <calculation>
  <scstep>
   <time name="dav">    1.10    1.12</time>
   <time name="total">    1.26    1.40</time>
   <energy>
    <i name="alphaZ">   1503.18933495 </i>
    <i name="ewald"> -20210.42434666 </i>
    <i name="hartreedc">  -6331.32484233 </i>
    <i name="XCdc">   -153.70324691 </i>
    <i name="pawpsdc">  35625.38686507 </i>
    <i name="pawaedc"> -34071.75964182 </i>
    <i name="eentropy">      0.02110976 </i>
    <i name="bandstr">  -2771.54320810 </i>
    <i name="atom">  26057.72617038 </i>
    <i name="e_fr_energy">   -352.43180566 </i>
    <i name="e_wo_entrp">   -352.45291542 </i>
    <i name="e_0_energy">   -352.43884224 </i>
   </energy>
  </scstep>
  <scstep>
   <time name="diag">    0.09    0.09</time>
   <time name="diis">    0.69    0.77</time>
   <time name="orth">    0.01    0.01</time>
   <time name="total">    0.86    0.95</time>
   <energy>
    <i name="e_fr_energy">   -352.40928708 </i>
    <i name="e_wo_entrp">   -352.43079300 </i>
    <i name="e_0_energy">   -352.41645572 </i>
   </energy>
  </scstep>
  <scstep>
   <time name="diag">    0.09    0.09</time>
   <time name="diis">    0.81    0.83</time>
   <time name="orth">    0.01    0.01</time>
   <time name="total">    0.98    1.02</time>
   <energy>
    <i name="e_fr_energy">   -352.40607868 </i>
    <i name="e_wo_entrp">   -352.42709811 </i>
    <i name="e_0_energy">   -352.41308516 </i>
   </energy>
  </scstep>
  <scstep>
   <time name="diag">    0.09    0.09</time>
   <time name="diis">    0.77    0.85</time>
   <time name="orth">    0.01    0.02</time>
   <time name="total">    0.94    1.07</time>
   <energy>
    <i name="e_fr_energy">   -352.39753954 </i>
    <i name="e_wo_entrp">   -352.41905435 </i>
    <i name="e_0_energy">   -352.40471114 </i>
   </energy>
  </scstep>
  <scstep>
   <time name="diag">    0.09    0.11</time>
   <time name="diis">    0.82    0.87</time>
   <time name="orth">    0.01    0.01</time>
   <time name="total">    0.99    1.11</time>
   <energy>
    <i name="e_fr_energy">   -352.39729309 </i>
    <i name="e_wo_entrp">   -352.41872403 </i>
    <i name="e_0_energy">   -352.40443674 </i>
   </energy>
  </scstep>
  <scstep>
   <time name="diag">    0.08    0.14</time>
   <time name="diis">    0.87    0.89</time>
   <time name="orth">    0.01    0.01</time>
   <time name="total">    1.03    1.33</time>
   <energy>
    <i name="e_fr_energy">   -352.39731204 </i>
    <i name="e_wo_entrp">   -352.41874497 </i>
    <i name="e_0_energy">   -352.40445635 </i>
   </energy>
  </scstep>
  <scstep>
   <time name="diag">    0.08    0.09</time>
   <time name="diis">    0.78    0.79</time>
   <time name="orth">    0.01    0.01</time>
   <time name="total">    0.94    0.99</time>
   <energy>
    <i name="e_fr_energy">   -352.39736734 </i>
    <i name="e_wo_entrp">   -352.41883200 </i>
    <i name="e_0_energy">   -352.40452223 </i>
   </energy>
  </scstep>
  <scstep>
   <time name="diag">    0.08    0.09</time>
   <time name="diis">    0.72    0.74</time>
   <time name="orth">    0.01    0.01</time>
   <time name="total">    0.89    0.93</time>
   <energy>
    <i name="e_fr_energy">   -352.39738567 </i>
    <i name="e_wo_entrp">   -352.41881820 </i>
    <i name="e_0_energy">   -352.40452984 </i>
   </energy>
  </scstep>
  <scstep>
   <time name="diag">    0.08    0.09</time>
   <time name="diis">    0.56    0.57</time>
   <time name="orth">    0.01    0.01</time>
   <time name="total">    0.72    0.76</time>
   <energy>
    <i name="e_fr_energy">   -352.39740127 </i>
    <i name="e_wo_entrp">   -352.41884916 </i>
    <i name="e_0_energy">   -352.40455057 </i>
   </energy>
  </scstep>
  <scstep>
   <time name="diag">    0.08    0.08</time>
   <time name="diis">    0.51    0.52</time>
   <time name="orth">    0.01    0.01</time>
   <time name="total">    0.67    0.73</time>
   <energy>
    <i name="e_fr_energy">   -352.39741281 </i>
    <i name="e_wo_entrp">   -352.41885539 </i>
    <i name="e_0_energy">   -352.40456034 </i>
   </energy>
  </scstep>
  <scstep>
   <time name="diag">    0.08    0.08</time>
   <time name="diis">    0.46    0.47</time>
   <time name="orth">    0.01    0.01</time>
   <time name="total">    0.59    0.64</time>
   <energy>
    <i name="alphaZ">   1503.18933495 </i>
    <i name="ewald"> -20210.42434666 </i>
    <i name="hartreedc">  -6348.86827834 </i>
    <i name="XCdc">   -152.90610035 </i>
    <i name="pawpsdc">  35398.00568402 </i>
    <i name="pawaedc"> -33844.72146107 </i>
    <i name="eentropy">      0.02144798 </i>
    <i name="bandstr">  -2754.41986028 </i>
    <i name="atom">  26057.72617038 </i>
    <i name="e_fr_energy">   -352.39740937 </i>
    <i name="e_wo_entrp">   -352.41885736 </i>
    <i name="e_0_energy">   -352.40455870 </i>
   </energy>
  </scstep>
  <structure>
   <crystal>
    <varray name="basis" >
     <v>       7.03315039       0.02428910      -0.03320030 </v>
     <v>       0.03541046      10.34044305      -0.02159789 </v>
     <v>      -0.04955176      -0.02193996      10.32487897 </v>
    </varray>
    <i name="volume">    750.85685105 </i>
    <varray name="rec_basis" >
     <v>       0.14218869      -0.00048550       0.00068137 </v>
     <v>      -0.00033302       0.09670922       0.00020390 </v>
     <v>       0.00045652       0.00020074       0.09685605 </v>
    </varray>
   </crystal>
   <varray name="positions" >
    <v>       0.74350390       0.83286169       0.82396340 </v>
    <v>       0.75912152       0.84243075       0.17518352 </v>
    <v>       0.00693937       0.98733287       0.33135221 </v>
    <v>       0.28197066       0.49733297       0.14634046 </v>
    <v>       0.24146396       0.83724096       0.17575221 </v>
    <v>       0.48676156       0.98765813       0.66189689 </v>
    <v>       0.72567493       0.50994206       0.15583860 </v>
    <v>       0.77724865       0.15567854       0.48473749 </v>
    <v>       0.50386019       0.67276718       0.99833845 </v>
    <v>       0.96588841       0.31977008       0.68255674 </v>
    <v>       0.74923537       0.15251610       0.17370387 </v>
    <v>      -0.00029124       0.00134940       0.67668074 </v>
    <v>       0.22548127       0.50141501       0.51527453 </v>
    <v>       0.01307335       0.66655089       0.31400627 </v>
    <v>       0.49014917       0.96562798       0.00380298 </v>
    <v>       0.49280284       0.99705444       0.34303964 </v>
    <v>       0.52847835       0.33224238       0.64972414 </v>
    <v>       0.98133050       0.33959895       0.00365028 </v>
    <v>       0.99996644       0.34807583       0.31568791 </v>
    <v>       0.49191758       0.66996786       0.32824423 </v>
    <v>       0.71112257       0.15345582       0.84608259 </v>
    <v>       0.00420141       0.99322380       0.99516951 </v>
    <v>       0.22480732       0.16881266       0.50368307 </v>
    <v>       0.27344440       0.17259144       0.83558558 </v>
    <v>       0.99686623       0.66824723       0.00251486 </v>
    <v>       0.51017373       0.33650519       0.34028565 </v>
    <v>       0.78621329       0.51567155       0.50537770 </v>
    <v>       0.49693359       0.67216712       0.66671393 </v>
    <v>       0.76340634       0.83288524       0.50302410 </v>
    <v>       0.25488189       0.49616113       0.83405364 </v>
    <v>       0.26612803       0.17187914       0.15500332 </v>
    <v>       0.23511431       0.83407824       0.50217331 </v>
    <v>       0.00221695       0.67941816       0.68442845 </v>
    <v>       0.24875139       0.82489577       0.82348620 </v>
    <v>       0.52225996       0.35318176       0.00253982 </v>
    <v>       0.73890381       0.50941567       0.84011869 </v>
   </varray>
  </structure>
  <varray name="forces" >
   <v>      -0.02337420       0.00482935      -0.01056371 </v>
   <v>       0.02006677       0.01448120       0.02105362 </v>
   <v>      -0.36674887       0.31198920      -0.50512168 </v>
   <v>       0.00667128      -0.01389049      -0.02620078 </v>
   <v>      -0.01567094       0.01527696      -0.03786574 </v>
   <v>       0.37642448       0.27322453       0.34081247 </v>
   <v>      -0.02019789       0.02122358       0.04742671 </v>
   <v>       0.03626442      -0.04069754       0.01473652 </v>
   <v>       0.03041959      -0.00790904      -0.01134589 </v>
   <v>       0.01357081       0.01311764      -0.01178729 </v>
   <v>      -0.00618990      -0.00743400       0.01416443 </v>
   <v>      -0.21991954       0.23279376       0.31456097 </v>
   <v>       0.00453970      -0.14798473      -0.02228065 </v>
   <v>      -0.15900639      -0.22298614      -0.31209810 </v>
   <v>       0.02083356      -0.02203588      -0.00127045 </v>
   <v>       0.24317567       0.19556419      -0.17073640 </v>
   <v>       0.00920959       0.00469170       0.00492594 </v>
   <v>      -0.02893473       0.00714159       0.00907135 </v>
   <v>      -0.01134976      -0.00407065      -0.00375030 </v>
   <v>       0.19203415      -0.17304893      -0.20765710 </v>
   <v>      -0.02868557       0.00094577      -0.04372336 </v>
   <v>       0.00252586       0.00218190       0.01061776 </v>
   <v>       0.01971836       0.08230116       0.00755440 </v>
   <v>      -0.00982044      -0.02117005      -0.01693381 </v>
   <v>      -0.00487975      -0.00322996      -0.01814283 </v>
   <v>       0.00943939      -0.00762229      -0.01819344 </v>
   <v>       0.02521327       0.08772419      -0.00127966 </v>
   <v>       0.23821651      -0.13853593       0.20061826 </v>
   <v>      -0.06839329      -0.01929856       0.00153182 </v>
   <v>       0.00060338      -0.01414451       0.01690376 </v>
   <v>      -0.01568612      -0.00518294       0.00404759 </v>
   <v>      -0.02005369      -0.25701200       0.02129825 </v>
   <v>      -0.26447731      -0.22767494       0.39528299 </v>
   <v>      -0.00648906       0.04859450       0.02090525 </v>
   <v>       0.01914246       0.01417525       0.01407699 </v>
   <v>       0.00180822       0.00367213      -0.04063787 </v>
  </varray>
  <varray name="stress" >
   <v>       2.21577907       0.05249932       0.54465705 </v>
   <v>       0.05249931       1.23928686       0.07210630 </v>
   <v>       0.54465708       0.07210632       3.06149937 </v>
  </varray>
  <energy>
   <i name="e_fr_energy">   -352.39740937 </i>
   <i name="e_wo_entrp">   -352.40455870 </i>
   <i name="e_0_energy">      0.02144798 </i>
  </energy>
  <time name="totalsc">   11.47   12.64</time>
 </calculation>
 <calculation>
  <scstep>
   <time name="dav">    1.01    1.04</time>
   <time name="total">    1.17    1.30</time>
   <energy>
    <i name="alphaZ">   1488.38731363 </i>
    <i name="ewald"> -20145.99183533 </i>
    <i name="hartreedc">  -6326.28101368 </i>
    <i name="XCdc">   -155.92859493 </i>
    <i name="pawpsdc">  35398.02030548 </i>
    <i name="pawaedc"> -33844.77358428 </i>
    <i name="eentropy">      0.02301696 </i>
    <i name="bandstr">  -2823.80018880 </i>
    <i name="atom">  26057.72617038 </i>
    <i name="e_fr_energy">   -352.61841057 </i>
    <i name="e_wo_entrp">   -352.64142753 </i>
    <i name="e_0_energy">   -352.62608289 </i>
   </energy>
  </scstep>
  <scstep>
   <time name="diag">    0.13    0.13</time>
   <time name="diis">    0.78    0.82</time>
   <time name="orth">    0.01    0.01</time>
   <time name="total">    0.99    1.05</time>
   <energy>
    <i name="e_fr_energy">   -352.50222777 </i>
    <i name="e_wo_entrp">   -352.52627959 </i>
    <i name="e_0_energy">   -352.51024505 </i>
   </energy>
  </scstep>
  <scstep>
   <time name="diag">    0.11    0.12</time>
   <time name="diis">    0.79    0.82</time>
   <time name="orth">    0.01    0.01</time>
   <time name="total">    0.99    1.06</time>
   <energy>
    <i name="e_fr_energy">   -352.48348112 </i>
    <i name="e_wo_entrp">   -352.50623994 </i>
    <i name="e_0_energy">   -352.49106739 </i>
   </energy>
  </scstep>
  <scstep>
   <time name="diag">    0.08    0.08</time>
   <time name="diis">    0.91    0.93</time>
   <time name="orth">    0.01    0.01</time>
   <time name="total">    1.08    1.12</time>
   <energy>
    <i name="e_fr_energy">   -352.44039466 </i>
    <i name="e_wo_entrp">   -352.46445354 </i>
    <i name="e_0_energy">   -352.44841429 </i>
   </energy>
  </scstep>
  <scstep>
   <time name="diag">    0.08    0.08</time>
   <time name="diis">    0.76    0.78</time>
   <time name="orth">    0.01    0.01</time>
   <time name="total">    0.93    0.97</time>
   <energy>
    <i name="e_fr_energy">   -352.43901623 </i>
    <i name="e_wo_entrp">   -352.46284630 </i>
    <i name="e_0_energy">   -352.44695958 </i>
   </energy>
  </scstep>
  <scstep>
   <time name="diag">    0.08    0.08</time>
   <time name="diis">    0.82    0.84</time>
   <time name="orth">    0.01    0.01</time>
   <time name="total">    0.98    1.04</time>
   <energy>
    <i name="e_fr_energy">   -352.43928356 </i>
    <i name="e_wo_entrp">   -352.46311312 </i>
    <i name="e_0_energy">   -352.44722675 </i>
   </energy>
  </scstep>
  <scstep>
   <time name="diag">    0.08    0.08</time>
   <time name="diis">    0.84    0.86</time>
   <time name="orth">    0.01    0.01</time>
   <time name="total">    1.01    1.23</time>
   <energy>
    <i name="e_fr_energy">   -352.43970698 </i>
    <i name="e_wo_entrp">   -352.46361652 </i>
    <i name="e_0_energy">   -352.44767683 </i>
   </energy>
  </scstep>
  <scstep>
   <time name="diag">    0.08    0.08</time>
   <time name="diis">    0.88    0.89</time>
   <time name="orth">    0.01    0.01</time>
   <time name="total">    1.04    1.09</time>
   <energy>
    <i name="e_fr_energy">   -352.43985260 </i>
    <i name="e_wo_entrp">   -352.46368698 </i>
    <i name="e_0_energy">   -352.44779739 </i>
   </energy>
  </scstep>
  <scstep>
   <time name="diag">    0.10    0.10</time>
   <time name="diis">    0.79    0.80</time>
   <time name="orth">    0.01    0.01</time>
   <time name="total">    0.97    1.01</time>
   <energy>
    <i name="e_fr_energy">   -352.43996930 </i>
    <i name="e_wo_entrp">   -352.46383437 </i>
    <i name="e_0_energy">   -352.44792433 </i>
   </energy>
  </scstep>
  <scstep>
   <time name="diag">    0.08    0.08</time>
   <time name="diis">    0.65    0.67</time>
   <time name="orth">    0.01    0.01</time>
   <time name="total">    0.82    0.86</time>
   <energy>
    <i name="e_fr_energy">   -352.44007684 </i>
    <i name="e_wo_entrp">   -352.46393376 </i>
    <i name="e_0_energy">   -352.44802915 </i>
   </energy>
  </scstep>
  <scstep>
   <time name="diag">    0.08    0.09</time>
   <time name="diis">    0.70    0.72</time>
   <time name="orth">    0.01    0.01</time>
   <time name="total">    0.90    0.95</time>
   <energy>
    <i name="e_fr_energy">   -352.44009708 </i>
    <i name="e_wo_entrp">   -352.46396467 </i>
    <i name="e_0_energy">   -352.44805294 </i>
   </energy>
  </scstep>
  <scstep>
   <time name="diag">    0.08    0.08</time>
   <time name="diis">    0.59    0.60</time>
   <time name="orth">    0.02    0.02</time>
   <time name="total">    0.79    0.83</time>
   <energy>
    <i name="e_fr_energy">   -352.44009847 </i>
    <i name="e_wo_entrp">   -352.46397325 </i>
    <i name="e_0_energy">   -352.44805673 </i>
   </energy>
  </scstep>
  <scstep>
   <time name="diag">    0.12    0.12</time>
   <time name="diis">    0.48    0.49</time>
   <time name="orth">    0.01    0.01</time>
   <time name="total">    0.65    0.68</time>
   <energy>
    <i name="alphaZ">   1488.38731363 </i>
    <i name="ewald"> -20145.99183533 </i>
    <i name="hartreedc">  -6365.87057152 </i>
    <i name="XCdc">   -154.13058149 </i>
    <i name="pawpsdc">  34893.54084485 </i>
    <i name="pawaedc"> -33341.39337837 </i>
    <i name="eentropy">      0.02386852 </i>
    <i name="bandstr">  -2784.73192759 </i>
    <i name="atom">  26057.72617038 </i>
    <i name="e_fr_energy">   -352.44009693 </i>
    <i name="e_wo_entrp">   -352.46396544 </i>
    <i name="e_0_energy">   -352.44805310 </i>
   </energy>
  </scstep>
  <structure>
   <crystal>
    <varray name="basis" >
     <v>       7.05637158       0.02462047      -0.03141454 </v>
     <v>       0.03590620      10.37041159      -0.02146967 </v>
     <v>      -0.04691448      -0.02180691      10.36318621 </v>
    </varray>
    <i name="volume">    758.32412722 </i>
    <varray name="rec_basis" >
     <v>       0.14172045      -0.00048936       0.00064054 </v>
     <v>      -0.00033556       0.09642977       0.00020139 </v>
     <v>       0.00042891       0.00019829       0.09649778 </v>
    </varray>
   </crystal>
   <varray name="positions" >
    <v>       0.74339694       0.83285191       0.82391662 </v>
    <v>       0.75920898       0.84245063       0.17530506 </v>
    <v>       0.00491899       0.98855484       0.32947248 </v>
    <v>       0.28189949       0.49731927       0.14633698 </v>
    <v>       0.24146389       0.83724997       0.17552785 </v>
    <v>       0.48876593       0.98874884       0.66319774 </v>
    <v>       0.72567699       0.51006486       0.15609884 </v>
    <v>       0.77736370       0.15553666       0.48478403 </v>
    <v>       0.50401963       0.67275168       0.99828724 </v>
    <v>       0.96599837       0.31980889       0.68254025 </v>
    <v>       0.74923166       0.15246636       0.17380576 </v>
    <v>      -0.00142316       0.00222950       0.67782025 </v>
    <v>       0.22552734       0.50084935       0.51518942 </v>
    <v>       0.01221122       0.66576917       0.31296685 </v>
    <v>       0.49025630       0.96561657       0.00381429 </v>
    <v>       0.49406547       0.99780512       0.34240512 </v>
    <v>       0.52847461       0.33225006       0.64975399 </v>
    <v>       0.98124532       0.33958067       0.00366228 </v>
    <v>       0.99992200       0.34805728       0.31566501 </v>
    <v>       0.49296841       0.66932007       0.32752249 </v>
    <v>       0.71103076       0.15340998       0.84586366 </v>
    <v>       0.00419552       0.99327559       0.99516839 </v>
    <v>       0.22496475       0.16914810       0.50372636 </v>
    <v>       0.27335221       0.17249703       0.83551651 </v>
    <v>       0.99684403       0.66821821       0.00245549 </v>
    <v>       0.51021856       0.33648744       0.34021901 </v>
    <v>       0.78627754       0.51596586       0.50535432 </v>
    <v>       0.49815910       0.67166758       0.66738133 </v>
    <v>       0.76298011       0.83274493       0.50300620 </v>
    <v>       0.25485439       0.49612962       0.83406873 </v>
    <v>       0.26607131       0.17184767       0.15504266 </v>
    <v>       0.23505596       0.83305648       0.50225353 </v>
    <v>       0.00089013       0.67861659       0.68577401 </v>
    <v>       0.24869774       0.82505656       0.82362064 </v>
    <v>       0.52228940       0.35314714       0.00255532 </v>
    <v>       0.73892840       0.50945354       0.83993631 </v>
   </varray>
  </structure>
  <varray name="forces" >
   <v>      -0.02404237       0.02322193      -0.00336313 </v>
   <v>       0.02386645       0.03278480      -0.01601290 </v>
   <v>      -0.23706417       0.16207848      -0.32679866 </v>
   <v>       0.05569815      -0.03510814      -0.08177510 </v>
   <v>      -0.05216411       0.04223859       0.02948190 </v>
   <v>       0.26972449       0.12260711       0.20395650 </v>
   <v>      -0.06544333      -0.01608426      -0.02852518 </v>
   <v>       0.06070791      -0.03529729       0.01438652 </v>
   <v>       0.02118899      -0.01508925      -0.00222619 </v>
   <v>      -0.00684795       0.01373640      -0.02590991 </v>
   <v>      -0.01897374       0.01182420      -0.02650023 </v>
   <v>      -0.17304213       0.14284859       0.22141641 </v>
   <v>      -0.00429386      -0.08503524      -0.01332388 </v>
   <v>      -0.10741436      -0.17644197      -0.28359787 </v>
   <v>       0.01647350      -0.06072473      -0.01304599 </v>
   <v>       0.18680904       0.10643794      -0.10770238 </v>
   <v>       0.03002443       0.00759011      -0.00199937 </v>
   <v>      -0.05071042       0.03471174       0.01955890 </v>
   <v>      -0.01489487      -0.00215148       0.00546612 </v>
   <v>       0.12134539      -0.10773364      -0.16397590 </v>
   <v>      -0.05032573       0.03670939       0.01337323 </v>
   <v>       0.01097730      -0.03032955       0.03637240 </v>
   <v>      -0.01075039       0.03038113      -0.00636107 </v>
   <v>       0.01329904      -0.00350496      -0.00734999 </v>
   <v>      -0.00467794       0.01115889      -0.01890353 </v>
   <v>       0.00859654      -0.01268948      -0.01232924 </v>
   <v>       0.05100516       0.07919705       0.01285054 </v>
   <v>       0.18936017      -0.09818210       0.18440685 </v>
   <v>      -0.02054158       0.03424329       0.01713107 </v>
   <v>       0.01614912      -0.02141996       0.04408504 </v>
   <v>      -0.02468180       0.00461085      -0.01378349 </v>
   <v>      -0.03178969      -0.12284914       0.01492339 </v>
   <v>      -0.22033598      -0.17033057       0.33468280 </v>
   <v>       0.00450326       0.04263060      -0.02591661 </v>
   <v>       0.04677103       0.06844132       0.03186253 </v>
   <v>      -0.00850555      -0.01448064      -0.00455358 </v>
  </varray>
  <varray name="stress" >
   <v>     -10.14518838      -0.04176408       0.32321248 </v>
   <v>      -0.04176404     -11.19373255       0.12905360 </v>
   <v>       0.32321248       0.12905356      -9.56296610 </v>
  </varray>
  <energy>
   <i name="e_fr_energy">   -352.44009693 </i>
   <i name="e_wo_entrp">   -352.44805310 </i>
   <i name="e_0_energy">      0.02386852 </i>
  </energy>
  <time name="totalsc">   13.95   14.94</time>
 </calculation>
 <calculation>
  <scstep>
   <time name="dav">    0.95    0.97</time>
   <time name="total">    1.11    1.23</time>
   <energy>
    <i name="alphaZ">   1491.88310929 </i>
    <i name="ewald"> -20162.30265293 </i>
    <i name="hartreedc">  -6370.48091154 </i>
    <i name="XCdc">   -153.43424162 </i>
    <i name="pawpsdc">  34892.65948847 </i>
    <i name="pawaedc"> -33340.54076175 </i>
    <i name="eentropy">      0.02402812 </i>
    <i name="bandstr">  -2768.01970411 </i>
    <i name="atom">  26057.72617038 </i>
    <i name="e_fr_energy">   -352.48547570 </i>
    <i name="e_wo_entrp">   -352.50950382 </i>
    <i name="e_0_energy">   -352.49348507 </i>
   </energy>
  </scstep>
  <scstep>
   <time name="diag">    0.08    0.08</time>
   <time name="diis">    0.74    0.76</time>
   <time name="orth">    0.01    0.01</time>
   <time name="total">    0.91    0.95</time>
   <energy>
    <i name="e_fr_energy">   -352.48612268 </i>
    <i name="e_wo_entrp">   -352.50987378 </i>
    <i name="e_0_energy">   -352.49403971 </i>
   </energy>
  </scstep>
  <scstep>
   <time name="diag">    0.08    0.08</time>
   <time name="diis">    0.75    0.77</time>
   <time name="orth">    0.01    0.01</time>
   <time name="total">    0.91    0.95</time>
   <energy>
    <i name="e_fr_energy">   -352.48043065 </i>
    <i name="e_wo_entrp">   -352.50417491 </i>
    <i name="e_0_energy">   -352.48834541 </i>
   </energy>
  </scstep>
  <scstep>
   <time name="diag">    0.08    0.08</time>
   <time name="diis">    0.77    0.78</time>
   <time name="orth">    0.01    0.01</time>
   <time name="total">    0.93    0.97</time>
   <energy>
    <i name="e_fr_energy">   -352.47849679 </i>
    <i name="e_wo_entrp">   -352.50231587 </i>
    <i name="e_0_energy">   -352.48643648 </i>
   </energy>
  </scstep>
  <scstep>
   <time name="diag">    0.08    0.08</time>
   <time name="diis">    0.81    0.83</time>
   <time name="orth">    0.01    0.01</time>
   <time name="total">    0.98    1.01</time>
   <energy>
    <i name="e_fr_energy">   -352.47813199 </i>
    <i name="e_wo_entrp">   -352.50190077 </i>
    <i name="e_0_energy">   -352.48605492 </i>
   </energy>
  </scstep>
  <scstep>
   <time name="diag">    0.09    0.09</time>
   <time name="diis">    0.77    0.79</time>
   <time name="orth">    0.01    0.01</time>
   <time name="total">    0.94    0.97</time>
   <energy>
    <i name="e_fr_energy">   -352.47815615 </i>
    <i name="e_wo_entrp">   -352.50185793 </i>
    <i name="e_0_energy">   -352.48605675 </i>
   </energy>
  </scstep>
  <scstep>
   <time name="diag">    0.08    0.08</time>
   <time name="diis">    0.69    0.71</time>
   <time name="orth">    0.01    0.01</time>
   <time name="total">    0.85    0.89</time>
   <energy>
    <i name="e_fr_energy">   -352.47820724 </i>
    <i name="e_wo_entrp">   -352.50198970 </i>
    <i name="e_0_energy">   -352.48613473 </i>
   </energy>
  </scstep>
  <scstep>
   <time name="diag">    0.08    0.08</time>
   <time name="diis">    0.76    0.78</time>
   <time name="orth">    0.01    0.01</time>
   <time name="total">    0.92    0.98</time>
   <energy>
    <i name="e_fr_energy">   -352.47823139 </i>
    <i name="e_wo_entrp">   -352.50197221 </i>
    <i name="e_0_energy">   -352.48614500 </i>
   </energy>
  </scstep>
  <scstep>
   <time name="diag">    0.08    0.08</time>
   <time name="diis">    0.51    0.52</time>
   <time name="orth">    0.01    0.01</time>
   <time name="total">    0.67    0.70</time>
   <energy>
    <i name="e_fr_energy">   -352.47824775 </i>
    <i name="e_wo_entrp">   -352.50198130 </i>
    <i name="e_0_energy">   -352.48615893 </i>
   </energy>
  </scstep>
  <scstep>
   <time name="diag">    0.13    0.13</time>
   <time name="diis">    0.50    0.51</time>
   <time name="orth">    0.01    0.01</time>
   <time name="total">    0.70    0.74</time>
   <energy>
    <i name="e_fr_energy">   -352.47825903 </i>
    <i name="e_wo_entrp">   -352.50200279 </i>
    <i name="e_0_energy">   -352.48617362 </i>
   </energy>
  </scstep>
  <scstep>
   <time name="diag">    0.09    0.09</time>
   <time name="diis">    0.36    0.37</time>
   <time name="orth">    0.01    0.01</time>
   <time name="total">    0.50    0.53</time>
   <energy>
    <i name="alphaZ">   1491.88310929 </i>
    <i name="ewald"> -20162.30265293 </i>
    <i name="hartreedc">  -6360.22168658 </i>
    <i name="XCdc">   -153.88704718 </i>
    <i name="pawpsdc">  34991.27991227 </i>
    <i name="pawaedc"> -33439.13554616 </i>
    <i name="eentropy">      0.02374100 </i>
    <i name="bandstr">  -2777.84426472 </i>
    <i name="atom">  26057.72617038 </i>
    <i name="e_fr_energy">   -352.47826463 </i>
    <i name="e_wo_entrp">   -352.50200564 </i>
    <i name="e_0_energy">   -352.48617830 </i>
   </energy>
  </scstep>
  <structure>
   <crystal>
    <varray name="basis" >
     <v>       7.05105303       0.02462860      -0.03030729 </v>
     <v>       0.03592864      10.35911283      -0.02113393 </v>
     <v>      -0.04527741      -0.02146421      10.35797176 </v>
    </varray>
    <i name="volume">    756.54721442 </i>
    <varray name="rec_basis" >
     <v>       0.14182716      -0.00049064       0.00061895 </v>
     <v>      -0.00033633       0.09653493       0.00019857 </v>
     <v>       0.00041430       0.00019553       0.09654621 </v>
    </varray>
   </crystal>
   <varray name="positions" >
    <v>       0.74331143       0.83288049       0.82389582 </v>
    <v>       0.75928684       0.84250228       0.17532519 </v>
    <v>       0.00374089       0.98919872       0.32837544 </v>
    <v>       0.28198671       0.49726590       0.14622380 </v>
    <v>       0.24135874       0.83731134       0.17549081 </v>
    <v>       0.49000127       0.98929238       0.66392772 </v>
    <v>       0.72554561       0.51008538       0.15614892 </v>
    <v>       0.77752609       0.15543907       0.48482007 </v>
    <v>       0.50411738       0.67272553       0.99826662 </v>
    <v>       0.96602214       0.31984107       0.68249900 </v>
    <v>       0.74919180       0.15246544       0.17380442 </v>
    <v>      -0.00216125       0.00273036       0.67851616 </v>
    <v>       0.22553506       0.50053765       0.51514155 </v>
    <v>       0.01169636       0.66525734       0.31221842 </v>
    <v>       0.49032673       0.96552924       0.00380020 </v>
    <v>       0.49487556       0.99820874       0.34204004 </v>
    <v>       0.52853376       0.33226297       0.64976173 </v>
    <v>       0.98111369       0.33962227       0.00369305 </v>
    <v>       0.99987673       0.34804802       0.31566453 </v>
    <v>       0.49357458       0.66894789       0.32704914 </v>
    <v>       0.71089758       0.15344480       0.84580638 </v>
    <v>       0.00421616       0.99325191       0.99521790 </v>
    <v>       0.22499707       0.16930546       0.50373255 </v>
    <v>       0.27334720       0.17245958       0.83548270 </v>
    <v>       0.99682672       0.66822348       0.00240909 </v>
    <v>       0.51025133       0.33646384       0.34017914 </v>
    <v>       0.78640206       0.51617575       0.50536442 </v>
    <v>       0.49896547       0.67136028       0.66786517 </v>
    <v>       0.76279171       0.83274365       0.50302354 </v>
    <v>       0.25487801       0.49608943       0.83413447 </v>
    <v>       0.26600185       0.17184321       0.15503717 </v>
    <v>       0.23497278       0.83253585       0.50230112 </v>
    <v>      -0.00000725       0.67810860       0.68669521 </v>
    <v>       0.24868777       0.82517037       0.82363154 </v>
    <v>       0.52239362       0.35322893       0.00260486 </v>
    <v>       0.73891981       0.50944676       0.83986713 </v>
   </varray>
  </structure>
  <varray name="forces" >
   <v>      -0.01814000       0.03251703       0.01740325 </v>
   <v>       0.00654387       0.02332934      -0.04423940 </v>
   <v>      -0.15852904       0.11104684      -0.22225432 </v>
   <v>       0.03432690      -0.03747153      -0.07961167 </v>
   <v>      -0.05095659       0.04547056       0.04725664 </v>
   <v>       0.21513857       0.07255420       0.12160399 </v>
   <v>      -0.04385275      -0.03231139      -0.03010952 </v>
   <v>       0.05095355      -0.02510123       0.02603910 </v>
   <v>       0.00371529      -0.00734496      -0.00547491 </v>
   <v>       0.00197838       0.02100934      -0.02767432 </v>
   <v>      -0.02988088       0.03727856      -0.06283225 </v>
   <v>      -0.14618812       0.10679270       0.16760295 </v>
   <v>       0.01120140      -0.05394451      -0.01667777 </v>
   <v>      -0.08314671      -0.15761269      -0.24077084 </v>
   <v>       0.01154696      -0.04540299      -0.01659548 </v>
   <v>       0.15079096       0.06975551      -0.07150657 </v>
   <v>       0.01984404       0.00781189      -0.00587243 </v>
   <v>      -0.04428235       0.02962500       0.01760262 </v>
   <v>      -0.01084124      -0.01068254       0.01497947 </v>
   <v>       0.08691803      -0.07350394      -0.11578868 </v>
   <v>      -0.04538822       0.05926306       0.04894673 </v>
   <v>       0.01338558      -0.02254438       0.04338765 </v>
   <v>      -0.00866923       0.01283151      -0.01622479 </v>
   <v>       0.01072518       0.00402784       0.00423303 </v>
   <v>       0.00441386       0.01672881      -0.02528771 </v>
   <v>       0.00228107      -0.01591767      -0.00188117 </v>
   <v>       0.04632900       0.07131287       0.00915886 </v>
   <v>       0.15847535      -0.09072428       0.15433011 </v>
   <v>      -0.00507075       0.04260806       0.01777752 </v>
   <v>       0.01597025      -0.03174803       0.04610663 </v>
   <v>      -0.03151924       0.00232615      -0.02030145 </v>
   <v>      -0.02724215      -0.07514871       0.01009893 </v>
   <v>      -0.19057215      -0.15650424       0.27397977 </v>
   <v>       0.00759475       0.04434142      -0.03001305 </v>
   <v>       0.04421502       0.05037066       0.01742167 </v>
   <v>      -0.00206860      -0.02503828      -0.00481261 </v>
  </varray>
  <varray name="stress" >
   <v>      -7.29944661      -0.12545320       0.24333563 </v>
   <v>      -0.12545320      -8.25956388       0.22641526 </v>
   <v>       0.24333562       0.22641527      -6.85131666 </v>
  </varray>
  <energy>
   <i name="e_fr_energy">   -352.47826463 </i>
   <i name="e_wo_entrp">   -352.48617830 </i>
   <i name="e_0_energy">      0.02374100 </i>
  </energy>
  <time name="totalsc">   10.95   11.59</time>
 </calculation>
 <calculation>
  <scstep>
   <time name="dav">    0.93    0.95</time>
   <time name="total">    1.03    1.22</time>
   <energy>
    <i name="alphaZ">   1500.84507527 </i>
    <i name="ewald"> -20202.63856672 </i>
    <i name="hartreedc">  -6373.19890954 </i>
    <i name="XCdc">   -152.10100927 </i>
    <i name="pawpsdc">  34991.52122308 </i>
    <i name="pawaedc"> -33439.35763333 </i>
    <i name="eentropy">      0.02350813 </i>
    <i name="bandstr">  -2735.39226158 </i>
    <i name="atom">  26057.72617038 </i>
    <i name="e_fr_energy">   -352.57240358 </i>
    <i name="e_wo_entrp">   -352.59591171 </i>
    <i name="e_0_energy">   -352.58023963 </i>
   </energy>
  </scstep>
  <scstep>
   <time name="diag">    0.09    0.09</time>
   <time name="diis">    0.74    0.76</time>
   <time name="orth">    0.01    0.01</time>
   <time name="total">    0.91    0.95</time>
   <energy>
    <i name="e_fr_energy">   -352.57718607 </i>
    <i name="e_wo_entrp">   -352.59995505 </i>
    <i name="e_0_energy">   -352.58477573 </i>
   </energy>
  </scstep>
  <scstep>
   <time name="diag">    0.08    0.08</time>
   <time name="diis">    0.81    0.83</time>
   <time name="orth">    0.02    0.02</time>
   <time name="total">    0.99    1.04</time>
   <energy>
    <i name="e_fr_energy">   -352.53906766 </i>
    <i name="e_wo_entrp">   -352.56191797 </i>
    <i name="e_0_energy">   -352.54668443 </i>
   </energy>
  </scstep>
  <scstep>
   <time name="diag">    0.08    0.08</time>
   <time name="diis">    0.77    0.78</time>
   <time name="orth">    0.01    0.01</time>
   <time name="total">    0.93    0.97</time>
   <energy>
    <i name="e_fr_energy">   -352.52707457 </i>
    <i name="e_wo_entrp">   -352.55024803 </i>
    <i name="e_0_energy">   -352.53479906 </i>
   </energy>
  </scstep>
  <scstep>
   <time name="diag">    0.08    0.08</time>
   <time name="diis">    0.84    0.87</time>
   <time name="orth">    0.02    0.02</time>
   <time name="total">    1.02    1.09</time>
   <energy>
    <i name="e_fr_energy">   -352.52485315 </i>
    <i name="e_wo_entrp">   -352.54789943 </i>
    <i name="e_0_energy">   -352.53253525 </i>
   </energy>
  </scstep>
  <scstep>
   <time name="diag">    0.12    0.13</time>
   <time name="diis">    0.89    0.91</time>
   <time name="orth">    0.01    0.01</time>
   <time name="total">    1.10    1.15</time>
   <energy>
    <i name="e_fr_energy">   -352.52503135 </i>
    <i name="e_wo_entrp">   -352.54789495 </i>
    <i name="e_0_energy">   -352.53265255 </i>
   </energy>
  </scstep>
  <scstep>
   <time name="diag">    0.09    0.10</time>
   <time name="diis">    0.94    0.96</time>
   <time name="orth">    0.01    0.01</time>
   <time name="total">    1.12    1.16</time>
   <energy>
    <i name="e_fr_energy">   -352.52530846 </i>
    <i name="e_wo_entrp">   -352.54839816 </i>
    <i name="e_0_energy">   -352.53300503 </i>
   </energy>
  </scstep>
  <scstep>
   <time name="diag">    0.14    0.14</time>
   <time name="diis">    0.83    0.85</time>
   <time name="orth">    0.01    0.01</time>
   <time name="total">    1.05    1.09</time>
   <energy>
    <i name="e_fr_energy">   -352.52543542 </i>
    <i name="e_wo_entrp">   -352.54841028 </i>
    <i name="e_0_energy">   -352.53309370 </i>
   </energy>
  </scstep>
  <scstep>
   <time name="diag">    0.08    0.08</time>
   <time name="diis">    0.75    0.77</time>
   <time name="orth">    0.01    0.01</time>
   <time name="total">    0.91    0.96</time>
   <energy>
    <i name="e_fr_energy">   -352.52551299 </i>
    <i name="e_wo_entrp">   -352.54847739 </i>
    <i name="e_0_energy">   -352.53316779 </i>
   </energy>
  </scstep>
  <scstep>
   <time name="diag">    0.08    0.08</time>
   <time name="diis">    0.66    0.68</time>
   <time name="orth">    0.01    0.01</time>
   <time name="total">    0.82    0.92</time>
   <energy>
    <i name="e_fr_energy">   -352.52556749 </i>
    <i name="e_wo_entrp">   -352.54855796 </i>
    <i name="e_0_energy">   -352.53323098 </i>
   </energy>
  </scstep>
  <scstep>
   <time name="diag">    0.09    0.09</time>
   <time name="diis">    0.56    0.57</time>
   <time name="orth">    0.01    0.01</time>
   <time name="total">    0.74    0.80</time>
   <energy>
    <i name="e_fr_energy">   -352.52559260 </i>
    <i name="e_wo_entrp">   -352.54856918 </i>
    <i name="e_0_energy">   -352.53325146 </i>
   </energy>
  </scstep>
  <scstep>
   <time name="diag">    0.08    0.08</time>
   <time name="diis">    0.54    0.55</time>
   <time name="orth">    0.01    0.01</time>
   <time name="total">    0.67    0.70</time>
   <energy>
    <i name="alphaZ">   1500.84507527 </i>
    <i name="ewald"> -20202.63856672 </i>
    <i name="hartreedc">  -6347.61745279 </i>
    <i name="XCdc">   -153.23333284 </i>
    <i name="pawpsdc">  35263.27985512 </i>
    <i name="pawaedc"> -33710.64724569 </i>
    <i name="eentropy">      0.02298694 </i>
    <i name="bandstr">  -2760.26308783 </i>
    <i name="atom">  26057.72617038 </i>
    <i name="e_fr_energy">   -352.52559816 </i>
    <i name="e_wo_entrp">   -352.54858510 </i>
    <i name="e_0_energy">   -352.53326047 </i>
   </energy>
  </scstep>
  <structure>
   <crystal>
    <varray name="basis" >
     <v>       7.03749607       0.02464934      -0.02748491 </v>
     <v>       0.03598584      10.33031228      -0.02027813 </v>
     <v>      -0.04110453      -0.02059067      10.34468011 </v>
    </varray>
    <i name="volume">    752.02965927 </i>
    <varray name="rec_basis" >
     <v>       0.14209993      -0.00049390       0.00056365 </v>
     <v>      -0.00033832       0.09680405       0.00019134 </v>
     <v>       0.00037688       0.00018845       0.09666992 </v>
    </varray>
   </crystal>
   <varray name="positions" >
    <v>       0.74309330       0.83295342       0.82384278 </v>
    <v>       0.75948544       0.84263409       0.17537651 </v>
    <v>       0.00073627       0.99084186       0.32557795 </v>
    <v>       0.28220929       0.49712972       0.14593514 </v>
    <v>       0.24109052       0.83746794       0.17539636 </v>
    <v>       0.49315210       0.99067929       0.66578900 </v>
    <v>       0.72521044       0.51013774       0.15627666 </v>
    <v>       0.77794031       0.15519005       0.48491195 </v>
    <v>       0.50436676       0.67265881       0.99821399 </v>
    <v>       0.96608280       0.31992318       0.68239378 </v>
    <v>       0.74909012       0.15246308       0.17380101 </v>
    <v>      -0.00404448       0.00400838       0.68029109 </v>
    <v>       0.22555478       0.49974227       0.51501948 </v>
    <v>       0.01038342       0.66395134       0.31030987 </v>
    <v>       0.49050641       0.96530639       0.00376426 </v>
    <v>       0.49694225       0.99923873       0.34110873 </v>
    <v>       0.52868464       0.33229591       0.64978147 </v>
    <v>       0.98077788       0.33972842       0.00377156 </v>
    <v>       0.99976126       0.34802439       0.31566330 </v>
    <v>       0.49512114       0.66799821       0.32584185 </v>
    <v>       0.71055788       0.15353365       0.84566034 </v>
    <v>       0.00426877       0.99319147       0.99534417 </v>
    <v>       0.22507950       0.16970703       0.50374832 </v>
    <v>       0.27333445       0.17236403       0.83539648 </v>
    <v>       0.99678256       0.66823693       0.00229078 </v>
    <v>       0.51033493       0.33640362       0.34007745 </v>
    <v>       0.78671967       0.51671135       0.50539015 </v>
    <v>       0.50102219       0.67057608       0.66909890 </v>
    <v>       0.76231110       0.83274041       0.50306781 </v>
    <v>       0.25493823       0.49598686       0.83430213 </v>
    <v>       0.26582467       0.17183185       0.15502317 </v>
    <v>       0.23476057       0.83120733       0.50242254 </v>
    <v>      -0.00229692       0.67681224       0.68904480 </v>
    <v>       0.24866233       0.82546079       0.82365935 </v>
    <v>       0.52265947       0.35343763       0.00273118 </v>
    <v>       0.73889795       0.50942949       0.83969069 </v>
   </varray>
  </structure>
  <varray name="forces" >
   <v>      -0.00122085       0.05596469       0.07379136 </v>
   <v>      -0.04193887      -0.00580808      -0.12187926 </v>
   <v>       0.04795630      -0.01523106       0.04837566 </v>
   <v>      -0.02130309      -0.04277812      -0.07464167 </v>
   <v>      -0.04841392       0.05172033       0.09023937 </v>
   <v>       0.07461269      -0.05318855      -0.08787065 </v>
   <v>       0.01216877      -0.07675598      -0.03885729 </v>
   <v>       0.02358396       0.00112737       0.05453138 </v>
   <v>      -0.04320620       0.01597444      -0.01515501 </v>
   <v>       0.02400737       0.04022046      -0.02956909 </v>
   <v>      -0.06182218       0.11191077      -0.16408030 </v>
   <v>      -0.07584334       0.01130476       0.02694420 </v>
   <v>       0.05303682       0.02345073      -0.02468255 </v>
   <v>      -0.01764263      -0.10849111      -0.12540728 </v>
   <v>      -0.00122321      -0.00549918      -0.02634083 </v>
   <v>       0.05707259      -0.02339694       0.02334306 </v>
   <v>      -0.00586389       0.00695594      -0.01525080 </v>
   <v>      -0.02723045       0.01765350       0.01048763 </v>
   <v>       0.00067511      -0.03397898       0.03827571 </v>
   <v>      -0.00233477       0.01518919       0.01257073 </v>
   <v>      -0.03064049       0.12603595       0.14602582 </v>
   <v>       0.02030406      -0.00334542       0.06103637 </v>
   <v>       0.00182335      -0.03446183      -0.04273196 </v>
   <v>       0.00191479       0.02444970       0.03371559 </v>
   <v>       0.02824825       0.03235944      -0.04067422 </v>
   <v>      -0.01557890      -0.02497012       0.02615191 </v>
   <v>       0.03454874       0.05032698      -0.00042165 </v>
   <v>       0.07230478      -0.07172375       0.07410644 </v>
   <v>       0.03197315       0.06405743       0.01778337 </v>
   <v>       0.01623305      -0.05837002       0.04957958 </v>
   <v>      -0.04935496      -0.00345181      -0.03677694 </v>
   <v>      -0.01110586       0.03997641       0.00008535 </v>
   <v>      -0.11440006      -0.12193542       0.11785591 </v>
   <v>       0.01891341       0.04973427      -0.04000588 </v>
   <v>       0.03757756       0.00223861      -0.01996702 </v>
   <v>       0.01216892      -0.05726459      -0.00058708 </v>
  </varray>
  <varray name="stress" >
   <v>       0.61435856      -0.33903735       0.04829208 </v>
   <v>      -0.33903736      -0.07062000       0.48196634 </v>
   <v>       0.04829211       0.48196635       0.70806720 </v>
  </varray>
  <energy>
   <i name="e_fr_energy">   -352.52559816 </i>
   <i name="e_wo_entrp">   -352.53326047 </i>
   <i name="e_0_energy">      0.02298694 </i>
  </energy>
  <time name="totalsc">   12.91   13.77</time>
 </calculation>
 <calculation>
  <scstep>
   <time name="dav">    1.01    1.03</time>
   <time name="total">    1.13    1.31</time>
   <energy>
    <i name="alphaZ">   1502.16804313 </i>
    <i name="ewald"> -20208.41457989 </i>
    <i name="hartreedc">  -6349.68666376 </i>
    <i name="XCdc">   -152.96881145 </i>
    <i name="pawpsdc">  35263.74637833 </i>
    <i name="pawaedc"> -33711.09152881 </i>
    <i name="eentropy">      0.02290465 </i>
    <i name="bandstr">  -2754.02919050 </i>
    <i name="atom">  26057.72617038 </i>
    <i name="e_fr_energy">   -352.52727794 </i>
    <i name="e_wo_entrp">   -352.55018259 </i>
    <i name="e_0_energy">   -352.53491282 </i>
   </energy>
  </scstep>
  <scstep>
   <time name="diag">    0.11    0.11</time>
   <time name="diis">    0.78    0.82</time>
   <time name="orth">    0.01    0.01</time>
   <time name="total">    1.00    1.08</time>
   <energy>
    <i name="e_fr_energy">   -352.52736423 </i>
    <i name="e_wo_entrp">   -352.55017072 </i>
    <i name="e_0_energy">   -352.53496639 </i>
   </energy>
  </scstep>
  <scstep>
   <time name="diag">    0.08    0.09</time>
   <time name="diis">    0.74    0.76</time>
   <time name="orth">    0.01    0.01</time>
   <time name="total">    0.90    0.96</time>
   <energy>
    <i name="e_fr_energy">   -352.52663491 </i>
    <i name="e_wo_entrp">   -352.54943938 </i>
    <i name="e_0_energy">   -352.53423640 </i>
   </energy>
  </scstep>
  <scstep>
   <time name="diag">    0.13    0.13</time>
   <time name="diis">    0.78    0.80</time>
   <time name="orth">    0.01    0.01</time>
   <time name="total">    0.99    1.05</time>
   <energy>
    <i name="e_fr_energy">   -352.52637553 </i>
    <i name="e_wo_entrp">   -352.54921186 </i>
    <i name="e_0_energy">   -352.53398764 </i>
   </energy>
  </scstep>
  <scstep>
[...]
       <r>    6.7515    1.0000 </r>
       <r>    6.7726    1.0000 </r>
       <r>    6.8166    1.0000 </r>
       <r>    6.8741    1.0000 </r>
       <r>    6.9047    1.0000 </r>
       <r>    6.9411    1.0000 </r>
       <r>    6.9618    1.0000 </r>
       <r>    6.9914    1.0001 </r>
       <r>    7.0534    1.0005 </r>
       <r>    7.0685    1.0008 </r>
       <r>    7.1158    1.0030 </r>
       <r>    7.1330    1.0047 </r>
       <r>    7.1649    1.0095 </r>
       <r>    7.2025    1.0188 </r>
       <r>    7.2303    1.0273 </r>
       <r>    7.2596    1.0344 </r>
       <r>    7.2834    1.0346 </r>
       <r>    7.3375    0.9884 </r>
       <r>    7.3750    0.8930 </r>
       <r>    7.3995    0.7977 </r>
       <r>    7.4237    0.6804 </r>
       <r>    7.4820    0.3586 </r>
       <r>    7.5037    0.2482 </r>
       <r>    7.5854   -0.0037 </r>
       <r>    7.6075   -0.0258 </r>
       <r>    7.6323   -0.0350 </r>
       <r>    7.6961   -0.0232 </r>
       <r>    7.7151   -0.0175 </r>
       <r>    7.7597   -0.0075 </r>
       <r>    7.8034   -0.0026 </r>
       <r>    7.8569   -0.0005 </r>
       <r>    7.8717   -0.0003 </r>
       <r>    7.9117   -0.0001 </r>
       <r>    7.9536   -0.0000 </r>
       <r>    7.9780   -0.0000 </r>
       <r>    8.0137   -0.0000 </r>
       <r>    8.0234   -0.0000 </r>
       <r>    8.0978   -0.0000 </r>
       <r>    8.1737   -0.0000 </r>
       <r>    8.2078   -0.0000 </r>
       <r>    8.2644   -0.0000 </r>
       <r>    8.3115   -0.0000 </r>
       <r>    8.3512   -0.0000 </r>
       <r>    8.4092   -0.0000 </r>
       <r>    8.5266   -0.0000 </r>
       <r>    8.6114   -0.0000 </r>
       <r>    8.7285   -0.0000 </r>
       <r>    8.8757   -0.0000 </r>
       <r>    9.1481   -0.0000 </r>
      </set>
     </set>
    </set>
   </array>
  </eigenvalues>
  <separator name="orbital magnetization" >
   <v name="MAGDIPOLOUT">      0.00000000      0.00000000      0.00000000</v>
  </separator>
  <dos>
   <i name="efermi">      7.45656563 </i>
   <total>
    <array>
     <dimension dim="1">gridpoints</dimension>
     <dimension dim="2">spin</dimension>
     <field>energy</field>
     <field>total</field>
     <field>integrated</field>
     <set>
      <set comment="spin 1">
       <r>   -49.5752     0.0000     0.0000 </r>
       <r>   -49.3696     0.0000     0.0000 </r>
       <r>   -49.1640     0.0000     0.0000 </r>
       <r>   -48.9584     0.0000     0.0000 </r>
       <r>   -48.7528     0.0000     0.0000 </r>
       <r>   -48.5472     0.0000     0.0000 </r>
       <r>   -48.3415     0.0000     0.0000 </r>
       <r>   -48.1359    -0.0000    -0.0000 </r>
       <r>   -47.9303    -0.0000    -0.0000 </r>
       <r>   -47.7247    -0.0000    -0.0000 </r>
       <r>   -47.5191    -0.0000    -0.0000 </r>
       <r>   -47.3135    -0.0000    -0.0000 </r>
       <r>   -47.1079    -0.0470    -0.0097 </r>
       <r>   -46.9023    -0.4698    -0.1063 </r>
       <r>   -46.6967    17.3254     3.4560 </r>
       <r>   -46.4911    20.6633     7.7046 </r>
       <r>   -46.2854     1.6196     8.0376 </r>
       <r>   -46.0798    -0.1826     8.0001 </r>
       <r>   -45.8742    -0.0004     8.0000 </r>
       <r>   -45.6686    -0.0000     8.0000 </r>
       <r>   -45.4630    -0.0000     8.0000 </r>
       <r>   -45.2574     0.0000     8.0000 </r>
       <r>   -45.0518     0.0000     8.0000 </r>
       <r>   -44.8462     0.0000     8.0000 </r>
       <r>   -44.6406     0.0000     8.0000 </r>
       <r>   -44.4349     0.0000     8.0000 </r>
       <r>   -44.2293     0.0000     8.0000 </r>
       <r>   -44.0237     0.0000     8.0000 </r>
       <r>   -43.8181     0.0000     8.0000 </r>
       <r>   -43.6125     0.0000     8.0000 </r>
       <r>   -43.4069     0.0000     8.0000 </r>
       <r>   -43.2013     0.0000     8.0000 </r>
       <r>   -42.9957     0.0000     8.0000 </r>
       <r>   -42.7901     0.0000     8.0000 </r>
       <r>   -42.5844     0.0000     8.0000 </r>
       <r>   -42.3788     0.0000     8.0000 </r>
       <r>   -42.1732    -0.0000     8.0000 </r>
       <r>   -41.9676    -0.0000     8.0000 </r>
       <r>   -41.7620    -0.0000     8.0000 </r>
       <r>   -41.5564    -0.0000     8.0000 </r>
       <r>   -41.3508    -0.0015     7.9997 </r>
       <r>   -41.1452    -0.6227     7.8716 </r>
       <r>   -40.9396     4.5470     8.8066 </r>
       <r>   -40.7339    85.1095    26.3060 </r>
       <r>   -40.5283    48.2212    36.2208 </r>
       <r>   -40.3227    -0.9159    36.0325 </r>
       <r>   -40.1171    -0.1577    36.0000 </r>
       <r>   -39.9115    -0.0002    36.0000 </r>
       <r>   -39.7059    -0.0000    36.0000 </r>
       <r>   -39.5003    -0.0000    36.0000 </r>
       <r>   -39.2947     0.0000    36.0000 </r>
       <r>   -39.0891     0.0000    36.0000 </r>
       <r>   -38.8835     0.0000    36.0000 </r>
       <r>   -38.6778     0.0000    36.0000 </r>
       <r>   -38.4722     0.0000    36.0000 </r>
       <r>   -38.2666     0.0000    36.0000 </r>
       <r>   -38.0610     0.0000    36.0000 </r>
       <r>   -37.8554     0.0000    36.0000 </r>
       <r>   -37.6498     0.0000    36.0000 </r>
       <r>   -37.4442     0.0000    36.0000 </r>
       <r>   -37.2386     0.0000    36.0000 </r>
       <r>   -37.0330     0.0000    36.0000 </r>
       <r>   -36.8273     0.0000    36.0000 </r>
       <r>   -36.6217     0.0000    36.0000 </r>
       <r>   -36.4161     0.0000    36.0000 </r>
       <r>   -36.2105     0.0000    36.0000 </r>
       <r>   -36.0049     0.0000    36.0000 </r>
       <r>   -35.7993     0.0000    36.0000 </r>
       <r>   -35.5937     0.0000    36.0000 </r>
       <r>   -35.3881     0.0000    36.0000 </r>
       <r>   -35.1825     0.0000    36.0000 </r>
       <r>   -34.9768     0.0000    36.0000 </r>
       <r>   -34.7712     0.0000    36.0000 </r>
       <r>   -34.5656     0.0000    36.0000 </r>
       <r>   -34.3600     0.0000    36.0000 </r>
       <r>   -34.1544     0.0000    36.0000 </r>
       <r>   -33.9488     0.0000    36.0000 </r>
       <r>   -33.7432     0.0000    36.0000 </r>
       <r>   -33.5376     0.0000    36.0000 </r>
       <r>   -33.3320     0.0000    36.0000 </r>
       <r>   -33.1263     0.0000    36.0000 </r>
       <r>   -32.9207     0.0000    36.0000 </r>
       <r>   -32.7151     0.0000    36.0000 </r>
       <r>   -32.5095     0.0000    36.0000 </r>
       <r>   -32.3039     0.0000    36.0000 </r>
       <r>   -32.0983     0.0000    36.0000 </r>
       <r>   -31.8927     0.0000    36.0000 </r>
       <r>   -31.6871     0.0000    36.0000 </r>
       <r>   -31.4815     0.0000    36.0000 </r>
       <r>   -31.2759     0.0000    36.0000 </r>
       <r>   -31.0702     0.0000    36.0000 </r>
       <r>   -30.8646     0.0000    36.0000 </r>
       <r>   -30.6590     0.0000    36.0000 </r>
       <r>   -30.4534     0.0000    36.0000 </r>
       <r>   -30.2478     0.0000    36.0000 </r>
       <r>   -30.0422     0.0000    36.0000 </r>
       <r>   -29.8366     0.0000    36.0000 </r>
       <r>   -29.6310     0.0000    36.0000 </r>
       <r>   -29.4254     0.0000    36.0000 </r>
       <r>   -29.2197     0.0000    36.0000 </r>
       <r>   -29.0141     0.0000    36.0000 </r>
       <r>   -28.8085     0.0000    36.0000 </r>
       <r>   -28.6029     0.0000    36.0000 </r>
       <r>   -28.3973     0.0000    36.0000 </r>
       <r>   -28.1917     0.0000    36.0000 </r>
       <r>   -27.9861     0.0000    36.0000 </r>
       <r>   -27.7805     0.0000    36.0000 </r>
       <r>   -27.5749     0.0000    36.0000 </r>
       <r>   -27.3692     0.0000    36.0000 </r>
       <r>   -27.1636     0.0000    36.0000 </r>
       <r>   -26.9580     0.0000    36.0000 </r>
       <r>   -26.7524     0.0000    36.0000 </r>
       <r>   -26.5468     0.0000    36.0000 </r>
       <r>   -26.3412     0.0000    36.0000 </r>
       <r>   -26.1356     0.0000    36.0000 </r>
       <r>   -25.9300     0.0000    36.0000 </r>
       <r>   -25.7244     0.0000    36.0000 </r>
       <r>   -25.5187     0.0000    36.0000 </r>
       <r>   -25.3131     0.0000    36.0000 </r>
       <r>   -25.1075     0.0000    36.0000 </r>
       <r>   -24.9019     0.0000    36.0000 </r>
       <r>   -24.6963     0.0000    36.0000 </r>
       <r>   -24.4907    -0.0000    36.0000 </r>
       <r>   -24.2851    -0.0000    36.0000 </r>
       <r>   -24.0795    -0.0000    36.0000 </r>
       <r>   -23.8739    -0.0000    36.0000 </r>
       <r>   -23.6683    -0.0007    35.9998 </r>
       <r>   -23.4626    -0.2187    35.9549 </r>
       <r>   -23.2570     2.5290    36.4749 </r>
       <r>   -23.0514    14.3381    39.4229 </r>
       <r>   -22.8458    31.8349    45.9685 </r>
       <r>   -22.6402    47.5880    55.7532 </r>
       <r>   -22.4346    15.5525    58.9509 </r>
       <r>   -22.2290     5.4944    60.0806 </r>
       <r>   -22.0234    -0.3888    60.0007 </r>
       <r>   -21.8178    -0.0033    60.0000 </r>
       <r>   -21.6121    -0.0000    60.0000 </r>
       <r>   -21.4065    -0.0000    60.0000 </r>
       <r>   -21.2009     0.0000    60.0000 </r>
       <r>   -20.9953     0.0000    60.0000 </r>
       <r>   -20.7897     0.0000    60.0000 </r>
       <r>   -20.5841    -0.0000    60.0000 </r>
       <r>   -20.3785    -0.0000    60.0000 </r>
       <r>   -20.1729    -0.0000    60.0000 </r>
       <r>   -19.9673    -0.0000    60.0000 </r>
       <r>   -19.7616    -0.0003    59.9999 </r>
       <r>   -19.5560    -0.1605    59.9669 </r>
       <r>   -19.3504    -0.1524    59.9356 </r>
       <r>   -19.1448    34.5231    67.0339 </r>
       <r>   -18.9392   121.4577    92.0070 </r>
       <r>   -18.7336   149.5310   122.7521 </r>
       <r>   -18.5280    90.5423   141.3686 </r>
       <r>   -18.3224    13.9023   144.2271 </r>
       <r>   -18.1168    -1.0878   144.0034 </r>
       <r>   -17.9111    -0.0167   144.0000 </r>
       <r>   -17.7055    -0.0000   144.0000 </r>
       <r>   -17.4999    -0.0000   144.0000 </r>
       <r>   -17.2943     0.0000   144.0000 </r>
       <r>   -17.0887     0.0000   144.0000 </r>
       <r>   -16.8831     0.0000   144.0000 </r>
       <r>   -16.6775     0.0000   144.0000 </r>
       <r>   -16.4719     0.0000   144.0000 </r>
       <r>   -16.2663     0.0000   144.0000 </r>
       <r>   -16.0607     0.0000   144.0000 </r>
       <r>   -15.8550     0.0000   144.0000 </r>
       <r>   -15.6494     0.0000   144.0000 </r>
       <r>   -15.4438     0.0000   144.0000 </r>
       <r>   -15.2382     0.0000   144.0000 </r>
       <r>   -15.0326     0.0000   144.0000 </r>
       <r>   -14.8270     0.0000   144.0000 </r>
       <r>   -14.6214     0.0000   144.0000 </r>
       <r>   -14.4158     0.0000   144.0000 </r>
       <r>   -14.2102     0.0000   144.0000 </r>
       <r>   -14.0045     0.0000   144.0000 </r>
       <r>   -13.7989     0.0000   144.0000 </r>
       <r>   -13.5933     0.0000   144.0000 </r>
       <r>   -13.3877     0.0000   144.0000 </r>
       <r>   -13.1821     0.0000   144.0000 </r>
       <r>   -12.9765     0.0000   144.0000 </r>
       <r>   -12.7709     0.0000   144.0000 </r>
       <r>   -12.5653     0.0000   144.0000 </r>
       <r>   -12.3597     0.0000   144.0000 </r>
       <r>   -12.1540     0.0000   144.0000 </r>
       <r>   -11.9484     0.0000   144.0000 </r>
       <r>   -11.7428     0.0000   144.0000 </r>
       <r>   -11.5372     0.0000   144.0000 </r>
       <r>   -11.3316     0.0000   144.0000 </r>
       <r>   -11.1260     0.0000   144.0000 </r>
       <r>   -10.9204     0.0000   144.0000 </r>
       <r>   -10.7148     0.0000   144.0000 </r>
       <r>   -10.5092     0.0000   144.0000 </r>
       <r>   -10.3035     0.0000   144.0000 </r>
       <r>   -10.0979     0.0000   144.0000 </r>
       <r>    -9.8923     0.0000   144.0000 </r>
       <r>    -9.6867     0.0000   144.0000 </r>
       <r>    -9.4811     0.0000   144.0000 </r>
       <r>    -9.2755     0.0000   144.0000 </r>
       <r>    -9.0699     0.0000   144.0000 </r>
       <r>    -8.8643     0.0000   144.0000 </r>
       <r>    -8.6587     0.0000   144.0000 </r>
       <r>    -8.4531     0.0000   144.0000 </r>
       <r>    -8.2474     0.0000   144.0000 </r>
       <r>    -8.0418     0.0000   144.0000 </r>
       <r>    -7.8362     0.0000   144.0000 </r>
       <r>    -7.6306     0.0000   144.0000 </r>
       <r>    -7.4250     0.0000   144.0000 </r>
       <r>    -7.2194     0.0000   144.0000 </r>
       <r>    -7.0138     0.0000   144.0000 </r>
       <r>    -6.8082     0.0000   144.0000 </r>
       <r>    -6.6026     0.0000   144.0000 </r>
       <r>    -6.3969     0.0000   144.0000 </r>
       <r>    -6.1913     0.0000   144.0000 </r>
       <r>    -5.9857     0.0000   144.0000 </r>
       <r>    -5.7801     0.0000   144.0000 </r>
       <r>    -5.5745     0.0000   144.0000 </r>
       <r>    -5.3689     0.0000   144.0000 </r>
       <r>    -5.1633     0.0000   144.0000 </r>
       <r>    -4.9577     0.0000   144.0000 </r>
       <r>    -4.7521     0.0000   144.0000 </r>
       <r>    -4.5464     0.0000   144.0000 </r>
       <r>    -4.3408     0.0000   144.0000 </r>
       <r>    -4.1352     0.0000   144.0000 </r>
       <r>    -3.9296     0.0000   144.0000 </r>
       <r>    -3.7240     0.0000   144.0000 </r>
       <r>    -3.5184     0.0000   144.0000 </r>
       <r>    -3.3128     0.0000   144.0000 </r>
       <r>    -3.1072     0.0000   144.0000 </r>
       <r>    -2.9016     0.0000   144.0000 </r>
       <r>    -2.6959     0.0000   144.0000 </r>
       <r>    -2.4903     0.0000   144.0000 </r>
       <r>    -2.2847     0.0000   144.0000 </r>
       <r>    -2.0791     0.0000   144.0000 </r>
       <r>    -1.8735     0.0000   144.0000 </r>
       <r>    -1.6679     0.0000   144.0000 </r>
       <r>    -1.4623     0.0000   144.0000 </r>
       <r>    -1.2567     0.0000   144.0000 </r>
       <r>    -1.0511     0.0000   144.0000 </r>
       <r>    -0.8455     0.0000   144.0000 </r>
       <r>    -0.6398     0.0000   144.0000 </r>
       <r>    -0.4342    -0.0000   144.0000 </r>
       <r>    -0.2286    -0.0000   144.0000 </r>
       <r>    -0.0230    -0.0000   144.0000 </r>
       <r>     0.1826    -0.0000   144.0000 </r>
       <r>     0.3882    -0.0000   144.0000 </r>
       <r>     0.5938    -0.0061   143.9988 </r>
       <r>     0.7994     0.0611   144.0113 </r>
       <r>     1.0050     0.5222   144.1187 </r>
       <r>     1.2107     1.4840   144.4238 </r>
       <r>     1.4163     1.8556   144.8054 </r>
       <r>     1.6219     2.7961   145.3803 </r>
       <r>     1.8275     4.7352   146.3539 </r>
       <r>     2.0331     1.3229   146.6259 </r>
       <r>     2.2387     5.4881   147.7543 </r>
       <r>     2.4443     2.3341   148.2342 </r>
       <r>     2.6499     4.6797   149.1964 </r>
       <r>     2.8555     6.6442   150.5625 </r>
       <r>     3.0612     7.2951   152.0625 </r>
       <r>     3.2668     8.4163   153.7929 </r>
       <r>     3.4724     8.2428   155.4878 </r>
       <r>     3.6780     8.5932   157.2546 </r>
       <r>     3.8836    12.2624   159.7759 </r>
       <r>     4.0892    19.1063   163.7044 </r>
       <r>     4.2948    22.7737   168.3869 </r>
       <r>     4.5004    25.6608   173.6630 </r>
       <r>     4.7060    32.7034   180.3872 </r>
       <r>     4.9117    34.0847   187.3954 </r>
       <r>     5.1173    40.7174   195.7673 </r>
       <r>     5.3229    39.9473   203.9809 </r>
       <r>     5.5285    35.0029   211.1779 </r>
       <r>     5.7341    33.5805   218.0824 </r>
       <r>     5.9397    27.5648   223.7500 </r>
       <r>     6.1453    23.6738   228.6176 </r>
       <r>     6.3509    53.3205   239.5809 </r>
       <r>     6.5565    58.5499   251.6194 </r>
       <r>     6.7621    57.8687   263.5178 </r>
       <r>     6.9678    55.1739   274.8622 </r>
       <r>     7.1734    57.7671   286.7397 </r>
       <r>     7.3790    52.0773   297.4474 </r>
       <r>     7.5846    44.6971   306.6376 </r>
       <r>     7.7902    48.9955   316.7116 </r>
       <r>     7.9958    51.7617   327.3543 </r>
       <r>     8.2014    41.8157   335.9521 </r>
       <r>     8.4070    34.5249   343.0508 </r>
       <r>     8.6126    28.3198   348.8736 </r>
       <r>     8.8183    23.2733   353.6589 </r>
       <r>     9.0239    16.2458   356.9992 </r>
       <r>     9.2295    11.6310   359.3907 </r>
       <r>     9.4351     3.1421   360.0367 </r>
       <r>     9.6407    -0.1729   360.0012 </r>
       <r>     9.8463    -0.0057   360.0000 </r>
       <r>    10.0519    -0.0000   360.0000 </r>
       <r>    10.2575    -0.0000   360.0000 </r>
       <r>    10.4631     0.0000   360.0000 </r>
       <r>    10.6688     0.0000   360.0000 </r>
       <r>    10.8744     0.0000   360.0000 </r>
       <r>    11.0800     0.0000   360.0000 </r>
       <r>    11.2856     0.0000   360.0000 </r>
       <r>    11.4912     0.0000   360.0000 </r>
       <r>    11.6968     0.0000   360.0000 </r>
       <r>    11.9024     0.0000   360.0000 </r>
       <r>    12.1080     0.0000   360.0000 </r>
      </set>
     </set>
    </array>
   </total>
  </dos>
 </calculation>
 <structure name="finalpos" >
  <crystal>
   <varray name="basis" >
    <v>       7.04681304       0.01159484      -0.03363946 </v>
    <v>       0.01699800      10.31757019      -0.00466124 </v>
    <v>      -0.05022929      -0.00479297      10.34821767 </v>
   </varray>
   <i name="volume">    752.35776645 </i>
   <varray name="rec_basis" >
    <v>       0.14191179      -0.00023349       0.00068872 </v>
    <v>      -0.00015927       0.09692233       0.00004412 </v>
    <v>       0.00046125       0.00004290       0.09663726 </v>
   </varray>
  </crystal>
  <varray name="positions" >
   <v>       0.74148691       0.83246136       0.82789612 </v>
   <v>       0.75740754       0.84065478       0.16933809 </v>
   <v>      -0.00870381       0.99297652       0.32553723 </v>
   <v>       0.28301826       0.49657306       0.14584301 </v>
   <v>       0.23656151       0.84340265       0.18063911 </v>
   <v>       0.50311409       0.99078652       0.66342719 </v>
   <v>       0.72600196       0.50829635       0.15516416 </v>
   <v>       0.77724689       0.15389615       0.48780777 </v>
   <v>       0.50455546       0.67309457       0.99776277 </v>
   <v>       0.96813011       0.32125871       0.68037340 </v>
   <v>       0.74200289       0.15743970       0.16801733 </v>
   <v>      -0.01237958       0.00499481       0.68186724 </v>
   <v>       0.22818055       0.50193472       0.51489029 </v>
   <v>       0.01261248       0.66046695       0.30534418 </v>
   <v>       0.48327924       0.96599322       0.00228628 </v>
   <v>       0.50601311       0.99658695       0.34174003 </v>
   <v>       0.52977828       0.33310672       0.64885529 </v>
   <v>       0.98331982       0.34085626       0.00493683 </v>
   <v>       0.00081218       0.34534173       0.31845260 </v>
   <v>       0.49506414       0.66933009       0.32503598 </v>
   <v>       0.70993652       0.15914369       0.84921672 </v>
   <v>       0.00343319       0.99419850       0.99596795 </v>
   <v>       0.22742124       0.16672241       0.50315265 </v>
   <v>       0.27208173       0.17149634       0.83303536 </v>
   <v>       0.00025911       0.66925800       0.00033499 </v>
   <v>       0.50955091       0.33621178       0.34122391 </v>
   <v>       0.78859655       0.51912570       0.50358388 </v>
   <v>       0.50634049       0.66918040       0.67156220 </v>
   <v>       0.76724878       0.83036850       0.50354850 </v>
   <v>       0.25793146       0.49393115       0.83485638 </v>
   <v>       0.26234165       0.16826357       0.15861257 </v>
   <v>       0.23378749       0.83108657       0.50305006 </v>
   <v>      -0.00482996       0.67368989       0.69336528 </v>
   <v>       0.24973261       0.82813436       0.81861405 </v>
   <v>       0.51898779       0.35281761       0.00315691 </v>
   <v>       0.73968043       0.50692372       0.84151869 </v>
  </varray>
 </structure>
</modeling>
