<?xml version="1.0" encoding="ISO-8859-1"?>
<modeling>
 <generator>
  <i name="program" type="string">vasp </i>
  <i name="version" type="string">5.4.1  </i>
  <i name="subversion" type="string">05Feb16 (build Jan 29 2020 16:04:39) complex                          parallel </i>
  <i name="platform" type="string">IFC91_ompi </i>
  <i name="date" type="string">2020 06 15 </i>
  <i name="time" type="string">05:34:28 </i>
 </generator>
 <incar>
  <i type="string" name="SYSTEM"> automatically generated by mexm</i>
  <i type="int" name="ISTART">     0</i>
  <i type="string" name="PREC">accurate               ! avoid wrap aro</i>
  <i type="string" name="ALGO"> Fast                   ! blocked Davids</i>
  <i type="int" name="ISPIN">     1</i>
  <i type="int" name="ICHARG">     2</i>
  <i type="int" name="NELM">    70</i>
  <i type="int" name="IBRION">     2</i>
  <i name="EDIFF">      0.00001000</i>
  <i name="EDIFFG">     -0.01000000</i>
  <i type="int" name="NSW">   300</i>
  <i type="int" name="ISIF">     3</i>
  <i type="int" name="ISYM">     1</i>
  <i name="ENCUT">    300.00000000</i>
  <i name="POTIM">      0.15000000</i>
  <i type="string" name="LREAL"> Auto                  ! unpublished met</i>
  <i type="int" name="ISMEAR">     1</i>
  <i name="SIGMA">      0.15000000</i>
  <i type="logical" name="LWAVE"> F  </i>
  <i type="logical" name="LCHARG"> F  </i>
  <i type="logical" name="LVTOT"> F  </i>
  <v type="int" name="KPOINT_BSE">    -1     0     0     0</v>
  <i type="int" name="NELM">    70</i>
 </incar>
 <kpoints>
  <generation param="Gamma">
   <v type="int" name="divisions">       3        3        3 </v>
   <v name="usershift">      0.00000000       0.00000000       0.00000000 </v>
   <v name="genvec1">      0.33333333      -0.00000000       0.00000000 </v>
   <v name="genvec2">     -0.00000000       0.33333333       0.00000000 </v>
   <v name="genvec3">      0.00000000      -0.00000000       0.33333333 </v>
   <v name="shift">      0.00000000       0.00000000       0.00000000 </v>
  </generation>
  <varray name="kpointlist" >
   <v>       0.00000000       0.00000000       0.00000000 </v>
   <v>       0.33333333      -0.00000000      -0.00000000 </v>
   <v>       0.00000000       0.33333333       0.00000000 </v>
   <v>       0.33333333       0.33333333       0.00000000 </v>
   <v>      -0.33333333       0.33333333       0.00000000 </v>
   <v>      -0.00000000       0.00000000       0.33333333 </v>
   <v>       0.33333333       0.00000000       0.33333333 </v>
   <v>      -0.33333333      -0.00000000       0.33333333 </v>
   <v>      -0.00000000       0.33333333       0.33333333 </v>
   <v>       0.33333333       0.33333333       0.33333333 </v>
   <v>      -0.33333333       0.33333333       0.33333333 </v>
   <v>      -0.00000000      -0.33333333       0.33333333 </v>
   <v>       0.33333333      -0.33333333       0.33333333 </v>
   <v>      -0.33333333      -0.33333333       0.33333333 </v>
  </varray>
  <varray name="weights" >
   <v>       0.03703704 </v>
   <v>       0.07407407 </v>
   <v>       0.07407407 </v>
   <v>       0.07407407 </v>
   <v>       0.07407407 </v>
   <v>       0.07407407 </v>
   <v>       0.07407407 </v>
   <v>       0.07407407 </v>
   <v>       0.07407407 </v>
   <v>       0.07407407 </v>
   <v>       0.07407407 </v>
   <v>       0.07407407 </v>
   <v>       0.07407407 </v>
   <v>       0.07407407 </v>
  </varray>
 </kpoints>
 <parameters>
  <separator name="general" >
   <i type="string" name="SYSTEM">automatically generated by mexm</i>
   <i type="logical" name="LCOMPAT"> F  </i>
  </separator>
  <separator name="electronic" >
   <i type="string" name="PREC">accura</i>
   <i name="ENMAX">    300.00000000</i>
   <i name="ENAUG">    461.25700000</i>
   <i name="EDIFF">      0.00001000</i>
   <i type="int" name="IALGO">    68</i>
   <i type="int" name="IWAVPR">    11</i>
   <i type="int" name="NBANDS">   172</i>
   <i name="NELECT">    283.00000000</i>
   <i type="int" name="TURBO">     0</i>
   <i type="int" name="IRESTART">     0</i>
   <i type="int" name="NREBOOT">     0</i>
   <i type="int" name="NMIN">     0</i>
   <i name="EREF">      0.00000000</i>
   <separator name="electronic smearing" >
    <i type="int" name="ISMEAR">     1</i>
    <i name="SIGMA">      0.15000000</i>
    <i name="KSPACING">      0.50000000</i>
    <i type="logical" name="KGAMMA"> T  </i>
   </separator>
   <separator name="electronic projectors" >
    <i type="logical" name="LREAL"> T  </i>
    <v name="ROPT">     -0.00025000     -0.00025000     -0.00025000     -0.00025000</v>
    <i type="int" name="LMAXPAW">  -100</i>
    <i type="int" name="LMAXMIX">     2</i>
    <i type="logical" name="NLSPLINE"> F  </i>
   </separator>
   <separator name="electronic startup" >
    <i type="int" name="ISTART">     0</i>
    <i type="int" name="ICHARG">     2</i>
    <i type="int" name="INIWAV">     1</i>
   </separator>
   <separator name="electronic spin" >
    <i type="int" name="ISPIN">     1</i>
    <i type="logical" name="LNONCOLLINEAR"> F  </i>
    <v name="MAGMOM">      1.00000000      1.00000000      1.00000000      1.00000000      1.00000000      1.00000000      1.00000000      1.00000000      1.00000000      1.00000000      1.00000000      1.00000000      1.00000000      1.00000000      1.00000000      1.00000000      1.00000000      1.00000000      1.00000000      1.00000000
      1.00000000      1.00000000      1.00000000      1.00000000      1.00000000      1.00000000      1.00000000      1.00000000      1.00000000      1.00000000      1.00000000      1.00000000      1.00000000      1.00000000      1.00000000      1.00000000</v>
    <i name="NUPDOWN">     -1.00000000</i>
    <i type="logical" name="LSORBIT"> F  </i>
    <v name="SAXIS">      0.00000000      0.00000000      1.00000000</v>
    <i type="logical" name="LSPIRAL"> F  </i>
    <v name="QSPIRAL">      0.00000000      0.00000000      0.00000000</v>
    <i type="logical" name="LZEROZ"> F  </i>
   </separator>
   <separator name="electronic exchange-correlation" >
    <i type="logical" name="LASPH"> F  </i>
    <i type="logical" name="LMETAGGA"> F  </i>
   </separator>
   <separator name="electronic convergence" >
    <i type="int" name="NELM">    70</i>
    <i type="int" name="NELMDL">    -5</i>
    <i type="int" name="NELMIN">     2</i>
    <i name="ENINI">    300.00000000</i>
    <separator name="electronic convergence detail" >
     <i type="logical" name="LDIAG"> T  </i>
     <i type="logical" name="LSUBROT"> F  </i>
     <i name="WEIMIN">      0.00100000</i>
     <i name="EBREAK">      0.00000001</i>
     <i name="DEPER">      0.30000000</i>
     <i type="int" name="NRMM">     4</i>
     <i name="TIME">      0.40000000</i>
    </separator>
   </separator>
   <separator name="electronic mixer" >
    <i name="AMIX">      0.40000000</i>
    <i name="BMIX">      1.00000000</i>
    <i name="AMIN">      0.10000000</i>
    <i name="AMIX_MAG">      1.60000000</i>
    <i name="BMIX_MAG">      1.00000000</i>
    <separator name="electronic mixer details" >
     <i type="int" name="IMIX">     4</i>
     <i type="logical" name="MIXFIRST"> F  </i>
     <i type="int" name="MAXMIX">   -45</i>
     <i name="WC">    100.00000000</i>
     <i type="int" name="INIMIX">     1</i>
     <i type="int" name="MIXPRE">     1</i>
     <i type="int" name="MREMOVE">     5</i>
    </separator>
   </separator>
   <separator name="electronic dipolcorrection" >
    <i type="logical" name="LDIPOL"> F  </i>
    <i type="logical" name="LMONO"> F  </i>
    <i type="int" name="IDIPOL">     0</i>
    <i name="EPSILON">      1.00000000</i>
    <v name="DIPOL">   -100.00000000   -100.00000000   -100.00000000</v>
    <i name="EFIELD">      0.00000000</i>
   </separator>
  </separator>
  <separator name="grids" >
   <i type="int" name="NGX">    40</i>
   <i type="int" name="NGY">    60</i>
   <i type="int" name="NGZ">    60</i>
   <i type="int" name="NGXF">    80</i>
   <i type="int" name="NGYF">   120</i>
   <i type="int" name="NGZF">   120</i>
   <i type="logical" name="ADDGRID"> F  </i>
  </separator>
  <separator name="ionic" >
   <i type="int" name="NSW">   300</i>
   <i type="int" name="IBRION">     2</i>
   <i type="int" name="ISIF">     3</i>
   <i name="PSTRESS">      0.00000000</i>
   <i name="EDIFFG">     -0.01000000</i>
   <i type="int" name="NFREE">     1</i>
   <i name="POTIM">      0.15000000</i>
   <i name="SMASS">     -3.00000000</i>
   <i name="SCALEE">      1.00000000</i>
  </separator>
  <separator name="ionic md" >
   <i name="TEBEG">      0.00010000</i>
   <i name="TEEND">      0.00010000</i>
   <i type="int" name="NBLOCK">     1</i>
   <i type="int" name="KBLOCK">   300</i>
   <i type="int" name="NPACO">   256</i>
   <i name="APACO">     16.00000000</i>
  </separator>
  <separator name="symmetry" >
   <i type="int" name="ISYM">     1</i>
   <i name="SYMPREC">      0.00001000</i>
  </separator>
  <separator name="dos" >
   <i type="logical" name="LORBIT"> F  </i>
   <v name="RWIGS">     -1.00000000     -1.00000000     -1.00000000     -1.00000000</v>
   <i type="int" name="NEDOS">   301</i>
   <i name="EMIN">     10.00000000</i>
   <i name="EMAX">    -10.00000000</i>
   <i name="EFERMI">      0.00000000</i>
  </separator>
  <separator name="writing" >
   <i type="int" name="NWRITE">     2</i>
   <i type="logical" name="LWAVE"> F  </i>
   <i type="logical" name="LCHARG"> F  </i>
   <i type="logical" name="LPARD"> F  </i>
   <i type="logical" name="LVTOT"> F  </i>
   <i type="logical" name="LVHAR"> F  </i>
   <i type="logical" name="LELF"> F  </i>
   <i type="logical" name="LOPTICS"> F  </i>
   <v name="STM">      0.00000000      0.00000000      0.00000000      0.00000000      0.00000000      0.00000000      0.00000000</v>
  </separator>
  <separator name="performance" >
   <i type="int" name="NPAR">     4</i>
   <i type="int" name="NSIM">     4</i>
   <i type="int" name="NBLK">    -1</i>
   <i type="logical" name="LPLANE"> T  </i>
   <i type="logical" name="LSCALAPACK"> T  </i>
   <i type="logical" name="LSCAAWARE"> F  </i>
   <i type="logical" name="LSCALU"> F  </i>
   <i type="logical" name="LASYNC"> F  </i>
   <i type="logical" name="LORBITALREAL"> F  </i>
  </separator>
  <separator name="miscellaneous" >
   <i type="int" name="IDIOT">     3</i>
   <i type="logical" name="LMUSIC"> F  </i>
   <v name="POMASS">    180.94800000    178.49000000     92.91000000     91.22400000</v>
   <v name="DARWINR">      0.00000000      0.00000000      0.00000000      0.00000000</v>
   <v name="DARWINV">      1.00000000      1.00000000      1.00000000      1.00000000</v>
   <i type="logical" name="LCORR"> T  </i>
  </separator>
  <i type="logical" name="GGA_COMPAT"> T  </i>
  <i type="logical" name="LBERRY"> F  </i>
  <i type="int" name="ICORELEVEL">     0</i>
  <i type="logical" name="LDAU"> F  </i>
  <i type="int" name="I_CONSTRAINED_M">     0</i>
  <separator name="electronic exchange-correlation" >
   <i type="string" name="GGA">--</i>
   <i type="int" name="VOSKOWN">     0</i>
   <i type="logical" name="LHFCALC"> F  </i>
   <i type="string" name="PRECFOCK"></i>
   <i type="logical" name="LSYMGRAD"> F  </i>
   <i type="logical" name="LHFONE"> F  </i>
   <i type="logical" name="LRHFCALC"> F  </i>
   <i type="logical" name="LTHOMAS"> F  </i>
   <i type="logical" name="LMODELHF"> F  </i>
   <i name="ENCUT4O">     -1.00000000</i>
   <i type="int" name="EXXOEP">     0</i>
   <i type="int" name="FOURORBIT">     0</i>
   <i name="AEXX">      0.00000000</i>
   <i name="HFALPHA">      0.00000000</i>
   <i name="MCALPHA">      0.00000000</i>
   <i name="ALDAX">      1.00000000</i>
   <i name="AGGAX">      1.00000000</i>
   <i name="ALDAC">      1.00000000</i>
   <i name="AGGAC">      1.00000000</i>
   <i type="int" name="NKREDX">     1</i>
   <i type="int" name="NKREDY">     1</i>
   <i type="int" name="NKREDZ">     1</i>
   <i type="logical" name="SHIFTRED"> F  </i>
   <i type="logical" name="ODDONLY"> F  </i>
   <i type="logical" name="EVENONLY"> F  </i>
   <i type="int" name="LMAXFOCK">     0</i>
   <i type="int" name="NMAXFOCKAE">     0</i>
   <i type="logical" name="LFOCKAEDFT"> F  </i>
   <i name="HFSCREEN">      0.00000000</i>
   <i name="HFSCREENC">      0.00000000</i>
   <i type="int" name="NBANDSGWLOW">     0</i>
  </separator>
  <separator name="vdW DFT" >
   <i type="logical" name="LUSE_VDW"> F  </i>
   <i name="Zab_VDW">     -0.84910000</i>
   <i name="PARAM1">      0.12340000</i>
   <i name="PARAM2">      1.00000000</i>
   <i name="PARAM3">      0.00000000</i>
  </separator>
  <separator name="model GW" >
   <i type="int" name="MODEL_GW">     0</i>
   <i name="MODEL_EPS0">     12.08353535</i>
   <i name="MODEL_ALPHA">      1.00000000</i>
  </separator>
  <separator name="linear response parameters" >
   <i type="logical" name="LEPSILON"> F  </i>
   <i type="logical" name="LRPA"> F  </i>
   <i type="logical" name="LNABLA"> F  </i>
   <i type="logical" name="LVEL"> F  </i>
   <i type="int" name="KINTER">     0</i>
   <i name="CSHIFT">      0.10000000</i>
   <i name="OMEGAMAX">     -1.00000000</i>
   <i name="DEG_THRESHOLD">      0.00200000</i>
  </separator>
  <separator name="orbital magnetization" >
   <i type="logical" name="NUCIND"> F  </i>
   <v name="MAGPOS">      0.00000000      0.00000000      0.00000000</v>
   <i type="logical" name="LNICSALL"> T  </i>
   <i type="logical" name="ORBITALMAG"> F  </i>
   <i type="logical" name="LMAGBLOCH"> F  </i>
   <i type="logical" name="LCHIMAG"> F  </i>
   <i type="logical" name="LGAUGE"> T  </i>
   <i type="int" name="MAGATOM">     0</i>
   <v name="MAGDIPOL">      0.00000000      0.00000000      0.00000000</v>
   <v name="AVECCONST">      0.00000000      0.00000000      0.00000000</v>
  </separator>
  <separator name="response functions" >
   <i type="logical" name="LADDER"> F  </i>
   <i type="logical" name="LFXC"> F  </i>
   <i type="logical" name="LHARTREE"> T  </i>
   <i type="int" name="IBSE">     0</i>
   <v type="int" name="KPOINT">    -1     0     0     0</v>
   <i type="logical" name="LTCTE"> F  </i>
   <i type="logical" name="LTETE"> F  </i>
   <i type="logical" name="LTRIPLET"> F  </i>
   <i type="logical" name="LFXCEPS"> F  </i>
   <i type="logical" name="LFXHEG"> F  </i>
   <i type="int" name="NATURALO">     0</i>
   <i type="logical" name="L2ORDER"> F  </i>
   <i type="logical" name="LUSEW"> F  </i>
   <i name="ENCUTGW">     -2.00000000</i>
   <i name="ENCUTGWSOFT">     -2.00000000</i>
   <i name="ENCUTLF">     -1.00000000</i>
   <i type="int" name="LMAXMP2">    -1</i>
   <i name="SCISSOR">      0.00000000</i>
   <i type="int" name="NOMEGA">     0</i>
   <i type="int" name="NOMEGAR">     0</i>
   <i type="int" name="NBANDSGW">    -1</i>
   <i type="int" name="NBANDSO">    -1</i>
   <i type="int" name="NBANDSV">    -1</i>
   <i type="int" name="NELM">    70</i>
   <i type="int" name="NELMHF">     1</i>
   <i type="int" name="DIM">     3</i>
   <i type="int" name="ANTIRES">     0</i>
   <i name="OMEGAMAX">    -30.00000000</i>
   <i name="OMEGAMIN">    -30.00000000</i>
   <i name="OMEGATL">   -200.00000000</i>
   <i type="int" name="OMEGAGRID">     0</i>
   <i name="CSHIFT">     -0.10000000</i>
   <i type="logical" name="SELFENERGY"> F  </i>
   <i type="logical" name="LSPECTRAL"> F  </i>
   <i type="logical" name="LSPECTRALGW"> F  </i>
   <i type="logical" name="LSINGLES"> F  </i>
   <i type="logical" name="LFERMIGW"> F  </i>
   <i type="logical" name="ODDONLYGW"> F  </i>
   <i type="logical" name="EVENONLYGW"> F  </i>
   <i type="int" name="NKREDLFX">     1</i>
   <i type="int" name="NKREDLFY">     1</i>
   <i type="int" name="NKREDLFZ">     1</i>
   <i type="int" name="MAXMEM">  1800</i>
   <i type="int" name="TELESCOPE">     0</i>
   <i type="int" name="TAUPAR">     1</i>
   <i type="int" name="OMEGAPAR">    -1</i>
   <i name="LAMBDA">      1.00000000</i>
  </separator>
  <separator name="External order field" >
   <i name="OFIELD_KAPPA">      0.00000000</i>
   <v name="OFIELD_K">      0.00000000      0.00000000      0.00000000</v>
   <i name="OFIELD_Q6_NEAR">      0.00000000</i>
   <i name="OFIELD_Q6_FAR">      0.00000000</i>
   <i name="OFIELD_A">      0.00000000</i>
  </separator>
 </parameters>
 <atominfo>
  <atoms>      36 </atoms>
  <types>       4 </types>
  <array name="atoms" >
   <dimension dim="1">ion</dimension>
   <field type="string">element</field>
   <field type="int">atomtype</field>
   <set>
    <rc><c>Ta</c><c>   1</c></rc>
    <rc><c>Ta</c><c>   1</c></rc>
    <rc><c>Ta</c><c>   1</c></rc>
    <rc><c>Ta</c><c>   1</c></rc>
    <rc><c>Ta</c><c>   1</c></rc>
    <rc><c>Ta</c><c>   1</c></rc>
    <rc><c>Ta</c><c>   1</c></rc>
    <rc><c>Ta</c><c>   1</c></rc>
    <rc><c>Ta</c><c>   1</c></rc>
    <rc><c>Ta</c><c>   1</c></rc>
    <rc><c>Hf</c><c>   2</c></rc>
    <rc><c>Hf</c><c>   2</c></rc>
    <rc><c>Hf</c><c>   2</c></rc>
    <rc><c>Hf</c><c>   2</c></rc>
    <rc><c>Hf</c><c>   2</c></rc>
    <rc><c>Hf</c><c>   2</c></rc>
    <rc><c>Hf</c><c>   2</c></rc>
    <rc><c>Hf</c><c>   2</c></rc>
    <rc><c>Hf</c><c>   2</c></rc>
    <rc><c>Hf</c><c>   2</c></rc>
    <rc><c>Hf</c><c>   2</c></rc>
    <rc><c>Nb</c><c>   3</c></rc>
    <rc><c>Nb</c><c>   3</c></rc>
    <rc><c>Nb</c><c>   3</c></rc>
    <rc><c>Nb</c><c>   3</c></rc>
    <rc><c>Nb</c><c>   3</c></rc>
    <rc><c>Nb</c><c>   3</c></rc>
    <rc><c>Nb</c><c>   3</c></rc>
    <rc><c>Nb</c><c>   3</c></rc>
    <rc><c>Nb</c><c>   3</c></rc>
    <rc><c>Zr</c><c>   4</c></rc>
    <rc><c>Zr</c><c>   4</c></rc>
    <rc><c>Zr</c><c>   4</c></rc>
    <rc><c>Zr</c><c>   4</c></rc>
    <rc><c>Zr</c><c>   4</c></rc>
    <rc><c>Zr</c><c>   4</c></rc>
   </set>
  </array>
  <array name="atomtypes" >
   <dimension dim="1">type</dimension>
   <field type="int">atomspertype</field>
   <field type="string">element</field>
   <field>mass</field>
   <field>valence</field>
   <field type="string">pseudopotential</field>
   <set>
    <rc><c>  10</c><c>Ta</c><c>    180.94800000</c><c>      5.00000000</c><c>  PAW_PBE Ta 17Jan2003                  </c></rc>
    <rc><c>  11</c><c>Hf</c><c>    178.49000000</c><c>      4.00000000</c><c>  PAW_PBE Hf 20Jan2003                  </c></rc>
    <rc><c>   9</c><c>Nb</c><c>     92.91000000</c><c>     13.00000000</c><c>  PAW_PBE Nb_sv 25May2007               </c></rc>
    <rc><c>   6</c><c>Zr</c><c>     91.22400000</c><c>     12.00000000</c><c>  PAW_PBE Zr_sv 04Jan2005               </c></rc>
   </set>
  </array>
 </atominfo>
 <structure name="initialpos" >
  <crystal>
   <varray name="basis" >
    <v>       6.92701668       0.00890912       0.02839845 </v>
    <v>       0.01332378      10.25862413       0.00548215 </v>
    <v>       0.04207141       0.00511801      10.20277002 </v>
   </varray>
   <i name="volume">    725.01212111 </i>
   <varray name="rec_basis" >
    <v>       0.14436497      -0.00018718      -0.00059520 </v>
    <v>      -0.00012517       0.09747915      -0.00004838 </v>
    <v>      -0.00040176      -0.00005186       0.09801428 </v>
   </varray>
  </crystal>
  <varray name="positions" >
   <v>       0.24963700       0.16875300       0.50940300 </v>
   <v>       0.03820600       0.33386100       0.34632200 </v>
   <v>       0.01243600       0.33106300       0.67141300 </v>
   <v>       0.26590700       0.50170000       0.83361400 </v>
   <v>       0.28333800       0.83773700       0.51849100 </v>
   <v>       0.24669500       0.81908900       0.14568800 </v>
   <v>       0.48494900       0.33181500       0.66671500 </v>
   <v>       0.48856500       0.31693500       0.99355900 </v>
   <v>       0.24625100       0.49571400       0.51630300 </v>
   <v>       0.48455700       0.66835200       0.33202900 </v>
   <v>       0.26251200       0.82684700       0.83787000 </v>
   <v>       0.72041000       0.84236700       0.50718300 </v>
   <v>       0.00097400       0.00122600       0.67081800 </v>
   <v>       0.73031700       0.49933100       0.83485000 </v>
   <v>       0.24673200       0.50622100       0.14704200 </v>
   <v>       0.01864300       0.67728200       0.34199900 </v>
   <v>       0.50713800       0.00569300       0.00199100 </v>
   <v>       0.75244100       0.17175400       0.49910400 </v>
   <v>       0.46509700       0.33555900       0.33289500 </v>
   <v>       0.02104300       0.98993600       0.33560600 </v>
   <v>       0.76880200       0.18226700       0.18364500 </v>
   <v>       0.51127900       0.67492800       0.00543700 </v>
   <v>       0.73760200       0.82120100       0.83432900 </v>
   <v>       0.23121800       0.17275400       0.16488500 </v>
   <v>       0.98947800       0.67335600       0.99805200 </v>
   <v>       0.49537400       0.01105200       0.67597600 </v>
   <v>       0.73513000       0.17838400       0.81801100 </v>
   <v>       0.75690700       0.82311400       0.16265800 </v>
   <v>       0.26166600       0.16613400       0.82280000 </v>
   <v>       0.49558200       0.66038800       0.66603500 </v>
   <v>       0.75528300       0.48863700       0.49689000 </v>
   <v>       0.98847400       0.99843500       0.99788500 </v>
   <v>       0.00871400       0.32428900       0.97887500 </v>
   <v>       0.00045500       0.66881000       0.66496500 </v>
   <v>       0.48297100       0.99825800       0.31947900 </v>
   <v>       0.75520200       0.49677100       0.16717900 </v>
  </varray>
 </structure>
 <calculation>
  <scstep>
   <time name="dav">    0.97    0.99</time>
   <time name="total">    1.08    1.48</time>
   <energy>
    <i name="alphaZ">   1449.42877012 </i>
    <i name="ewald"> -17984.18591249 </i>
    <i name="hartreedc">  -6766.82288350 </i>
    <i name="XCdc">   -440.42963487 </i>
    <i name="pawpsdc">  20380.41186253 </i>
    <i name="pawaedc"> -18709.48699595 </i>
    <i name="eentropy">     -0.00004891 </i>
    <i name="bandstr">    -77.96723566 </i>
    <i name="atom">  23842.39304984 </i>
    <i name="e_fr_energy">   1693.34097110 </i>
    <i name="e_wo_entrp">   1693.34102002 </i>
    <i name="e_0_energy">   1693.34098741 </i>
   </energy>
  </scstep>
  <scstep>
   <time name="dav">    1.03    1.03</time>
   <time name="total">    1.03    1.22</time>
   <energy>
    <i name="e_fr_energy">   -123.02732495 </i>
    <i name="e_wo_entrp">   -123.03277579 </i>
    <i name="e_0_energy">   -123.02914189 </i>
   </energy>
  </scstep>
  <scstep>
   <time name="dav">    1.34    1.35</time>
   <time name="total">    1.34    1.39</time>
   <energy>
    <i name="e_fr_energy">   -353.80752865 </i>
    <i name="e_wo_entrp">   -353.81089140 </i>
    <i name="e_0_energy">   -353.80864957 </i>
   </energy>
  </scstep>
  <scstep>
   <time name="dav">    1.38    1.39</time>
   <time name="total">    1.38    1.43</time>
   <energy>
    <i name="e_fr_energy">   -380.76081385 </i>
    <i name="e_wo_entrp">   -380.75046759 </i>
    <i name="e_0_energy">   -380.75736510 </i>
   </energy>
  </scstep>
  <scstep>
   <time name="dav">    1.30    1.31</time>
   <time name="total">    1.33    1.38</time>
   <energy>
    <i name="e_fr_energy">   -383.27711056 </i>
    <i name="e_wo_entrp">   -383.26611666 </i>
    <i name="e_0_energy">   -383.27344593 </i>
   </energy>
  </scstep>
  <scstep>
   <time name="diag">    0.08    0.08</time>
   <time name="diis">    0.80    0.81</time>
   <time name="orth">    0.01    0.01</time>
   <time name="total">    0.96    1.00</time>
   <energy>
    <i name="e_fr_energy">   -372.78892846 </i>
    <i name="e_wo_entrp">   -372.79067542 </i>
    <i name="e_0_energy">   -372.78951078 </i>
   </energy>
  </scstep>
  <scstep>
   <time name="diag">    0.07    0.07</time>
   <time name="diis">    0.83    0.83</time>
   <time name="orth">    0.01    0.01</time>
   <time name="total">    0.98    1.02</time>
   <energy>
    <i name="e_fr_energy">   -373.72779945 </i>
    <i name="e_wo_entrp">   -373.73921895 </i>
    <i name="e_0_energy">   -373.73160595 </i>
   </energy>
  </scstep>
  <scstep>
   <time name="diag">    0.08    0.08</time>
   <time name="diis">    0.90    0.90</time>
   <time name="orth">    0.01    0.01</time>
   <time name="total">    1.06    1.10</time>
   <energy>
    <i name="e_fr_energy">   -368.25811592 </i>
    <i name="e_wo_entrp">   -368.26625051 </i>
    <i name="e_0_energy">   -368.26082745 </i>
   </energy>
  </scstep>
  <scstep>
   <time name="diag">    0.10    0.11</time>
   <time name="diis">    0.75    0.78</time>
   <time name="orth">    0.01    0.01</time>
   <time name="total">    1.04    1.16</time>
   <energy>
    <i name="e_fr_energy">   -368.02246806 </i>
    <i name="e_wo_entrp">   -368.03168021 </i>
    <i name="e_0_energy">   -368.02553878 </i>
   </energy>
  </scstep>
  <scstep>
   <time name="diag">    0.08    0.08</time>
   <time name="diis">    0.77    0.78</time>
   <time name="orth">    0.01    0.01</time>
   <time name="total">    0.93    0.98</time>
   <energy>
    <i name="e_fr_energy">   -367.96821287 </i>
    <i name="e_wo_entrp">   -367.97774117 </i>
    <i name="e_0_energy">   -367.97138897 </i>
   </energy>
  </scstep>
  <scstep>
   <time name="diag">    0.08    0.08</time>
   <time name="diis">    0.80    0.81</time>
   <time name="orth">    0.01    0.01</time>
   <time name="total">    0.96    1.01</time>
   <energy>
    <i name="e_fr_energy">   -367.94085827 </i>
    <i name="e_wo_entrp">   -367.95024450 </i>
    <i name="e_0_energy">   -367.94398702 </i>
   </energy>
  </scstep>
  <scstep>
   <time name="diag">    0.08    0.08</time>
   <time name="diis">    0.77    0.78</time>
   <time name="orth">    0.01    0.01</time>
   <time name="total">    0.94    1.00</time>
   <energy>
    <i name="e_fr_energy">   -367.93909727 </i>
    <i name="e_wo_entrp">   -367.94863377 </i>
    <i name="e_0_energy">   -367.94227611 </i>
   </energy>
  </scstep>
  <scstep>
   <time name="diag">    0.08    0.08</time>
   <time name="diis">    0.83    0.88</time>
   <time name="orth">    0.01    0.01</time>
   <time name="total">    0.98    1.09</time>
   <energy>
    <i name="e_fr_energy">   -367.93702588 </i>
    <i name="e_wo_entrp">   -367.94660829 </i>
    <i name="e_0_energy">   -367.94022002 </i>
   </energy>
  </scstep>
  <scstep>
   <time name="diag">    0.07    0.09</time>
   <time name="diis">    0.79    0.79</time>
   <time name="orth">    0.01    0.01</time>
   <time name="total">    0.94    1.03</time>
   <energy>
    <i name="e_fr_energy">   -367.93727136 </i>
    <i name="e_wo_entrp">   -367.94664084 </i>
    <i name="e_0_energy">   -367.94039452 </i>
   </energy>
  </scstep>
  <scstep>
   <time name="diag">    0.07    0.07</time>
   <time name="diis">    0.79    0.79</time>
   <time name="orth">    0.01    0.01</time>
   <time name="total">    0.94    0.99</time>
   <energy>
    <i name="e_fr_energy">   -367.93735332 </i>
    <i name="e_wo_entrp">   -367.94693893 </i>
    <i name="e_0_energy">   -367.94054852 </i>
   </energy>
  </scstep>
  <scstep>
   <time name="diag">    0.12    0.12</time>
   <time name="diis">    0.74    0.74</time>
   <time name="orth">    0.01    0.01</time>
   <time name="total">    0.93    0.98</time>
   <energy>
    <i name="e_fr_energy">   -367.93739882 </i>
    <i name="e_wo_entrp">   -367.94694499 </i>
    <i name="e_0_energy">   -367.94058088 </i>
   </energy>
  </scstep>
  <scstep>
   <time name="diag">    0.07    0.07</time>
   <time name="diis">    0.71    0.72</time>
   <time name="orth">    0.01    0.01</time>
   <time name="total">    0.90    0.94</time>
   <energy>
    <i name="e_fr_energy">   -367.93741439 </i>
    <i name="e_wo_entrp">   -367.94694705 </i>
    <i name="e_0_energy">   -367.94059194 </i>
   </energy>
  </scstep>
  <scstep>
   <time name="diag">    0.12    0.12</time>
   <time name="diis">    0.56    0.56</time>
   <time name="orth">    0.01    0.01</time>
   <time name="total">    0.75    0.80</time>
   <energy>
    <i name="e_fr_energy">   -367.93742537 </i>
    <i name="e_wo_entrp">   -367.94696576 </i>
    <i name="e_0_energy">   -367.94060550 </i>
   </energy>
  </scstep>
  <scstep>
   <time name="diag">    0.07    0.07</time>
   <time name="diis">    0.45    0.46</time>
   <time name="orth">    0.01    0.01</time>
   <time name="total">    0.60    0.65</time>
   <energy>
    <i name="e_fr_energy">   -367.93743038 </i>
    <i name="e_wo_entrp">   -367.94696335 </i>
    <i name="e_0_energy">   -367.94060804 </i>
   </energy>
  </scstep>
  <scstep>
   <time name="diag">    0.13    0.13</time>
   <time name="diis">    0.44    0.45</time>
   <time name="orth">    0.01    0.01</time>
   <time name="total">    0.82    0.89</time>
   <energy>
    <i name="alphaZ">   1449.42877012 </i>
    <i name="ewald"> -17984.18591249 </i>
    <i name="hartreedc">  -6557.11403109 </i>
    <i name="XCdc">   -438.06151467 </i>
    <i name="pawpsdc">  32098.22106540 </i>
    <i name="pawaedc"> -30411.16704163 </i>
    <i name="eentropy">      0.00953605 </i>
    <i name="bandstr">  -2367.46135242 </i>
    <i name="atom">  23842.39304984 </i>
    <i name="e_fr_energy">   -367.93743090 </i>
    <i name="e_wo_entrp">   -367.94696694 </i>
    <i name="e_0_energy">   -367.94060958 </i>
   </energy>
  </scstep>
  <structure>
   <crystal>
    <varray name="basis" >
     <v>       6.92701668       0.00890912       0.02839845 </v>
     <v>       0.01332378      10.25862413       0.00548215 </v>
     <v>       0.04207141       0.00511801      10.20277002 </v>
    </varray>
    <i name="volume">    725.01212111 </i>
    <varray name="rec_basis" >
     <v>       0.14436497      -0.00018718      -0.00059520 </v>
     <v>      -0.00012517       0.09747915      -0.00004838 </v>
     <v>      -0.00040176      -0.00005186       0.09801428 </v>
    </varray>
   </crystal>
   <varray name="positions" >
    <v>       0.24963700       0.16875300       0.50940300 </v>
    <v>       0.03820600       0.33386100       0.34632200 </v>
    <v>       0.01243600       0.33106300       0.67141300 </v>
    <v>       0.26590700       0.50170000       0.83361400 </v>
    <v>       0.28333800       0.83773700       0.51849100 </v>
    <v>       0.24669500       0.81908900       0.14568800 </v>
    <v>       0.48494900       0.33181500       0.66671500 </v>
    <v>       0.48856500       0.31693500       0.99355900 </v>
    <v>       0.24625100       0.49571400       0.51630300 </v>
    <v>       0.48455700       0.66835200       0.33202900 </v>
    <v>       0.26251200       0.82684700       0.83787000 </v>
    <v>       0.72041000       0.84236700       0.50718300 </v>
    <v>       0.00097400       0.00122600       0.67081800 </v>
    <v>       0.73031700       0.49933100       0.83485000 </v>
    <v>       0.24673200       0.50622100       0.14704200 </v>
    <v>       0.01864300       0.67728200       0.34199900 </v>
    <v>       0.50713800       0.00569300       0.00199100 </v>
    <v>       0.75244100       0.17175400       0.49910400 </v>
    <v>       0.46509700       0.33555900       0.33289500 </v>
    <v>       0.02104300       0.98993600       0.33560600 </v>
    <v>       0.76880200       0.18226700       0.18364500 </v>
    <v>       0.51127900       0.67492800       0.00543700 </v>
    <v>       0.73760200       0.82120100       0.83432900 </v>
    <v>       0.23121800       0.17275400       0.16488500 </v>
    <v>       0.98947800       0.67335600       0.99805200 </v>
    <v>       0.49537400       0.01105200       0.67597600 </v>
    <v>       0.73513000       0.17838400       0.81801100 </v>
    <v>       0.75690700       0.82311400       0.16265800 </v>
    <v>       0.26166600       0.16613400       0.82280000 </v>
    <v>       0.49558200       0.66038800       0.66603500 </v>
    <v>       0.75528300       0.48863700       0.49689000 </v>
    <v>       0.98847400       0.99843500       0.99788500 </v>
    <v>       0.00871400       0.32428900       0.97887500 </v>
    <v>       0.00045500       0.66881000       0.66496500 </v>
    <v>       0.48297100       0.99825800       0.31947900 </v>
    <v>       0.75520200       0.49677100       0.16717900 </v>
   </varray>
  </structure>
  <varray name="forces" >
   <v>       0.00776491      -0.01551613       0.00407690 </v>
   <v>      -0.02394460      -0.06370965       0.00722223 </v>
   <v>       0.00160871      -0.01279036       0.03310020 </v>
   <v>       0.02134885       0.00892850      -0.00535445 </v>
   <v>       0.15039908      -0.40444681      -0.47471240 </v>
   <v>       0.33666865      -0.17657679       0.44843230 </v>
   <v>       0.00052870      -0.00850177      -0.00078511 </v>
   <v>       0.00296842       0.00976386      -0.01452608 </v>
   <v>       0.25284990       0.28048079      -0.37235447 </v>
   <v>      -0.05754292       0.09683972      -0.03383169 </v>
   <v>       0.02061269       0.00528893      -0.00937784 </v>
   <v>      -0.15625262      -0.24481463      -0.24922183 </v>
   <v>      -0.01514434       0.02786187       0.03333863 </v>
   <v>      -0.00979413      -0.00062417       0.00969819 </v>
   <v>       0.19842992       0.16929689       0.31762614 </v>
   <v>       0.11127605      -0.02082640       0.00345025 </v>
   <v>      -0.02009916      -0.02437545      -0.01276531 </v>
   <v>      -0.00967217      -0.00532574      -0.01608884 </v>
   <v>      -0.00702153       0.10334746       0.01125187 </v>
   <v>      -0.04456911       0.04908848      -0.00339117 </v>
   <v>       0.00735348       0.00855440       0.01431086 </v>
   <v>       0.02947017       0.02793540      -0.06398542 </v>
   <v>      -0.03513596      -0.02042870       0.00689766 </v>
   <v>       0.00495920       0.00741269      -0.02133713 </v>
   <v>      -0.00029181      -0.01205512      -0.00178756 </v>
   <v>       0.00962481       0.03117479       0.01918480 </v>
   <v>      -0.00875100      -0.01346610      -0.00852733 </v>
   <v>      -0.36888021      -0.17556486       0.33027429 </v>
   <v>       0.00078876      -0.02126749       0.01000692 </v>
   <v>       0.01855123      -0.01897404       0.02664340 </v>
   <v>      -0.21379845       0.22958636      -0.11391613 </v>
   <v>       0.00840090      -0.00111811      -0.04386186 </v>
   <v>       0.00474360      -0.03260969      -0.03840203 </v>
   <v>       0.00386998       0.02744694       0.06318515 </v>
   <v>       0.01636354      -0.03439759      -0.03388083 </v>
   <v>      -0.23768358       0.22438252       0.17940768 </v>
  </varray>
  <varray name="stress" >
   <v>      -8.19556474       0.24466848       0.05717904 </v>
   <v>       0.24466844      -7.40911402      -0.76722266 </v>
   <v>       0.05717906      -0.76722266      -7.26046393 </v>
  </varray>
  <energy>
   <i name="e_fr_energy">   -367.93743090 </i>
   <i name="e_wo_entrp">   -367.94060958 </i>
   <i name="e_0_energy">      0.00953605 </i>
  </energy>
  <time name="totalsc">   21.50   23.31</time>
 </calculation>
 <calculation>
  <scstep>
   <time name="dav">    1.10    1.27</time>
   <time name="total">    1.22    1.58</time>
   <energy>
    <i name="alphaZ">   1455.47471278 </i>
    <i name="ewald"> -18011.57484913 </i>
    <i name="hartreedc">  -6563.90431306 </i>
    <i name="XCdc">   -436.95139226 </i>
    <i name="pawpsdc">  32098.19877388 </i>
    <i name="pawaedc"> -30411.14397492 </i>
    <i name="eentropy">      0.01052603 </i>
    <i name="bandstr">  -2340.50895312 </i>
    <i name="atom">  23842.39304984 </i>
    <i name="e_fr_energy">   -368.00641995 </i>
    <i name="e_wo_entrp">   -368.01694598 </i>
    <i name="e_0_energy">   -368.00992863 </i>
   </energy>
  </scstep>
  <scstep>
   <time name="diag">    0.11    0.11</time>
   <time name="diis">    0.68    0.83</time>
   <time name="orth">    0.01    0.01</time>
   <time name="total">    0.91    1.11</time>
   <energy>
    <i name="e_fr_energy">   -367.99265401 </i>
    <i name="e_wo_entrp">   -368.00160317 </i>
    <i name="e_0_energy">   -367.99563706 </i>
   </energy>
  </scstep>
  <scstep>
   <time name="diag">    0.10    0.10</time>
   <time name="diis">    0.88    0.88</time>
   <time name="orth">    0.01    0.01</time>
   <time name="total">    1.05    1.10</time>
   <energy>
    <i name="e_fr_energy">   -367.97884513 </i>
    <i name="e_wo_entrp">   -367.98893740 </i>
    <i name="e_0_energy">   -367.98220922 </i>
   </energy>
  </scstep>
  <scstep>
   <time name="diag">    0.10    0.10</time>
   <time name="diis">    0.87    0.88</time>
   <time name="orth">    0.01    0.01</time>
   <time name="total">    1.05    1.10</time>
   <energy>
    <i name="e_fr_energy">   -367.97363584 </i>
    <i name="e_wo_entrp">   -367.98347760 </i>
    <i name="e_0_energy">   -367.97691643 </i>
   </energy>
  </scstep>
  <scstep>
   <time name="diag">    0.08    0.08</time>
   <time name="diis">    0.82    0.83</time>
   <time name="orth">    0.01    0.01</time>
   <time name="total">    1.00    1.05</time>
   <energy>
    <i name="e_fr_energy">   -367.97297536 </i>
    <i name="e_wo_entrp">   -367.98279378 </i>
    <i name="e_0_energy">   -367.97624817 </i>
   </energy>
  </scstep>
  <scstep>
   <time name="diag">    0.11    0.11</time>
   <time name="diis">    0.80    0.81</time>
   <time name="orth">    0.01    0.01</time>
   <time name="total">    0.99    1.04</time>
   <energy>
    <i name="e_fr_energy">   -367.97315380 </i>
    <i name="e_wo_entrp">   -367.98292235 </i>
    <i name="e_0_energy">   -367.97640998 </i>
   </energy>
  </scstep>
  <scstep>
   <time name="diag">    0.07    0.07</time>
   <time name="diis">    0.76    0.77</time>
   <time name="orth">    0.01    0.01</time>
   <time name="total">    0.91    0.96</time>
   <energy>
    <i name="e_fr_energy">   -367.97322049 </i>
    <i name="e_wo_entrp">   -367.98303942 </i>
    <i name="e_0_energy">   -367.97649346 </i>
   </energy>
  </scstep>
  <scstep>
   <time name="diag">    0.07    0.07</time>
   <time name="diis">    0.71    0.72</time>
   <time name="orth">    0.01    0.01</time>
   <time name="total">    0.86    0.91</time>
   <energy>
    <i name="e_fr_energy">   -367.97328958 </i>
    <i name="e_wo_entrp">   -367.98311464 </i>
    <i name="e_0_energy">   -367.97656460 </i>
   </energy>
  </scstep>
  <scstep>
   <time name="diag">    0.07    0.07</time>
   <time name="diis">    0.66    0.66</time>
   <time name="orth">    0.01    0.01</time>
   <time name="total">    0.84    0.88</time>
   <energy>
    <i name="e_fr_energy">   -367.97333825 </i>
    <i name="e_wo_entrp">   -367.98314587 </i>
    <i name="e_0_energy">   -367.97660745 </i>
   </energy>
  </scstep>
  <scstep>
   <time name="diag">    0.10    0.10</time>
   <time name="diis">    0.51    0.51</time>
   <time name="orth">    0.01    0.01</time>
   <time name="total">    0.69    0.73</time>
   <energy>
    <i name="e_fr_energy">   -367.97338860 </i>
    <i name="e_wo_entrp">   -367.98321064 </i>
    <i name="e_0_energy">   -367.97666262 </i>
   </energy>
  </scstep>
  <scstep>
   <time name="diag">    0.07    0.07</time>
   <time name="diis">    0.45    0.46</time>
   <time name="orth">    0.01    0.01</time>
   <time name="total">    0.60    0.64</time>
   <energy>
    <i name="e_fr_energy">   -367.97340219 </i>
    <i name="e_wo_entrp">   -367.98321257 </i>
    <i name="e_0_energy">   -367.97667232 </i>
   </energy>
  </scstep>
  <scstep>
   <time name="diag">    0.07    0.08</time>
   <time name="diis">    0.38    0.38</time>
   <time name="orth">    0.01    0.01</time>
   <time name="total">    0.50    0.54</time>
   <energy>
    <i name="alphaZ">   1455.47471278 </i>
    <i name="ewald"> -18011.57484913 </i>
    <i name="hartreedc">  -6547.84947715 </i>
    <i name="XCdc">   -437.61448598 </i>
    <i name="pawpsdc">  32265.96254529 </i>
    <i name="pawaedc"> -30578.69696579 </i>
    <i name="eentropy">      0.00981810 </i>
    <i name="bandstr">  -2356.07775215 </i>
    <i name="atom">  23842.39304984 </i>
    <i name="e_fr_energy">   -367.97340419 </i>
    <i name="e_wo_entrp">   -367.98322229 </i>
    <i name="e_0_energy">   -367.97667689 </i>
   </energy>
  </scstep>
  <structure>
   <crystal>
    <varray name="basis" >
     <v>       6.91668953       0.00920147       0.02843175 </v>
     <v>       0.01376058      10.24479657       0.00404321 </v>
     <v>       0.04211504       0.00368893      10.18929356 </v>
    </varray>
    <i name="volume">    722.00047022 </i>
    <varray name="rec_basis" >
     <v>       0.14458055      -0.00019396      -0.00059752 </v>
     <v>      -0.00012971       0.09761072      -0.00003480 </v>
     <v>      -0.00040338      -0.00003819       0.09814391 </v>
    </varray>
   </crystal>
   <varray name="positions" >
    <v>       0.24965323       0.16873109       0.50940875 </v>
    <v>       0.03815608       0.33377116       0.34633243 </v>
    <v>       0.01243911       0.33104493       0.67145995 </v>
    <v>       0.26595163       0.50171256       0.83360627 </v>
    <v>       0.28365742       0.83716647       0.51781703 </v>
    <v>       0.24739504       0.81883896       0.14632229 </v>
    <v>       0.48495013       0.33180301       0.66671389 </v>
    <v>       0.48857130       0.31694878       0.99353837 </v>
    <v>       0.24678174       0.49610950       0.51577312 </v>
    <v>       0.48443680       0.66848875       0.33198127 </v>
    <v>       0.26255513       0.82685443       0.83785657 </v>
    <v>       0.72008634       0.84202207       0.50683056 </v>
    <v>       0.00094200       0.00126531       0.67086536 </v>
    <v>       0.73029645       0.49933013       0.83486381 </v>
    <v>       0.24714340       0.50645926       0.14749128 </v>
    <v>       0.01887552       0.67725241       0.34200326 </v>
    <v>       0.50709618       0.00565866       0.00197303 </v>
    <v>       0.75242094       0.17174652       0.49908124 </v>
    <v>       0.46508195       0.33570481       0.33291092 </v>
    <v>       0.02094978       0.99000534       0.33560141 </v>
    <v>       0.76881722       0.18227905       0.18366525 </v>
    <v>       0.51134105       0.67496740       0.00534604 </v>
    <v>       0.73752858       0.82117224       0.83433900 </v>
    <v>       0.23122853       0.17276446       0.16485470 </v>
    <v>       0.98947744       0.67333899       0.99804948 </v>
    <v>       0.49539386       0.01109595       0.67600314 </v>
    <v>       0.73511183       0.17836502       0.81799896 </v>
    <v>       0.75613391       0.82286675       0.16312878 </v>
    <v>       0.26166762       0.16610399       0.82281421 </v>
    <v>       0.49562058       0.66036118       0.66607270 </v>
    <v>       0.75483666       0.48896137       0.49672948 </v>
    <v>       0.98849193       0.99843344       0.99782273 </v>
    <v>       0.00872433       0.32424301       0.97882052 </v>
    <v>       0.00046247       0.66884867       0.66505459 </v>
    <v>       0.48300557       0.99820947       0.31943087 </v>
    <v>       0.75470324       0.49708786       0.16743471 </v>
   </varray>
  </structure>
  <varray name="forces" >
   <v>       0.00787254      -0.02139537       0.00164712 </v>
   <v>      -0.04072845      -0.04616264       0.00502882 </v>
   <v>      -0.00641840       0.00387905       0.01174593 </v>
   <v>       0.00517831       0.01388763       0.00370384 </v>
   <v>       0.11194133      -0.36605981      -0.43546276 </v>
   <v>       0.31272024      -0.14099264       0.41257887 </v>
   <v>       0.01077546       0.00319863      -0.01410639 </v>
   <v>       0.01061022       0.02507311       0.00200608 </v>
   <v>       0.23464270       0.26688084      -0.33480700 </v>
   <v>      -0.04721817       0.07298081      -0.03071625 </v>
   <v>       0.01248974       0.01080538      -0.00934058 </v>
   <v>      -0.11717850      -0.22351523      -0.23182618 </v>
   <v>      -0.02079239       0.00876905       0.01535962 </v>
   <v>       0.00720929      -0.00430208       0.00976774 </v>
   <v>       0.17068265       0.14236468       0.28480535 </v>
   <v>       0.08531553      -0.01682559       0.00763372 </v>
   <v>      -0.02037437      -0.02486500      -0.00505315 </v>
   <v>      -0.01125733      -0.00757102      -0.01630195 </v>
   <v>       0.00861003       0.08548425       0.00614030 </v>
   <v>      -0.04955431       0.04200069       0.00178980 </v>
   <v>       0.00172151       0.00884774       0.00747037 </v>
   <v>       0.02394842       0.01526330      -0.06168702 </v>
   <v>      -0.01968251      -0.00175587       0.00621584 </v>
   <v>       0.00368500      -0.00589055      -0.03249242 </v>
   <v>       0.00511001      -0.02055091       0.01507502 </v>
   <v>       0.01596269       0.01710318       0.00372187 </v>
   <v>       0.00966562      -0.02547067       0.00252933 </v>
   <v>      -0.34088174      -0.14227392       0.30520285 </v>
   <v>      -0.01472965      -0.03172735       0.01868682 </v>
   <v>       0.02398054      -0.02592369       0.02167825 </v>
   <v>      -0.19667777       0.21520703      -0.09768929 </v>
   <v>       0.00851352      -0.01517586      -0.02915486 </v>
   <v>      -0.00195940      -0.01239308      -0.01477907 </v>
   <v>       0.00175109       0.02238664       0.05291872 </v>
   <v>       0.02404648      -0.01837822      -0.03511065 </v>
   <v>      -0.20897993       0.19709751       0.15282132 </v>
  </varray>
  <varray name="stress" >
   <v>      -2.36617169       0.19571785       0.05754796 </v>
   <v>       0.19571789      -1.64814860      -0.63823006 </v>
   <v>       0.05754797      -0.63823003      -1.50599908 </v>
  </varray>
  <energy>
   <i name="e_fr_energy">   -367.97340419 </i>
   <i name="e_wo_entrp">   -367.97667689 </i>
   <i name="e_0_energy">      0.00981810 </i>
  </energy>
  <time name="totalsc">   12.18   13.38</time>
 </calculation>
 <calculation>
  <scstep>
   <time name="dav">    1.05    1.07</time>
   <time name="total">    1.16    1.36</time>
   <energy>
    <i name="alphaZ">   1468.34867525 </i>
    <i name="ewald"> -18069.29845969 </i>
    <i name="hartreedc">  -6562.52015702 </i>
    <i name="XCdc">   -435.26190265 </i>
    <i name="pawpsdc">  32265.90623165 </i>
    <i name="pawaedc"> -30578.62363577 </i>
    <i name="eentropy">      0.01175085 </i>
    <i name="bandstr">  -2299.10761871 </i>
    <i name="atom">  23842.39304984 </i>
    <i name="e_fr_energy">   -368.15206625 </i>
    <i name="e_wo_entrp">   -368.16381711 </i>
    <i name="e_0_energy">   -368.15598321 </i>
   </energy>
  </scstep>
  <scstep>
   <time name="diag">    0.08    0.08</time>
   <time name="diis">    0.81    0.81</time>
   <time name="orth">    0.01    0.01</time>
   <time name="total">    0.96    1.01</time>
   <energy>
    <i name="e_fr_energy">   -368.08804322 </i>
    <i name="e_wo_entrp">   -368.09654009 </i>
    <i name="e_0_energy">   -368.09087551 </i>
   </energy>
  </scstep>
  <scstep>
   <time name="diag">    0.12    0.13</time>
   <time name="diis">    0.79    0.79</time>
   <time name="orth">    0.01    0.01</time>
   <time name="total">    0.99    1.03</time>
   <energy>
    <i name="e_fr_energy">   -368.02811402 </i>
    <i name="e_wo_entrp">   -368.03869606 </i>
    <i name="e_0_energy">   -368.03164137 </i>
   </energy>
  </scstep>
  <scstep>
   <time name="diag">    0.08    0.08</time>
   <time name="diis">    0.75    0.80</time>
   <time name="orth">    0.01    0.01</time>
   <time name="total">    0.92    1.04</time>
   <energy>
    <i name="e_fr_energy">   -368.00446243 </i>
    <i name="e_wo_entrp">   -368.01454928 </i>
    <i name="e_0_energy">   -368.00782471 </i>
   </energy>
  </scstep>
  <scstep>
   <time name="diag">    0.09    0.09</time>
   <time name="diis">    0.79    0.79</time>
   <time name="orth">    0.01    0.01</time>
   <time name="total">    0.96    1.00</time>
   <energy>
    <i name="e_fr_energy">   -368.00155999 </i>
    <i name="e_wo_entrp">   -368.01156394 </i>
    <i name="e_0_energy">   -368.00489464 </i>
   </energy>
  </scstep>
  <scstep>
   <time name="diag">    0.07    0.07</time>
   <time name="diis">    0.83    0.85</time>
   <time name="orth">    0.01    0.01</time>
   <time name="total">    0.98    1.04</time>
   <energy>
    <i name="e_fr_energy">   -368.00226383 </i>
    <i name="e_wo_entrp">   -368.01221161 </i>
    <i name="e_0_energy">   -368.00557976 </i>
   </energy>
  </scstep>
  <scstep>
   <time name="diag">    0.08    0.08</time>
   <time name="diis">    0.85    0.85</time>
   <time name="orth">    0.01    0.01</time>
   <time name="total">    1.01    1.07</time>
   <energy>
    <i name="e_fr_energy">   -368.00258794 </i>
    <i name="e_wo_entrp">   -368.01261792 </i>
    <i name="e_0_energy">   -368.00593127 </i>
   </energy>
  </scstep>
  <scstep>
   <time name="diag">    0.16    0.16</time>
   <time name="diis">    0.83    0.90</time>
   <time name="orth">    0.01    0.01</time>
   <time name="total">    1.06    1.23</time>
   <energy>
    <i name="e_fr_energy">   -368.00282798 </i>
    <i name="e_wo_entrp">   -368.01285806 </i>
    <i name="e_0_energy">   -368.00617134 </i>
   </energy>
  </scstep>
  <scstep>
   <time name="diag">    0.08    0.08</time>
   <time name="diis">    0.76    0.77</time>
   <time name="orth">    0.01    0.01</time>
   <time name="total">    0.92    0.97</time>
   <energy>
    <i name="e_fr_energy">   -368.00300788 </i>
    <i name="e_wo_entrp">   -368.01301135 </i>
    <i name="e_0_energy">   -368.00634237 </i>
   </energy>
  </scstep>
  <scstep>
   <time name="diag">    0.07    0.08</time>
   <time name="diis">    0.73    0.74</time>
   <time name="orth">    0.01    0.01</time>
   <time name="total">    0.91    0.96</time>
   <energy>
    <i name="e_fr_energy">   -368.00319309 </i>
    <i name="e_wo_entrp">   -368.01321946 </i>
    <i name="e_0_energy">   -368.00653521 </i>
   </energy>
  </scstep>
  <scstep>
   <time name="diag">    0.12    0.12</time>
   <time name="diis">    0.63    0.63</time>
   <time name="orth">    0.01    0.01</time>
   <time name="total">    0.82    0.87</time>
   <energy>
    <i name="e_fr_energy">   -368.00323488 </i>
    <i name="e_wo_entrp">   -368.01323800 </i>
    <i name="e_0_energy">   -368.00656926 </i>
   </energy>
  </scstep>
  <scstep>
   <time name="diag">    0.07    0.07</time>
   <time name="diis">    0.60    0.60</time>
   <time name="orth">    0.01    0.01</time>
   <time name="total">    0.72    0.76</time>
   <energy>
    <i name="alphaZ">   1468.34867525 </i>
    <i name="ewald"> -18069.29845969 </i>
    <i name="hartreedc">  -6528.72287766 </i>
    <i name="XCdc">   -436.65817666 </i>
    <i name="pawpsdc">  32631.60399863 </i>
    <i name="pawaedc"> -30943.77123707 </i>
    <i name="eentropy">      0.01002020 </i>
    <i name="bandstr">  -2331.90823442 </i>
    <i name="atom">  23842.39304984 </i>
    <i name="e_fr_energy">   -368.00324158 </i>
    <i name="e_wo_entrp">   -368.01326179 </i>
    <i name="e_0_energy">   -368.00658165 </i>
   </energy>
  </scstep>
  <structure>
   <crystal>
    <varray name="basis" >
     <v>       6.89488919       0.00981862       0.02850205 </v>
     <v>       0.01468268      10.21560698       0.00100564 </v>
     <v>       0.04220714       0.00067220      10.16084511 </v>
    </varray>
    <i name="volume">    715.67022515 </i>
    <varray name="rec_basis" >
     <v>       0.14503775      -0.00020840      -0.00060246 </v>
     <v>      -0.00013937       0.09788964      -0.00000590 </v>
     <v>      -0.00040683      -0.00000910       0.09841870 </v>
    </varray>
   </crystal>
   <varray name="positions" >
    <v>       0.24968755       0.16868479       0.50942090 </v>
    <v>       0.03805056       0.33358125       0.34635446 </v>
    <v>       0.01244569       0.33100674       0.67155920 </v>
    <v>       0.26604597       0.50173911       0.83358995 </v>
    <v>       0.28433283       0.83596025       0.51639224 </v>
    <v>       0.24887502       0.81831057       0.14766296 </v>
    <v>       0.48495253       0.33177765       0.66671154 </v>
    <v>       0.48858462       0.31697790       0.99349477 </v>
    <v>       0.24790376       0.49694534       0.51465319 </v>
    <v>       0.48418267       0.66877781       0.33188042 </v>
    <v>       0.26264632       0.82687013       0.83782819 </v>
    <v>       0.71940215       0.84129288       0.50608549 </v>
    <v>       0.00087433       0.00134842       0.67096548 </v>
    <v>       0.73025302       0.49932830       0.83489302 </v>
    <v>       0.24801310       0.50696301       0.14844103 </v>
    <v>       0.01936711       0.67718986       0.34201226 </v>
    <v>       0.50700778       0.00558606       0.00193503 </v>
    <v>       0.75237855       0.17173069       0.49903312 </v>
    <v>       0.46505012       0.33601302       0.33294463 </v>
    <v>       0.02075268       0.99015191       0.33559174 </v>
    <v>       0.76884939       0.18230451       0.18370806 </v>
    <v>       0.51147223       0.67505066       0.00515379 </v>
    <v>       0.73737338       0.82111145       0.83436014 </v>
    <v>       0.23125078       0.17278657       0.16479065 </v>
    <v>       0.98947625       0.67330305       0.99804413 </v>
    <v>       0.49543584       0.01118886       0.67606050 </v>
    <v>       0.73507341       0.17832491       0.81797352 </v>
    <v>       0.75449951       0.82234430       0.16412385 </v>
    <v>       0.26167105       0.16604055       0.82284423 </v>
    <v>       0.49570215       0.66030449       0.66615238 </v>
    <v>       0.75389299       0.48964700       0.49639027 </v>
    <v>       0.98852985       0.99843012       0.99769111 </v>
    <v>       0.00874618       0.32414579       0.97870535 </v>
    <v>       0.00047825       0.66893044       0.66524397 </v>
    <v>       0.48307868       0.99810686       0.31932912 </v>
    <v>       0.75364874       0.49775776       0.16797533 </v>
   </varray>
  </structure>
  <varray name="forces" >
   <v>       0.00776123      -0.03477545      -0.00434853 </v>
   <v>      -0.07686991      -0.00856693      -0.00069971 </v>
   <v>      -0.02394389       0.03804786      -0.03394616 </v>
   <v>      -0.02988320       0.02435574       0.02348707 </v>
   <v>       0.02616128      -0.27955630      -0.34659408 </v>
   <v>       0.25799582      -0.06163715       0.33284934 </v>
   <v>       0.03288645       0.02812503      -0.04188977 </v>
   <v>       0.02634563       0.05788990       0.03806756 </v>
   <v>       0.19594265       0.23634183      -0.25296462 </v>
   <v>      -0.02010738       0.01588205      -0.02375741 </v>
   <v>      -0.00472596       0.02210141      -0.01093694 </v>
   <v>      -0.03091197      -0.17530009      -0.19351909 </v>
   <v>      -0.03307851      -0.03151999      -0.02386730 </v>
   <v>       0.04416502      -0.01221636       0.00943833 </v>
   <v>       0.10991622       0.08256775       0.21182419 </v>
   <v>       0.02579939      -0.00926057       0.01530584 </v>
   <v>      -0.02080999      -0.02529741       0.01197230 </v>
   <v>      -0.01558492      -0.01325620      -0.01561250 </v>
   <v>       0.04269564       0.04456253      -0.00669631 </v>
   <v>      -0.06033154       0.02621226       0.01323954 </v>
   <v>      -0.01077514       0.00862361      -0.00672529 </v>
   <v>       0.01074870      -0.01269614      -0.05825586 </v>
   <v>       0.01284785       0.03810813       0.00495254 </v>
   <v>       0.00020343      -0.03346149      -0.05625761 </v>
   <v>       0.01669455      -0.03787805       0.05170680 </v>
   <v>       0.02924167      -0.01453657      -0.02986445 </v>
   <v>       0.04867051      -0.05090446       0.02475599 </v>
   <v>      -0.27670549      -0.07199277       0.24943575 </v>
   <v>      -0.04795124      -0.05310491       0.03790656 </v>
   <v>       0.03423101      -0.03911638       0.01386767 </v>
   <v>      -0.15887845       0.18487724      -0.06143270 </v>
   <v>       0.00938481      -0.04476389       0.00174958 </v>
   <v>      -0.01490530       0.03096761       0.03667828 </v>
   <v>      -0.00142073       0.01237652       0.03105982 </v>
   <v>       0.04125021       0.01922283      -0.03598372 </v>
   <v>      -0.14605848       0.13957882       0.09505488 </v>
  </varray>
  <varray name="stress" >
   <v>      10.35499980       0.09653054       0.06631642 </v>
   <v>       0.09653058      10.91004556      -0.34294365 </v>
   <v>       0.06631645      -0.34294367      11.02257171 </v>
  </varray>
  <energy>
   <i name="e_fr_energy">   -368.00324158 </i>
   <i name="e_wo_entrp">   -368.00658165 </i>
   <i name="e_0_energy">      0.01002020 </i>
  </energy>
  <time name="totalsc">   13.09   14.18</time>
 </calculation>
 <calculation>
  <scstep>
   <time name="dav">    0.91    0.92</time>
   <time name="total">    1.00    1.21</time>
   <energy>
    <i name="alphaZ">   1466.66398350 </i>
    <i name="ewald"> -18065.80638526 </i>
    <i name="hartreedc">  -6523.02897682 </i>
    <i name="XCdc">   -436.97636881 </i>
    <i name="pawpsdc">  32632.13782419 </i>
    <i name="pawaedc"> -30944.24546306 </i>
    <i name="eentropy">      0.01012662 </i>
    <i name="bandstr">  -2339.17765840 </i>
    <i name="atom">  23842.39304984 </i>
    <i name="e_fr_energy">   -368.02986821 </i>
    <i name="e_wo_entrp">   -368.03999483 </i>
    <i name="e_0_energy">   -368.03324375 </i>
   </energy>
  </scstep>
  <scstep>
   <time name="diag">    0.07    0.07</time>
   <time name="diis">    0.76    0.76</time>
   <time name="orth">    0.01    0.01</time>
   <time name="total">    0.91    0.95</time>
   <energy>
    <i name="e_fr_energy">   -368.03317148 </i>
    <i name="e_wo_entrp">   -368.04339503 </i>
    <i name="e_0_energy">   -368.03657933 </i>
   </energy>
  </scstep>
  <scstep>
   <time name="diag">    0.07    0.08</time>
   <time name="diis">    0.77    0.77</time>
   <time name="orth">    0.01    0.01</time>
   <time name="total">    0.91    0.99</time>
   <energy>
    <i name="e_fr_energy">   -368.03132055 </i>
    <i name="e_wo_entrp">   -368.04156946 </i>
    <i name="e_0_energy">   -368.03473686 </i>
   </energy>
  </scstep>
  <scstep>
   <time name="diag">    0.07    0.07</time>
   <time name="diis">    0.79    0.79</time>
   <time name="orth">    0.01    0.01</time>
   <time name="total">    0.93    0.97</time>
   <energy>
    <i name="e_fr_energy">   -368.03080316 </i>
    <i name="e_wo_entrp">   -368.04090189 </i>
    <i name="e_0_energy">   -368.03416940 </i>
   </energy>
  </scstep>
  <scstep>
   <time name="diag">    0.07    0.07</time>
   <time name="diis">    0.78    0.79</time>
   <time name="orth">    0.01    0.01</time>
   <time name="total">    0.93    0.98</time>
   <energy>
    <i name="e_fr_energy">   -368.03066546 </i>
    <i name="e_wo_entrp">   -368.04081893 </i>
    <i name="e_0_energy">   -368.03404995 </i>
   </energy>
  </scstep>
  <scstep>
   <time name="diag">    0.07    0.07</time>
   <time name="diis">    0.78    0.78</time>
   <time name="orth">    0.01    0.01</time>
   <time name="total">    0.93    0.98</time>
   <energy>
    <i name="e_fr_energy">   -368.03063658 </i>
    <i name="e_wo_entrp">   -368.04077091 </i>
    <i name="e_0_energy">   -368.03401469 </i>
   </energy>
  </scstep>
  <scstep>
   <time name="diag">    0.07    0.07</time>
   <time name="diis">    0.74    0.74</time>
   <time name="orth">    0.01    0.01</time>
   <time name="total">    0.89    0.94</time>
   <energy>
    <i name="e_fr_energy">   -368.03063299 </i>
    <i name="e_wo_entrp">   -368.04074148 </i>
    <i name="e_0_energy">   -368.03400249 </i>
   </energy>
  </scstep>
  <scstep>
   <time name="diag">    0.07    0.08</time>
   <time name="diis">    0.53    0.53</time>
   <time name="orth">    0.02    0.02</time>
   <time name="total">    0.65    0.69</time>
   <energy>
    <i name="alphaZ">   1466.66398350 </i>
    <i name="ewald"> -18065.80638526 </i>
    <i name="hartreedc">  -6527.28461065 </i>
    <i name="XCdc">   -436.79501836 </i>
    <i name="pawpsdc">  32578.51848627 </i>
    <i name="pawaedc"> -30890.50212781 </i>
    <i name="eentropy">      0.01013078 </i>
    <i name="bandstr">  -2335.22813721 </i>
    <i name="atom">  23842.39304984 </i>
    <i name="e_fr_energy">   -368.03062889 </i>
    <i name="e_wo_entrp">   -368.04075967 </i>
    <i name="e_0_energy">   -368.03400581 </i>
   </energy>
  </scstep>
  <structure>
   <crystal>
    <varray name="basis" >
     <v>       6.89664305       0.01012769       0.02862504 </v>
     <v>       0.01514424      10.21999930      -0.00048237 </v>
     <v>       0.04238176      -0.00080635      10.16556133 </v>
    </varray>
    <i name="volume">    716.49228374 </i>
    <varray name="rec_basis" >
     <v>       0.14500090      -0.00021489      -0.00060455 </v>
     <v>      -0.00014372       0.09784758       0.00000836 </v>
     <v>      -0.00040831       0.00000525       0.09837305 </v>
    </varray>
   </crystal>
   <varray name="positions" >
    <v>       0.24971122       0.16863335       0.50942060 </v>
    <v>       0.03789808       0.33350708       0.34636165 </v>
    <v>       0.01241193       0.33103239       0.67155877 </v>
    <v>       0.26603323       0.50177313       0.83360850 </v>
    <v>       0.28460842       0.83525874       0.51554504 </v>
    <v>       0.24977375       0.81806505       0.14846567 </v>
    <v>       0.48500323       0.33179752       0.66666766 </v>
    <v>       0.48862864       0.31704691       0.99351861 </v>
    <v>       0.24858815       0.49747435       0.51400660 </v>
    <v>       0.48406465       0.66889381       0.33182138 </v>
    <v>       0.26267070       0.82689808       0.83780721 </v>
    <v>       0.71912083       0.84086248       0.50563007 </v>
    <v>       0.00080122       0.00134505       0.67097574 </v>
    <v>       0.73030468       0.49931515       0.83491258 </v>
    <v>       0.24847786       0.50722097       0.14898551 </v>
    <v>       0.01957575       0.67715878       0.34203093 </v>
    <v>       0.50694581       0.00553524       0.00193426 </v>
    <v>       0.75234050       0.17171173       0.49900058 </v>
    <v>       0.46510353       0.33616479       0.33294925 </v>
    <v>       0.02059336       0.99022931       0.33560223 </v>
    <v>       0.76884425       0.18232211       0.18371600 </v>
    <v>       0.51153415       0.67506643       0.00502769 </v>
    <v>       0.73733907       0.82112929       0.83437245 </v>
    <v>       0.23125919       0.17276010       0.16471090 </v>
    <v>       0.98950081       0.67325201       0.99809520 </v>
    <v>       0.49549471       0.01120608       0.67604960 </v>
    <v>       0.73513359       0.17825911       0.81798990 </v>
    <v>       0.75351587       0.82209108       0.16472407 </v>
    <v>       0.26159970       0.16596460       0.82289363 </v>
    <v>       0.49578201       0.66024501       0.66619395 </v>
    <v>       0.75332716       0.49007234       0.49621096 </v>
    <v>       0.98855720       0.99838332       0.99764743 </v>
    <v>       0.00873092       0.32414379       0.97870323 </v>
    <v>       0.00048132       0.66897130       0.66534118 </v>
    <v>       0.48316640       0.99809096       0.31925693 </v>
    <v>       0.75306310       0.49813156       0.16826003 </v>
   </varray>
  </structure>
  <varray name="forces" >
   <v>       0.00290307      -0.01545060       0.00533928 </v>
   <v>      -0.05982101      -0.00280058       0.00728982 </v>
   <v>      -0.01051795       0.04183398      -0.05112774 </v>
   <v>      -0.02719600       0.01919477       0.02497892 </v>
   <v>       0.01250612      -0.23260619      -0.28423682 </v>
   <v>       0.22444567      -0.04770005       0.26867598 </v>
   <v>       0.01996957       0.02848825      -0.04143565 </v>
   <v>       0.01798655       0.05536277       0.03651025 </v>
   <v>       0.16909452       0.19231083      -0.20047011 </v>
   <v>      -0.01887445       0.00069168      -0.01942905 </v>
   <v>      -0.00214505       0.01917140      -0.00692811 </v>
   <v>      -0.01462690      -0.14842590      -0.16302730 </v>
   <v>      -0.03018762      -0.04462588      -0.04333921 </v>
   <v>       0.04561072      -0.01675601       0.00750952 </v>
   <v>       0.08121932       0.05923067       0.16413709 </v>
   <v>       0.01021840       0.00404753       0.01508230 </v>
   <v>      -0.02176312      -0.02561958       0.01471413 </v>
   <v>      -0.01317920      -0.00396727      -0.00590730 </v>
   <v>       0.02908277       0.01391564      -0.00602411 </v>
   <v>      -0.05069602       0.01834558       0.01437912 </v>
   <v>      -0.00572957       0.01717489      -0.01004600 </v>
   <v>       0.00271880      -0.00660186      -0.05163439 </v>
   <v>       0.01836419       0.03710001       0.01166334 </v>
   <v>      -0.00934203      -0.02523719      -0.05653279 </v>
   <v>       0.02053796      -0.02267347       0.07511645 </v>
   <v>       0.02245142      -0.02180591      -0.04180409 </v>
   <v>       0.04649125      -0.04052953       0.02077966 </v>
   <v>      -0.23745192      -0.05495074       0.20322095 </v>
   <v>      -0.04077598      -0.04860355       0.02470718 </v>
   <v>       0.02286277      -0.03967323       0.01120343 </v>
   <v>      -0.13305642       0.15590627      -0.03698633 </v>
   <v>       0.00960858      -0.06236271       0.02028350 </v>
   <v>      -0.00838069       0.04435671       0.04488801 </v>
   <v>       0.00693200       0.01101645       0.02027426 </v>
   <v>       0.03449718       0.03121457      -0.03370309 </v>
   <v>      -0.11375692       0.11102824       0.06187892 </v>
  </varray>
  <varray name="stress" >
   <v>       8.91330795       0.06756022       0.02662929 </v>
   <v>       0.06756028       9.24938203      -0.21967410 </v>
   <v>       0.02662925      -0.21967412       9.30366988 </v>
  </varray>
  <energy>
   <i name="e_fr_energy">   -368.03062889 </i>
   <i name="e_wo_entrp">   -368.03400581 </i>
   <i name="e_0_energy">      0.01013078 </i>
  </energy>
  <time name="totalsc">    8.78    9.55</time>
 </calculation>
 <calculation>
  <scstep>
   <time name="dav">    0.87    0.89</time>
   <time name="total">    0.98    1.16</time>
   <energy>
    <i name="alphaZ">   1461.62597827 </i>
    <i name="ewald"> -18054.40314787 </i>
    <i name="hartreedc">  -6510.79768493 </i>
    <i name="XCdc">   -437.75557680 </i>
    <i name="pawpsdc">  32578.62705578 </i>
    <i name="pawaedc"> -30890.65328985 </i>
    <i name="eentropy">      0.01016018 </i>
    <i name="bandstr">  -2357.11846420 </i>
    <i name="atom">  23842.39304984 </i>
    <i name="e_fr_energy">   -368.07191958 </i>
    <i name="e_wo_entrp">   -368.08207976 </i>
    <i name="e_0_energy">   -368.07530630 </i>
   </energy>
  </scstep>
  <scstep>
   <time name="diag">    0.07    0.07</time>
   <time name="diis">    0.75    0.76</time>
   <time name="orth">    0.01    0.01</time>
   <time name="total">    0.90    0.94</time>
   <energy>
    <i name="e_fr_energy">   -368.09989955 </i>
    <i name="e_wo_entrp">   -368.11070762 </i>
    <i name="e_0_energy">   -368.10350224 </i>
   </energy>
  </scstep>
  <scstep>
   <time name="diag">    0.07    0.07</time>
   <time name="diis">    0.76    0.77</time>
   <time name="orth">    0.01    0.01</time>
   <time name="total">    0.91    0.95</time>
   <energy>
    <i name="e_fr_energy">   -368.08617439 </i>
    <i name="e_wo_entrp">   -368.09660190 </i>
    <i name="e_0_energy">   -368.08965022 </i>
   </energy>
  </scstep>
  <scstep>
   <time name="diag">    0.07    0.07</time>
   <time name="diis">    0.79    0.79</time>
   <time name="orth">    0.01    0.01</time>
   <time name="total">    0.96    1.01</time>
   <energy>
    <i name="e_fr_energy">   -368.08149751 </i>
    <i name="e_wo_entrp">   -368.09173833 </i>
    <i name="e_0_energy">   -368.08491112 </i>
   </energy>
  </scstep>
  <scstep>
   <time name="diag">    0.07    0.07</time>
   <time name="diis">    0.78    0.79</time>
   <time name="orth">    0.01    0.01</time>
   <time name="total">    0.93    0.98</time>
   <energy>
    <i name="e_fr_energy">   -368.08039478 </i>
    <i name="e_wo_entrp">   -368.09072316 </i>
    <i name="e_0_energy">   -368.08383758 </i>
   </energy>
  </scstep>
  <scstep>
   <time name="diag">    0.08    0.08</time>
   <time name="diis">    0.81    0.82</time>
   <time name="orth">    0.01    0.01</time>
   <time name="total">    0.96    1.01</time>
   <energy>
    <i name="e_fr_energy">   -368.08018226 </i>
    <i name="e_wo_entrp">   -368.09044680 </i>
    <i name="e_0_energy">   -368.08360377 </i>
   </energy>
  </scstep>
  <scstep>
   <time name="diag">    0.07    0.07</time>
   <time name="diis">    0.86    0.87</time>
   <time name="orth">    0.01    0.01</time>
   <time name="total">    1.03    1.07</time>
   <energy>
    <i name="e_fr_energy">   -368.08019986 </i>
    <i name="e_wo_entrp">   -368.09040900 </i>
    <i name="e_0_energy">   -368.08360291 </i>
   </energy>
  </scstep>
  <scstep>
   <time name="diag">    0.09    0.09</time>
   <time name="diis">    0.74    0.75</time>
   <time name="orth">    0.01    0.01</time>
   <time name="total">    0.91    0.96</time>
   <energy>
    <i name="e_fr_energy">   -368.08020882 </i>
    <i name="e_wo_entrp">   -368.09047826 </i>
    <i name="e_0_energy">   -368.08363197 </i>
   </energy>
  </scstep>
  <scstep>
   <time name="diag">    0.10    0.11</time>
   <time name="diis">    0.75    0.75</time>
   <time name="orth">    0.01    0.01</time>
   <time name="total">    0.92    1.01</time>
   <energy>
    <i name="e_fr_energy">   -368.08021884 </i>
    <i name="e_wo_entrp">   -368.09045420 </i>
    <i name="e_0_energy">   -368.08363062 </i>
   </energy>
  </scstep>
  <scstep>
   <time name="diag">    0.07    0.07</time>
   <time name="diis">    0.58    0.59</time>
   <time name="orth">    0.01    0.01</time>
   <time name="total">    0.73    0.77</time>
   <energy>
    <i name="e_fr_energy">   -368.08021933 </i>
    <i name="e_wo_entrp">   -368.09046988 </i>
    <i name="e_0_energy">   -368.08363618 </i>
   </energy>
  </scstep>
  <scstep>
   <time name="diag">    0.08    0.08</time>
   <time name="diis">    0.50    0.51</time>
   <time name="orth">    0.01    0.01</time>
   <time name="total">    0.64    0.70</time>
   <energy>
    <i name="alphaZ">   1461.62597827 </i>
    <i name="ewald"> -18054.40314787 </i>
    <i name="hartreedc">  -6523.02225807 </i>
    <i name="XCdc">   -437.23423773 </i>
    <i name="pawpsdc">  32418.69777995 </i>
    <i name="pawaedc"> -30731.02562027 </i>
    <i name="eentropy">      0.01024729 </i>
    <i name="bandstr">  -2345.12201068 </i>
    <i name="atom">  23842.39304984 </i>
    <i name="e_fr_energy">   -368.08021926 </i>
    <i name="e_wo_entrp">   -368.09046655 </i>
    <i name="e_0_energy">   -368.08363503 </i>
   </energy>
  </scstep>
  <structure>
   <crystal>
    <varray name="basis" >
     <v>       6.90190464       0.01105487       0.02899399 </v>
     <v>       0.01652893      10.23317626      -0.00494638 </v>
     <v>       0.04290560      -0.00524199      10.17971001 </v>
    </varray>
    <i name="volume">    718.96192503 </i>
    <varray name="rec_basis" >
     <v>       0.14489048      -0.00023433      -0.00061081 </v>
     <v>      -0.00015674       0.09772165       0.00005098 </v>
     <v>      -0.00041276       0.00004815       0.09823639 </v>
    </varray>
   </crystal>
   <varray name="positions" >
    <v>       0.24978224       0.16847910       0.50941968 </v>
    <v>       0.03744075       0.33328466       0.34638319 </v>
    <v>       0.01231069       0.33110928       0.67155749 </v>
    <v>       0.26599499       0.50187518       0.83366416 </v>
    <v>       0.28543519       0.83315474       0.51300431 </v>
    <v>       0.25246922       0.81732906       0.15087256 </v>
    <v>       0.48515526       0.33185706       0.66653609 </v>
    <v>       0.48876064       0.31725385       0.99359012 </v>
    <v>       0.25064074       0.49906037       0.51206796 </v>
    <v>       0.48371065       0.66924165       0.33164440 </v>
    <v>       0.26274380       0.82698188       0.83774430 </v>
    <v>       0.71827723       0.83957167       0.50426427 </v>
    <v>       0.00058196       0.00133496       0.67100649 </v>
    <v>       0.73045961       0.49927574       0.83497124 </v>
    <v>       0.24987172       0.50799471       0.15061829 </v>
    <v>       0.02020153       0.67706557       0.34208690 </v>
    <v>       0.50675996       0.00538286       0.00193194 </v>
    <v>       0.75222639       0.17165488       0.49890299 </v>
    <v>       0.46526368       0.33661987       0.33296317 </v>
    <v>       0.02011553       0.99046144       0.33563374 </v>
    <v>       0.76882883       0.18237489       0.18373980 </v>
    <v>       0.51171987       0.67511366       0.00464958 </v>
    <v>       0.73723617       0.82118279       0.83440937 </v>
    <v>       0.23128445       0.17268068       0.16447175 </v>
    <v>       0.98957448       0.67309897       0.99824831 </v>
    <v>       0.49567126       0.01125772       0.67601689 </v>
    <v>       0.73531411       0.17806179       0.81803898 </v>
    <v>       0.75056573       0.82133212       0.16652383 </v>
    <v>       0.26138574       0.16573687       0.82304175 </v>
    <v>       0.49602153       0.66006666       0.66631857 </v>
    <v>       0.75163002       0.49134777       0.49567348 </v>
    <v>       0.98863925       0.99824297       0.99751643 </v>
    <v>       0.00868517       0.32413780       0.97869686 </v>
    <v>       0.00049053       0.66909387       0.66563270 </v>
    <v>       0.48342951       0.99804323       0.31904047 </v>
    <v>       0.75130654       0.49925266       0.16911392 </v>
   </varray>
  </structure>
  <varray name="forces" >
   <v>      -0.01390486       0.04089578       0.03467468 </v>
   <v>      -0.01115526       0.01606935       0.02865331 </v>
   <v>       0.02465439       0.04568916      -0.09562747 </v>
   <v>      -0.02128837       0.00310892       0.02866086 </v>
   <v>      -0.04008634      -0.09159758      -0.09412317 </v>
   <v>       0.12150953      -0.00201808       0.08177513 </v>
   <v>      -0.01596040       0.02951215      -0.03744308 </v>
   <v>      -0.00653919       0.04907626       0.02987000 </v>
   <v>       0.09353509       0.06717182      -0.04819504 </v>
   <v>      -0.00883682      -0.05233560      -0.00612986 </v>
   <v>       0.00293880       0.01036715      -0.00158953 </v>
   <v>       0.04233902      -0.06678186      -0.07074773 </v>
   <v>      -0.02414014      -0.08136594      -0.09806814 </v>
   <v>       0.05185797      -0.03269303      -0.00028852 </v>
   <v>      -0.00546943      -0.01357771       0.02134722 </v>
   <v>      -0.04084760       0.04031982       0.01350543 </v>
   <v>      -0.02407667      -0.02392305       0.02040018 </v>
   <v>      -0.00416783       0.02316580       0.02515505 </v>
   <v>      -0.00801121      -0.07845752      -0.00351972 </v>
   <v>      -0.02402985      -0.00682699       0.01916126 </v>
   <v>       0.01007665       0.04301151      -0.02121940 </v>
   <v>      -0.02145236       0.01028241      -0.03280546 </v>
   <v>       0.03646585       0.03357287       0.03032293 </v>
   <v>      -0.04028509      -0.00145733      -0.05730670 </v>
   <v>       0.03200675       0.01902723       0.13847793 </v>
   <v>       0.00470898      -0.03857438      -0.07420693 </v>
   <v>       0.04151604      -0.01086053       0.01076744 </v>
   <v>      -0.11871052      -0.00275301       0.06925004 </v>
   <v>      -0.02229210      -0.03624500      -0.01191881 </v>
   <v>      -0.01076583      -0.04128510       0.00532065 </v>
   <v>      -0.05624472       0.07155186       0.03375300 </v>
   <v>       0.01123683      -0.10597606       0.07144051 </v>
   <v>       0.01050834       0.08099755       0.06794021 </v>
   <v>       0.03211421       0.00820451      -0.01488357 </v>
   <v>       0.01780513       0.06918843      -0.02545472 </v>
   <v>      -0.01500900       0.02551620      -0.03694797 </v>
  </varray>
  <varray name="stress" >
   <v>       4.14005753      -0.06365958      -0.08448332 </v>
   <v>      -0.06365957       3.79314124       0.17859228 </v>
   <v>      -0.08448334       0.17859228       3.80377104 </v>
  </varray>
  <energy>
   <i name="e_fr_energy">   -368.08021926 </i>
   <i name="e_wo_entrp">   -368.08363503 </i>
   <i name="e_0_energy">      0.01024729 </i>
  </energy>
  <time name="totalsc">   11.46   12.27</time>
 </calculation>
 <calculation>
  <scstep>
   <time name="dav">    1.00    1.01</time>
   <time name="total">    1.12    1.30</time>
   <energy>
    <i name="alphaZ">   1451.62178660 </i>
    <i name="ewald"> -18027.40696425 </i>
    <i name="hartreedc">  -6493.86952102 </i>
    <i name="XCdc">   -439.13257094 </i>
    <i name="pawpsdc">  32418.11430817 </i>
    <i name="pawaedc"> -30730.48175862 </i>
    <i name="eentropy">      0.00901720 </i>
    <i name="bandstr">  -2389.23659954 </i>
    <i name="atom">  23842.39304984 </i>
    <i name="e_fr_energy">   -367.98925254 </i>
    <i name="e_wo_entrp">   -367.99826975 </i>
    <i name="e_0_energy">   -367.99225828 </i>
   </energy>
  </scstep>
  <scstep>
   <time name="diag">    0.07    0.07</time>
   <time name="diis">    0.83    0.84</time>
   <time name="orth">    0.01    0.01</time>
   <time name="total">    1.00    1.04</time>
   <energy>
    <i name="e_fr_energy">   -368.09602583 </i>
    <i name="e_wo_entrp">   -368.10754210 </i>
    <i name="e_0_energy">   -368.09986459 </i>
   </energy>
  </scstep>
  <scstep>
   <time name="diag">    0.09    0.09</time>
   <time name="diis">    0.77    0.78</time>
   <time name="orth">    0.01    0.01</time>
   <time name="total">    0.94    1.00</time>
   <energy>
    <i name="e_fr_energy">   -368.05860140 </i>
    <i name="e_wo_entrp">   -368.06774599 </i>
    <i name="e_0_energy">   -368.06164960 </i>
   </energy>
  </scstep>
  <scstep>
   <time name="diag">    0.08    0.08</time>
   <time name="diis">    0.78    0.79</time>
   <time name="orth">    0.01    0.01</time>
   <time name="total">    0.93    0.98</time>
   <energy>
    <i name="e_fr_energy">   -368.04036893 </i>
    <i name="e_wo_entrp">   -368.05043753 </i>
    <i name="e_0_energy">   -368.04372513 </i>
   </energy>
  </scstep>
  <scstep>
   <time name="diag">    0.07    0.07</time>
   <time name="diis">    0.86    0.87</time>
   <time name="orth">    0.01    0.01</time>
   <time name="total">    1.01    1.05</time>
   <energy>
    <i name="e_fr_energy">   -368.03628610 </i>
    <i name="e_wo_entrp">   -368.04617825 </i>
    <i name="e_0_energy">   -368.03958348 </i>
   </energy>
  </scstep>
  <scstep>
   <time name="diag">    0.08    0.08</time>
   <time name="diis">    0.85    0.86</time>
   <time name="orth">    0.01    0.01</time>
   <time name="total">    1.01    1.05</time>
   <energy>
    <i name="e_fr_energy">   -368.03516859 </i>
    <i name="e_wo_entrp">   -368.04496279 </i>
    <i name="e_0_energy">   -368.03843332 </i>
   </energy>
  </scstep>
  <scstep>
   <time name="diag">    0.12    0.12</time>
   <time name="diis">    0.87    0.88</time>
   <time name="orth">    0.01    0.01</time>
   <time name="total">    1.07    1.11</time>
   <energy>
    <i name="e_fr_energy">   -368.03523353 </i>
    <i name="e_wo_entrp">   -368.04496062 </i>
    <i name="e_0_energy">   -368.03847589 </i>
   </energy>
  </scstep>
  <scstep>
   <time name="diag">    0.07    0.07</time>
   <time name="diis">    0.87    0.88</time>
   <time name="orth">    0.01    0.01</time>
   <time name="total">    1.02    1.07</time>
   <energy>
    <i name="e_fr_energy">   -368.03530908 </i>
    <i name="e_wo_entrp">   -368.04514866 </i>
    <i name="e_0_energy">   -368.03858894 </i>
   </energy>
  </scstep>
  <scstep>
   <time name="diag">    0.08    0.08</time>
   <time name="diis">    0.80    0.81</time>
   <time name="orth">    0.01    0.01</time>
   <time name="total">    0.96    1.00</time>
   <energy>
    <i name="e_fr_energy">   -368.03535371 </i>
    <i name="e_wo_entrp">   -368.04511156 </i>
    <i name="e_0_energy">   -368.03860632 </i>
   </energy>
  </scstep>
  <scstep>
[...]
       <r>    6.6594    1.0000 </r>
       <r>    6.7156    1.0000 </r>
       <r>    6.7458    1.0000 </r>
       <r>    6.7823    1.0000 </r>
       <r>    6.8080    1.0000 </r>
       <r>    6.8316    1.0000 </r>
       <r>    6.8751    1.0000 </r>
       <r>    6.9218    1.0001 </r>
       <r>    6.9881    1.0006 </r>
       <r>    7.0228    1.0018 </r>
       <r>    7.0358    1.0025 </r>
       <r>    7.1003    1.0113 </r>
       <r>    7.1134    1.0145 </r>
       <r>    7.1640    1.0293 </r>
       <r>    7.2117    1.0343 </r>
       <r>    7.2349    1.0239 </r>
       <r>    7.2642    0.9883 </r>
       <r>    7.3022    0.8915 </r>
       <r>    7.3420    0.7232 </r>
       <r>    7.3755    0.5437 </r>
       <r>    7.4005    0.4034 </r>
       <r>    7.4448    0.1831 </r>
       <r>    7.4766    0.0703 </r>
       <r>    7.5062    0.0051 </r>
       <r>    7.5454   -0.0316 </r>
       <r>    7.5651   -0.0354 </r>
       <r>    7.5895   -0.0326 </r>
       <r>    7.6387   -0.0184 </r>
       <r>    7.6937   -0.0063 </r>
       <r>    7.7254   -0.0029 </r>
       <r>    7.7907   -0.0004 </r>
       <r>    7.8288   -0.0001 </r>
       <r>    7.8778   -0.0000 </r>
       <r>    7.9200   -0.0000 </r>
       <r>    7.9660   -0.0000 </r>
       <r>    7.9777   -0.0000 </r>
       <r>    8.0534   -0.0000 </r>
       <r>    8.1048   -0.0000 </r>
       <r>    8.1702   -0.0000 </r>
       <r>    8.2073   -0.0000 </r>
       <r>    8.2479   -0.0000 </r>
       <r>    8.5494   -0.0000 </r>
       <r>    8.6405   -0.0000 </r>
       <r>    8.7240   -0.0000 </r>
       <r>    9.2442   -0.0000 </r>
       <r>    9.3386   -0.0000 </r>
       <r>    9.3774   -0.0000 </r>
       <r>    9.4630   -0.0000 </r>
       <r>    9.5160   -0.0000 </r>
      </set>
     </set>
    </set>
   </array>
  </eigenvalues>
  <separator name="orbital magnetization" >
   <v name="MAGDIPOLOUT">      0.00000000      0.00000000      0.00000000</v>
  </separator>
  <dos>
   <i name="efermi">      7.38324477 </i>
   <total>
    <array>
     <dimension dim="1">gridpoints</dimension>
     <dimension dim="2">spin</dimension>
     <field>energy</field>
     <field>total</field>
     <field>integrated</field>
     <set>
      <set comment="spin 1">
       <r>   -49.6775     0.0000     0.0000 </r>
       <r>   -49.4708     0.0000     0.0000 </r>
       <r>   -49.2640     0.0000     0.0000 </r>
       <r>   -49.0573     0.0000     0.0000 </r>
       <r>   -48.8506     0.0000     0.0000 </r>
       <r>   -48.6439     0.0000     0.0000 </r>
       <r>   -48.4372     0.0000     0.0000 </r>
       <r>   -48.2305    -0.0000    -0.0000 </r>
       <r>   -48.0238    -0.0000    -0.0000 </r>
       <r>   -47.8171    -0.0000    -0.0000 </r>
       <r>   -47.6104    -0.0000    -0.0000 </r>
       <r>   -47.4037    -0.0000    -0.0000 </r>
       <r>   -47.1970    -0.0551    -0.0114 </r>
       <r>   -46.9903    -1.5782    -0.3376 </r>
       <r>   -46.7836    34.5631     6.8068 </r>
       <r>   -46.5769    51.5397    17.4605 </r>
       <r>   -46.3701     2.9965    18.0798 </r>
       <r>   -46.1634    -0.3851    18.0002 </r>
       <r>   -45.9567    -0.0012    18.0000 </r>
       <r>   -45.7500    -0.0000    18.0000 </r>
       <r>   -45.5433    -0.0000    18.0000 </r>
       <r>   -45.3366     0.0000    18.0000 </r>
       <r>   -45.1299     0.0000    18.0000 </r>
       <r>   -44.9232     0.0000    18.0000 </r>
       <r>   -44.7165     0.0000    18.0000 </r>
       <r>   -44.5098     0.0000    18.0000 </r>
       <r>   -44.3031     0.0000    18.0000 </r>
       <r>   -44.0964     0.0000    18.0000 </r>
       <r>   -43.8897     0.0000    18.0000 </r>
       <r>   -43.6829     0.0000    18.0000 </r>
       <r>   -43.4762     0.0000    18.0000 </r>
       <r>   -43.2695     0.0000    18.0000 </r>
       <r>   -43.0628     0.0000    18.0000 </r>
       <r>   -42.8561     0.0000    18.0000 </r>
       <r>   -42.6494     0.0000    18.0000 </r>
       <r>   -42.4427     0.0000    18.0000 </r>
       <r>   -42.2360    -0.0000    18.0000 </r>
       <r>   -42.0293    -0.0000    18.0000 </r>
       <r>   -41.8226    -0.0000    18.0000 </r>
       <r>   -41.6159    -0.0000    18.0000 </r>
       <r>   -41.4092    -0.0000    18.0000 </r>
       <r>   -41.2025    -0.0340    17.9930 </r>
       <r>   -40.9958    -1.2282    17.7391 </r>
       <r>   -40.7890    25.1693    22.9418 </r>
       <r>   -40.5823    35.4398    30.2674 </r>
       <r>   -40.3756    -1.2202    30.0152 </r>
       <r>   -40.1689    -0.0735    30.0000 </r>
       <r>   -39.9622    -0.0000    30.0000 </r>
       <r>   -39.7555    -0.0000    30.0000 </r>
       <r>   -39.5488     0.0000    30.0000 </r>
       <r>   -39.3421     0.0000    30.0000 </r>
       <r>   -39.1354     0.0000    30.0000 </r>
       <r>   -38.9287     0.0000    30.0000 </r>
       <r>   -38.7220     0.0000    30.0000 </r>
       <r>   -38.5153     0.0000    30.0000 </r>
       <r>   -38.3086     0.0000    30.0000 </r>
       <r>   -38.1018     0.0000    30.0000 </r>
       <r>   -37.8951     0.0000    30.0000 </r>
       <r>   -37.6884     0.0000    30.0000 </r>
       <r>   -37.4817     0.0000    30.0000 </r>
       <r>   -37.2750     0.0000    30.0000 </r>
       <r>   -37.0683     0.0000    30.0000 </r>
       <r>   -36.8616     0.0000    30.0000 </r>
       <r>   -36.6549     0.0000    30.0000 </r>
       <r>   -36.4482     0.0000    30.0000 </r>
       <r>   -36.2415     0.0000    30.0000 </r>
       <r>   -36.0348     0.0000    30.0000 </r>
       <r>   -35.8281     0.0000    30.0000 </r>
       <r>   -35.6214     0.0000    30.0000 </r>
       <r>   -35.4147     0.0000    30.0000 </r>
       <r>   -35.2079     0.0000    30.0000 </r>
       <r>   -35.0012     0.0000    30.0000 </r>
       <r>   -34.7945     0.0000    30.0000 </r>
       <r>   -34.5878     0.0000    30.0000 </r>
       <r>   -34.3811     0.0000    30.0000 </r>
       <r>   -34.1744     0.0000    30.0000 </r>
       <r>   -33.9677     0.0000    30.0000 </r>
       <r>   -33.7610     0.0000    30.0000 </r>
       <r>   -33.5543     0.0000    30.0000 </r>
       <r>   -33.3476     0.0000    30.0000 </r>
       <r>   -33.1409     0.0000    30.0000 </r>
       <r>   -32.9342     0.0000    30.0000 </r>
       <r>   -32.7275     0.0000    30.0000 </r>
       <r>   -32.5208     0.0000    30.0000 </r>
       <r>   -32.3140     0.0000    30.0000 </r>
       <r>   -32.1073     0.0000    30.0000 </r>
       <r>   -31.9006     0.0000    30.0000 </r>
       <r>   -31.6939     0.0000    30.0000 </r>
       <r>   -31.4872     0.0000    30.0000 </r>
       <r>   -31.2805     0.0000    30.0000 </r>
       <r>   -31.0738     0.0000    30.0000 </r>
       <r>   -30.8671     0.0000    30.0000 </r>
       <r>   -30.6604     0.0000    30.0000 </r>
       <r>   -30.4537     0.0000    30.0000 </r>
       <r>   -30.2470     0.0000    30.0000 </r>
       <r>   -30.0403     0.0000    30.0000 </r>
       <r>   -29.8336     0.0000    30.0000 </r>
       <r>   -29.6268     0.0000    30.0000 </r>
       <r>   -29.4201     0.0000    30.0000 </r>
       <r>   -29.2134     0.0000    30.0000 </r>
       <r>   -29.0067     0.0000    30.0000 </r>
       <r>   -28.8000     0.0000    30.0000 </r>
       <r>   -28.5933     0.0000    30.0000 </r>
       <r>   -28.3866     0.0000    30.0000 </r>
       <r>   -28.1799     0.0000    30.0000 </r>
       <r>   -27.9732     0.0000    30.0000 </r>
       <r>   -27.7665     0.0000    30.0000 </r>
       <r>   -27.5598     0.0000    30.0000 </r>
       <r>   -27.3531     0.0000    30.0000 </r>
       <r>   -27.1464     0.0000    30.0000 </r>
       <r>   -26.9397     0.0000    30.0000 </r>
       <r>   -26.7329     0.0000    30.0000 </r>
       <r>   -26.5262     0.0000    30.0000 </r>
       <r>   -26.3195     0.0000    30.0000 </r>
       <r>   -26.1128     0.0000    30.0000 </r>
       <r>   -25.9061     0.0000    30.0000 </r>
       <r>   -25.6994     0.0000    30.0000 </r>
       <r>   -25.4927     0.0000    30.0000 </r>
       <r>   -25.2860     0.0000    30.0000 </r>
       <r>   -25.0793     0.0000    30.0000 </r>
       <r>   -24.8726     0.0000    30.0000 </r>
       <r>   -24.6659    -0.0000    30.0000 </r>
       <r>   -24.4592    -0.0000    30.0000 </r>
       <r>   -24.2525    -0.0000    30.0000 </r>
       <r>   -24.0457    -0.0000    30.0000 </r>
       <r>   -23.8390    -0.0000    30.0000 </r>
       <r>   -23.6323    -0.0607    29.9874 </r>
       <r>   -23.4256    -0.6412    29.8549 </r>
       <r>   -23.2189    22.2958    34.4636 </r>
       <r>   -23.0122    46.9758    44.1738 </r>
       <r>   -22.8055    99.1242    64.6635 </r>
       <r>   -22.5988    65.0531    78.1105 </r>
       <r>   -22.3921    29.3236    84.1719 </r>
       <r>   -22.1854    -0.7447    84.0179 </r>
       <r>   -21.9787    -0.0868    84.0000 </r>
       <r>   -21.7720    -0.0001    84.0000 </r>
       <r>   -21.5653    -0.0000    84.0000 </r>
       <r>   -21.3586     0.0000    84.0000 </r>
       <r>   -21.1518     0.0000    84.0000 </r>
       <r>   -20.9451     0.0000    84.0000 </r>
       <r>   -20.7384     0.0000    84.0000 </r>
       <r>   -20.5317     0.0000    84.0000 </r>
       <r>   -20.3250    -0.0000    84.0000 </r>
       <r>   -20.1183    -0.0000    84.0000 </r>
       <r>   -19.9116    -0.0000    84.0000 </r>
       <r>   -19.7049    -0.0000    84.0000 </r>
       <r>   -19.4982    -0.0049    83.9990 </r>
       <r>   -19.2915    -0.6661    83.8613 </r>
       <r>   -19.0848     6.1577    85.1342 </r>
       <r>   -18.8781    77.4615   101.1460 </r>
       <r>   -18.6714    88.4486   119.4290 </r>
       <r>   -18.4646     3.3226   120.1158 </r>
       <r>   -18.2579    -0.5579   120.0005 </r>
       <r>   -18.0512    -0.0023   120.0000 </r>
       <r>   -17.8445    -0.0000   120.0000 </r>
       <r>   -17.6378    -0.0000   120.0000 </r>
       <r>   -17.4311     0.0000   120.0000 </r>
       <r>   -17.2244     0.0000   120.0000 </r>
       <r>   -17.0177     0.0000   120.0000 </r>
       <r>   -16.8110     0.0000   120.0000 </r>
       <r>   -16.6043     0.0000   120.0000 </r>
       <r>   -16.3976     0.0000   120.0000 </r>
       <r>   -16.1909     0.0000   120.0000 </r>
       <r>   -15.9842     0.0000   120.0000 </r>
       <r>   -15.7775     0.0000   120.0000 </r>
       <r>   -15.5707     0.0000   120.0000 </r>
       <r>   -15.3640     0.0000   120.0000 </r>
       <r>   -15.1573     0.0000   120.0000 </r>
       <r>   -14.9506     0.0000   120.0000 </r>
       <r>   -14.7439     0.0000   120.0000 </r>
       <r>   -14.5372     0.0000   120.0000 </r>
       <r>   -14.3305     0.0000   120.0000 </r>
       <r>   -14.1238     0.0000   120.0000 </r>
       <r>   -13.9171     0.0000   120.0000 </r>
       <r>   -13.7104     0.0000   120.0000 </r>
       <r>   -13.5037     0.0000   120.0000 </r>
       <r>   -13.2970     0.0000   120.0000 </r>
       <r>   -13.0903     0.0000   120.0000 </r>
       <r>   -12.8836     0.0000   120.0000 </r>
       <r>   -12.6768     0.0000   120.0000 </r>
       <r>   -12.4701     0.0000   120.0000 </r>
       <r>   -12.2634     0.0000   120.0000 </r>
       <r>   -12.0567     0.0000   120.0000 </r>
       <r>   -11.8500     0.0000   120.0000 </r>
       <r>   -11.6433     0.0000   120.0000 </r>
       <r>   -11.4366     0.0000   120.0000 </r>
       <r>   -11.2299     0.0000   120.0000 </r>
       <r>   -11.0232     0.0000   120.0000 </r>
       <r>   -10.8165     0.0000   120.0000 </r>
       <r>   -10.6098     0.0000   120.0000 </r>
       <r>   -10.4031     0.0000   120.0000 </r>
       <r>   -10.1964     0.0000   120.0000 </r>
       <r>    -9.9896     0.0000   120.0000 </r>
       <r>    -9.7829     0.0000   120.0000 </r>
       <r>    -9.5762     0.0000   120.0000 </r>
       <r>    -9.3695     0.0000   120.0000 </r>
       <r>    -9.1628     0.0000   120.0000 </r>
       <r>    -8.9561     0.0000   120.0000 </r>
       <r>    -8.7494     0.0000   120.0000 </r>
       <r>    -8.5427     0.0000   120.0000 </r>
       <r>    -8.3360     0.0000   120.0000 </r>
       <r>    -8.1293     0.0000   120.0000 </r>
       <r>    -7.9226     0.0000   120.0000 </r>
       <r>    -7.7159     0.0000   120.0000 </r>
       <r>    -7.5092     0.0000   120.0000 </r>
       <r>    -7.3025     0.0000   120.0000 </r>
       <r>    -7.0957     0.0000   120.0000 </r>
       <r>    -6.8890     0.0000   120.0000 </r>
       <r>    -6.6823     0.0000   120.0000 </r>
       <r>    -6.4756     0.0000   120.0000 </r>
       <r>    -6.2689     0.0000   120.0000 </r>
       <r>    -6.0622     0.0000   120.0000 </r>
       <r>    -5.8555     0.0000   120.0000 </r>
       <r>    -5.6488     0.0000   120.0000 </r>
       <r>    -5.4421     0.0000   120.0000 </r>
       <r>    -5.2354     0.0000   120.0000 </r>
       <r>    -5.0287     0.0000   120.0000 </r>
       <r>    -4.8220     0.0000   120.0000 </r>
       <r>    -4.6153     0.0000   120.0000 </r>
       <r>    -4.4085     0.0000   120.0000 </r>
       <r>    -4.2018     0.0000   120.0000 </r>
       <r>    -3.9951     0.0000   120.0000 </r>
       <r>    -3.7884     0.0000   120.0000 </r>
       <r>    -3.5817     0.0000   120.0000 </r>
       <r>    -3.3750     0.0000   120.0000 </r>
       <r>    -3.1683     0.0000   120.0000 </r>
       <r>    -2.9616     0.0000   120.0000 </r>
       <r>    -2.7549     0.0000   120.0000 </r>
       <r>    -2.5482     0.0000   120.0000 </r>
       <r>    -2.3415     0.0000   120.0000 </r>
       <r>    -2.1348     0.0000   120.0000 </r>
       <r>    -1.9281     0.0000   120.0000 </r>
       <r>    -1.7214     0.0000   120.0000 </r>
       <r>    -1.5146     0.0000   120.0000 </r>
       <r>    -1.3079     0.0000   120.0000 </r>
       <r>    -1.1012     0.0000   120.0000 </r>
       <r>    -0.8945    -0.0000   120.0000 </r>
       <r>    -0.6878    -0.0000   120.0000 </r>
       <r>    -0.4811    -0.0000   120.0000 </r>
       <r>    -0.2744    -0.0000   120.0000 </r>
       <r>    -0.0677    -0.0000   120.0000 </r>
       <r>     0.1390    -0.0007   119.9999 </r>
       <r>     0.3457    -0.0098   119.9978 </r>
       <r>     0.5524     0.2490   120.0493 </r>
       <r>     0.7591     1.0916   120.2749 </r>
       <r>     0.9658     1.6558   120.6172 </r>
       <r>     1.1726     2.0290   121.0366 </r>
       <r>     1.3793     3.2976   121.7182 </r>
       <r>     1.5860     3.6082   122.4641 </r>
       <r>     1.7927     2.1687   122.9124 </r>
       <r>     1.9994     4.6320   123.8698 </r>
       <r>     2.2061     3.6759   124.6297 </r>
       <r>     2.4128     3.1393   125.2786 </r>
       <r>     2.6195     6.5731   126.6373 </r>
       <r>     2.8262     8.1981   128.3319 </r>
       <r>     3.0329     7.8352   129.9515 </r>
       <r>     3.2396     7.9850   131.6021 </r>
       <r>     3.4463     8.6594   133.3920 </r>
       <r>     3.6530    15.5703   136.6105 </r>
       <r>     3.8597    21.4273   141.0397 </r>
       <r>     4.0665    20.5781   145.2933 </r>
       <r>     4.2732    27.0876   150.8925 </r>
       <r>     4.4799    31.4964   157.4031 </r>
       <r>     4.6866    34.1348   164.4590 </r>
       <r>     4.8933    40.4513   172.8206 </r>
       <r>     5.1000    37.0969   180.4888 </r>
       <r>     5.3067    32.9990   187.3099 </r>
       <r>     5.5134    35.4323   194.6340 </r>
       <r>     5.7201    25.3385   199.8717 </r>
       <r>     5.9268    17.0758   203.4014 </r>
       <r>     6.1335    52.7310   214.3013 </r>
       <r>     6.3402    64.6823   227.6716 </r>
       <r>     6.5469    58.9288   239.8526 </r>
       <r>     6.7536    52.3561   250.6750 </r>
       <r>     6.9604    53.2480   261.6817 </r>
       <r>     7.1671    54.6610   272.9806 </r>
       <r>     7.3738    46.3557   282.5626 </r>
       <r>     7.5805    48.3853   292.5642 </r>
       <r>     7.7872    49.0265   302.6984 </r>
       <r>     7.9939    42.6245   311.5092 </r>
       <r>     8.2006    32.6086   318.2496 </r>
       <r>     8.4073    25.5679   323.5347 </r>
       <r>     8.6140    21.4954   327.9779 </r>
       <r>     8.8207    14.8458   331.0467 </r>
       <r>     9.0274    13.3264   333.8013 </r>
       <r>     9.2341    25.0076   338.9706 </r>
       <r>     9.4408    18.9308   342.8837 </r>
       <r>     9.6476     5.7018   344.0623 </r>
       <r>     9.8543    -0.2915   344.0021 </r>
       <r>    10.0610    -0.0101   344.0000 </r>
       <r>    10.2677    -0.0000   344.0000 </r>
       <r>    10.4744    -0.0000   344.0000 </r>
       <r>    10.6811     0.0000   344.0000 </r>
       <r>    10.8878     0.0000   344.0000 </r>
       <r>    11.0945     0.0000   344.0000 </r>
       <r>    11.3012     0.0000   344.0000 </r>
       <r>    11.5079     0.0000   344.0000 </r>
       <r>    11.7146     0.0000   344.0000 </r>
       <r>    11.9213     0.0000   344.0000 </r>
       <r>    12.1280     0.0000   344.0000 </r>
       <r>    12.3347     0.0000   344.0000 </r>
      </set>
     </set>
    </array>
   </total>
  </dos>
 </calculation>
 <structure name="finalpos" >
  <crystal>
   <varray name="basis" >
    <v>       6.91694358       0.01335794       0.02639508 </v>
    <v>       0.01995737      10.23080912      -0.00111139 </v>
    <v>       0.03913210      -0.00140360      10.18652663 </v>
   </varray>
   <i name="volume">    720.84573044 </i>
   <varray name="rec_basis" >
    <v>       0.14457519      -0.00028209      -0.00055543 </v>
    <v>      -0.00018882       0.09774435       0.00001419 </v>
    <v>      -0.00037464       0.00001140       0.09817033 </v>
   </varray>
  </crystal>
  <varray name="positions" >
   <v>       0.24698785       0.16948143       0.51041932 </v>
   <v>       0.03612578       0.33549361       0.34809670 </v>
   <v>       0.01367655       0.33306817       0.67029237 </v>
   <v>       0.26685714       0.50261819       0.83453909 </v>
   <v>       0.28547677       0.83114388       0.51067309 </v>
   <v>       0.25791117       0.81774050       0.15398610 </v>
   <v>       0.48522633       0.33239078       0.66727451 </v>
   <v>       0.48799443       0.31708370       0.99279304 </v>
   <v>       0.25661731       0.50035391       0.50969179 </v>
   <v>       0.48346047       0.66819197       0.33158795 </v>
   <v>       0.26336854       0.82713853       0.83742859 </v>
   <v>       0.71734316       0.83720652       0.50200298 </v>
   <v>      -0.00044834      -0.00190066       0.66795850 </v>
   <v>       0.73354553       0.49949792       0.83493948 </v>
   <v>       0.25058796       0.50761575       0.15221723 </v>
   <v>       0.01821268       0.67732821       0.34064477 </v>
   <v>       0.50630695       0.00555790       0.00156531 </v>
   <v>       0.75267218       0.17279140       0.50010594 </v>
   <v>       0.46496611       0.33184582       0.33202097 </v>
   <v>       0.01807851       0.99051540       0.33661188 </v>
   <v>       0.77151990       0.18411898       0.18141545 </v>
   <v>       0.51136057       0.67478733       0.00415565 </v>
   <v>       0.73926164       0.82090824       0.83601576 </v>
   <v>       0.22508663       0.17326866       0.16337335 </v>
   <v>       0.99088086       0.67502945       0.00298979 </v>
   <v>       0.49729176       0.01020576       0.67488365 </v>
   <v>       0.73646633       0.17721233       0.81764757 </v>
   <v>       0.74449226       0.82185623       0.16894405 </v>
   <v>       0.26126062       0.16361198       0.82199400 </v>
   <v>       0.49461980       0.65880796       0.66710602 </v>
   <v>       0.74704976       0.49293970       0.49710484 </v>
   <v>       0.98930753       0.99556306       0.99918981 </v>
   <v>       0.01070689       0.32604978       0.97726079 </v>
   <v>       0.00291847       0.66936176       0.66504110 </v>
   <v>       0.48246948       0.00160192       0.31970956 </v>
   <v>       0.75032542       0.49952694       0.16831499 </v>
  </varray>
 </structure>
</modeling>
