       N       E                     dE             d eps       ncg     rms          rms(c)
DAV:   1     0.178878414221E+04    0.17888E+04   -0.10838E+05  5408   0.104E+03
DAV:   2    -0.102903032394E+03   -0.18917E+04   -0.18249E+04  5640   0.379E+02
DAV:   3    -0.347410116330E+03   -0.24451E+03   -0.23158E+03  8264   0.955E+01
DAV:   4    -0.376354525420E+03   -0.28944E+02   -0.27608E+02  8384   0.303E+01
DAV:   5    -0.379187355525E+03   -0.28328E+01   -0.27806E+01  7944   0.971E+00    0.659E+01
RMM:   6    -0.368980310699E+03    0.10207E+02   -0.25310E+01  6916   0.991E+00    0.315E+01
RMM:   7    -0.371530131601E+03   -0.25498E+01   -0.30260E+01  7438   0.840E+00    0.129E+01
RMM:   8    -0.364698548556E+03    0.68316E+01   -0.81237E+00  7252   0.424E+00    0.475E+00
RMM:   9    -0.364244200118E+03    0.45435E+00   -0.25952E+00  7526   0.205E+00    0.294E+00
RMM:  10    -0.364228316176E+03    0.15884E-01   -0.60786E-01  7570   0.111E+00    0.178E+00
RMM:  11    -0.364195237098E+03    0.33079E-01   -0.16870E-01  7479   0.651E-01    0.841E-01
RMM:  12    -0.364185942443E+03    0.92947E-02   -0.72393E-02  7581   0.414E-01    0.487E-01
RMM:  13    -0.364184238425E+03    0.17040E-02   -0.20529E-02  7617   0.214E-01    0.258E-01
RMM:  14    -0.364183944141E+03    0.29428E-03   -0.69205E-03  7666   0.117E-01    0.160E-01
RMM:  15    -0.364184155697E+03   -0.21156E-03   -0.41756E-03  7625   0.793E-02    0.775E-02
RMM:  16    -0.364184144509E+03    0.11188E-04   -0.15158E-03  6937   0.447E-02    0.431E-02
RMM:  17    -0.364184138111E+03    0.63981E-05   -0.62162E-04  6368   0.277E-02    0.224E-02
RMM:  18    -0.364184151564E+03   -0.13453E-04   -0.27792E-04  5591   0.188E-02    0.124E-02
RMM:  19    -0.364184159985E+03   -0.84210E-05   -0.13057E-04  5161   0.145E-02    0.764E-03
RMM:  20    -0.364184160262E+03   -0.27726E-06   -0.44209E-05  3778   0.102E-02
   1 F= -.36418416E+03 E0= -.36418991E+03  d E =-.364184E+03
       N       E                     dE             d eps       ncg     rms          rms(c)
DAV:   1    -0.364264420673E+03   -0.80261E-01   -0.27746E+00  5824   0.530E+00    0.186E+00
RMM:   2    -0.364250464435E+03    0.13956E-01   -0.26731E-01  7225   0.132E+00    0.695E-01
RMM:   3    -0.364238764642E+03    0.11700E-01   -0.61872E-02  7717   0.431E-01    0.536E-01
RMM:   4    -0.364230690982E+03    0.80737E-02   -0.17257E-02  7627   0.265E-01    0.259E-01
RMM:   5    -0.364229741702E+03    0.94928E-03   -0.50571E-03  7610   0.147E-01    0.188E-01
RMM:   6    -0.364229822736E+03   -0.81033E-04   -0.19045E-03  7784   0.695E-02    0.133E-01
RMM:   7    -0.364229831646E+03   -0.89101E-05   -0.85297E-04  7561   0.497E-02    0.737E-02
RMM:   8    -0.364229852094E+03   -0.20449E-04   -0.49127E-04  6856   0.338E-02    0.455E-02
RMM:   9    -0.364229876662E+03   -0.24568E-04   -0.21906E-04  6292   0.252E-02    0.316E-02
RMM:  10    -0.364229885973E+03   -0.93110E-05   -0.11259E-04  5120   0.181E-02    0.179E-02
RMM:  11    -0.364229884317E+03    0.16565E-05   -0.53598E-05  4361   0.143E-02
   2 F= -.36422988E+03 E0= -.36423599E+03  d E =-.457241E-01
       N       E                     dE             d eps       ncg     rms          rms(c)
DAV:   1    -0.364446622792E+03   -0.21674E+00   -0.13916E+01  5584   0.119E+01    0.409E+00
RMM:   2    -0.364376807629E+03    0.69815E-01   -0.13141E+00  7271   0.293E+00    0.156E+00
RMM:   3    -0.364315474227E+03    0.61333E-01   -0.30504E-01  7730   0.957E-01    0.119E+00
RMM:   4    -0.364276058701E+03    0.39416E-01   -0.86633E-02  7640   0.591E-01    0.580E-01
RMM:   5    -0.364271068267E+03    0.49904E-02   -0.25448E-02  7631   0.332E-01    0.415E-01
RMM:   6    -0.364271559182E+03   -0.49092E-03   -0.96135E-03  7880   0.154E-01    0.298E-01
RMM:   7    -0.364271729439E+03   -0.17026E-03   -0.42711E-03  8226   0.113E-01    0.165E-01
RMM:   8    -0.364271910423E+03   -0.18098E-03   -0.26271E-03  8169   0.733E-02    0.105E-01
RMM:   9    -0.364272074709E+03   -0.16429E-03   -0.96001E-04  7561   0.499E-02    0.721E-02
RMM:  10    -0.364272177159E+03   -0.10245E-03   -0.55454E-04  7129   0.352E-02    0.405E-02
RMM:  11    -0.364272197129E+03   -0.19969E-04   -0.25376E-04  5866   0.247E-02    0.194E-02
RMM:  12    -0.364272193832E+03    0.32961E-05   -0.92496E-05  5385   0.179E-02
   3 F= -.36427219E+03 E0= -.36427908E+03  d E =-.880336E-01
       N       E                     dE             d eps       ncg     rms          rms(c)
DAV:   1    -0.364312421887E+03   -0.40225E-01   -0.29076E+00  5240   0.468E+00    0.955E-01
RMM:   2    -0.364317504397E+03   -0.50825E-02   -0.15786E-01  7071   0.974E-01    0.448E-01
RMM:   3    -0.364311350765E+03    0.61536E-02   -0.22701E-02  7394   0.291E-01    0.317E-01
RMM:   4    -0.364309529785E+03    0.18210E-02   -0.62006E-03  7566   0.139E-01    0.177E-01
RMM:   5    -0.364309202575E+03    0.32721E-03   -0.22727E-03  7574   0.958E-02    0.108E-01
RMM:   6    -0.364309239041E+03   -0.36466E-04   -0.94655E-04  7691   0.483E-02    0.733E-02
RMM:   7    -0.364309248107E+03   -0.90658E-05   -0.36611E-04  6818   0.317E-02    0.449E-02
RMM:   8    -0.364309269115E+03   -0.21008E-04   -0.17437E-04  6334   0.198E-02    0.261E-02
RMM:   9    -0.364309286265E+03   -0.17150E-04   -0.71226E-05  4809   0.153E-02    0.145E-02
RMM:  10    -0.364309295719E+03   -0.94536E-05   -0.32582E-05  4090   0.123E-02
   4 F= -.36430930E+03 E0= -.36431616E+03  d E =-.371019E-01
       N       E                     dE             d eps       ncg     rms          rms(c)
DAV:   1    -0.364387328304E+03   -0.78042E-01   -0.22535E+01  5112   0.130E+01    0.270E+00
RMM:   2    -0.364424685464E+03   -0.37357E-01   -0.12137E+00  7082   0.270E+00    0.123E+00
RMM:   3    -0.364376661528E+03    0.48024E-01   -0.17062E-01  7435   0.797E-01    0.862E-01
RMM:   4    -0.364363138183E+03    0.13523E-01   -0.47406E-02  7627   0.387E-01    0.475E-01
RMM:   5    -0.364360869715E+03    0.22685E-02   -0.17377E-02  7593   0.260E-01    0.296E-01
RMM:   6    -0.364361150372E+03   -0.28066E-03   -0.70571E-03  7938   0.133E-01    0.204E-01
RMM:   7    -0.364361203703E+03   -0.53332E-04   -0.28426E-03  8100   0.848E-02    0.128E-01
RMM:   8    -0.364361331995E+03   -0.12829E-03   -0.13748E-03  7841   0.517E-02    0.752E-02
RMM:   9    -0.364361430793E+03   -0.98798E-04   -0.57103E-04  7038   0.363E-02    0.442E-02
RMM:  10    -0.364361483986E+03   -0.53193E-04   -0.27758E-04  6681   0.256E-02    0.287E-02
RMM:  11    -0.364361508090E+03   -0.24104E-04   -0.11388E-04  5372   0.177E-02    0.151E-02
RMM:  12    -0.364361513438E+03   -0.53473E-05   -0.42940E-05  4465   0.137E-02
   5 F= -.36436151E+03 E0= -.36436799E+03  d E =-.893196E-01
       N       E                     dE             d eps       ncg     rms          rms(c)
DAV:   1    -0.364363373390E+03   -0.18653E-02   -0.70059E-01  5264   0.230E+00    0.472E-01
RMM:   2    -0.364364541164E+03   -0.11678E-02   -0.37951E-02  7023   0.481E-01    0.215E-01
RMM:   3    -0.364363160584E+03    0.13806E-02   -0.54302E-03  7345   0.145E-01    0.153E-01
RMM:   4    -0.364362740284E+03    0.42030E-03   -0.14942E-03  7534   0.678E-02    0.840E-02
RMM:   5    -0.364362677199E+03    0.63085E-04   -0.55573E-04  7558   0.462E-02    0.517E-02
RMM:   6    -0.364362694468E+03   -0.17269E-04   -0.22674E-04  6705   0.236E-02    0.356E-02
RMM:   7    -0.364362701677E+03   -0.72086E-05   -0.88817E-05  5450   0.166E-02
   6 F= -.36436270E+03 E0= -.36436907E+03  d E =-.905078E-01
       N       E                     dE             d eps       ncg     rms          rms(c)
DAV:   1    -0.364370740365E+03   -0.80459E-02   -0.84583E-01  5088   0.257E+00    0.285E-01
RMM:   2    -0.364373102235E+03   -0.23619E-02   -0.30604E-02  7259   0.494E-01    0.167E-01
RMM:   3    -0.364372337967E+03    0.76427E-03   -0.36801E-03  7504   0.127E-01    0.115E-01
RMM:   4    -0.364372201579E+03    0.13639E-03   -0.86425E-04  7527   0.467E-02    0.720E-02
RMM:   5    -0.364372180494E+03    0.21085E-04   -0.35003E-04  7310   0.334E-02    0.396E-02
RMM:   6    -0.364372165379E+03    0.15115E-04   -0.15668E-04  6733   0.209E-02    0.235E-02
RMM:   7    -0.364372157300E+03    0.80783E-05   -0.56360E-05  4553   0.127E-02
   7 F= -.36437216E+03 E0= -.36437867E+03  d E =-.945562E-02
       N       E                     dE             d eps       ncg     rms          rms(c)
DAV:   1    -0.364380114867E+03   -0.79495E-02   -0.76105E+00  4928   0.771E+00    0.830E-01
RMM:   2    -0.364401303331E+03   -0.21188E-01   -0.27504E-01  7215   0.148E+00    0.486E-01
RMM:   3    -0.364394669999E+03    0.66333E-02   -0.31873E-02  7538   0.379E-01    0.333E-01
RMM:   4    -0.364393573083E+03    0.10969E-02   -0.74711E-03  7744   0.136E-01    0.210E-01
RMM:   5    -0.364393422846E+03    0.15024E-03   -0.30360E-03  7474   0.985E-02    0.118E-01
RMM:   6    -0.364393310402E+03    0.11244E-03   -0.14286E-03  7737   0.626E-02    0.708E-02
RMM:   7    -0.364393269091E+03    0.41311E-04   -0.57400E-04  7391   0.341E-02    0.439E-02
RMM:   8    -0.364393270572E+03   -0.14815E-05   -0.18044E-04  5834   0.201E-02    0.267E-02
RMM:   9    -0.364393272358E+03   -0.17863E-05   -0.10186E-04  5200   0.170E-02    0.138E-02
RMM:  10    -0.364393270597E+03    0.17610E-05   -0.42209E-05  4565   0.137E-02
   8 F= -.36439327E+03 E0= -.36440027E+03  d E =-.305689E-01
       N       E                     dE             d eps       ncg     rms          rms(c)
DAV:   1    -0.364346569076E+03    0.46703E-01   -0.30424E+01  4928   0.154E+01    0.163E+00
RMM:   2    -0.364432374084E+03   -0.85805E-01   -0.11066E+00  7231   0.298E+00    0.962E-01
RMM:   3    -0.364408000383E+03    0.24374E-01   -0.12836E-01  7620   0.766E-01    0.665E-01
RMM:   4    -0.364403837235E+03    0.41631E-02   -0.29478E-02  7750   0.272E-01    0.425E-01
RMM:   5    -0.364403204662E+03    0.63257E-03   -0.12041E-02  7449   0.196E-01    0.242E-01
RMM:   6    -0.364402660523E+03    0.54414E-03   -0.56279E-03  7707   0.126E-01    0.140E-01
RMM:   7    -0.364402540293E+03    0.12023E-03   -0.23139E-03  8317   0.677E-02    0.881E-02
RMM:   8    -0.364402569678E+03   -0.29385E-04   -0.83271E-04  7798   0.377E-02    0.549E-02
RMM:   9    -0.364402584188E+03   -0.14509E-04   -0.35370E-04  6632   0.274E-02    0.299E-02
RMM:  10    -0.364402588951E+03   -0.47629E-05   -0.17786E-04  5922   0.207E-02    0.188E-02
RMM:  11    -0.364402587360E+03    0.15909E-05   -0.80595E-05  5147   0.161E-02
   9 F= -.36440259E+03 E0= -.36441079E+03  d E =-.398857E-01
       N       E                     dE             d eps       ncg     rms          rms(c)
DAV:   1    -0.364399909354E+03    0.26796E-02   -0.28163E+00  4928   0.470E+00    0.502E-01
RMM:   2    -0.364407114753E+03   -0.72054E-02   -0.98455E-02  7146   0.894E-01    0.280E-01
RMM:   3    -0.364404963903E+03    0.21509E-02   -0.11185E-02  7418   0.226E-01    0.196E-01
RMM:   4    -0.364404530570E+03    0.43333E-03   -0.25585E-03  7741   0.810E-02    0.122E-01
RMM:   5    -0.364404486922E+03    0.43648E-04   -0.10608E-03  7590   0.585E-02    0.683E-02
RMM:   6    -0.364404457636E+03    0.29285E-04   -0.47221E-04  7653   0.359E-02    0.410E-02
RMM:   7    -0.364404452655E+03    0.49818E-05   -0.17977E-04  6472   0.198E-02    0.253E-02
RMM:   8    -0.364404459720E+03   -0.70658E-05   -0.52769E-05  4588   0.140E-02
  10 F= -.36440446E+03 E0= -.36441227E+03  d E =-.417580E-01
       N       E                     dE             d eps       ncg     rms          rms(c)
DAV:   1    -0.364438657681E+03   -0.34205E-01   -0.44827E+00  5320   0.657E+00    0.179E+00
RMM:   2    -0.364431083383E+03    0.75743E-02   -0.32547E-01  6596   0.150E+00    0.683E-01
RMM:   3    -0.364419913929E+03    0.11169E-01   -0.59976E-02  7578   0.496E-01    0.488E-01
RMM:   4    -0.364413398672E+03    0.65153E-02   -0.17262E-02  7662   0.258E-01    0.243E-01
RMM:   5    -0.364412758722E+03    0.63995E-03   -0.52726E-03  7536   0.150E-01    0.180E-01
RMM:   6    -0.364412928341E+03   -0.16962E-03   -0.20426E-03  7913   0.740E-02    0.124E-01
RMM:   7    -0.364413032518E+03   -0.10418E-03   -0.82498E-04  7598   0.516E-02    0.699E-02
RMM:   8    -0.364413116873E+03   -0.84355E-04   -0.46263E-04  6872   0.331E-02    0.450E-02
RMM:   9    -0.364413182573E+03   -0.65700E-04   -0.21603E-04  5723   0.254E-02    0.321E-02
RMM:  10    -0.364413236770E+03   -0.54197E-04   -0.14019E-04  5513   0.203E-02    0.172E-02
RMM:  11    -0.364413256959E+03   -0.20188E-04   -0.65257E-05  4716   0.163E-02    0.663E-03
RMM:  12    -0.364413259833E+03   -0.28745E-05   -0.20409E-05  3697   0.132E-02
  11 F= -.36441326E+03 E0= -.36442122E+03  d E =-.880011E-02
       N       E                     dE             d eps       ncg     rms          rms(c)
DAV:   1    -0.364413450507E+03   -0.19355E-03   -0.27522E-02  5592   0.516E-01    0.138E-01
RMM:   2    -0.364413397932E+03    0.52575E-04   -0.19363E-03  6300   0.118E-01    0.529E-02
RMM:   3    -0.364413334316E+03    0.63615E-04   -0.35436E-04  7425   0.395E-02    0.363E-02
RMM:   4    -0.364413300181E+03    0.34136E-04   -0.10860E-04  5619   0.199E-02    0.172E-02
RMM:   5    -0.364413298643E+03    0.15372E-05   -0.22218E-05  3108   0.150E-02
  12 F= -.36441330E+03 E0= -.36442127E+03  d E =-.883892E-02
       N       E                     dE             d eps       ncg     rms          rms(c)
DAV:   1    -0.364415208311E+03   -0.19081E-02   -0.39127E+00  5040   0.567E+00    0.594E-01
RMM:   2    -0.364426903437E+03   -0.11695E-01   -0.15347E-01  7155   0.109E+00    0.323E-01
RMM:   3    -0.364424180861E+03    0.27226E-02   -0.15789E-02  7484   0.286E-01    0.242E-01
RMM:   4    -0.364423650321E+03    0.53054E-03   -0.37491E-03  7980   0.994E-02    0.159E-01
RMM:   5    -0.364423548173E+03    0.10215E-03   -0.14825E-03  7593   0.705E-02    0.901E-02
RMM:   6    -0.364423494426E+03    0.53747E-04   -0.68291E-04  7768   0.477E-02    0.484E-02
RMM:   7    -0.364423465344E+03    0.29082E-04   -0.26102E-04  7012   0.237E-02    0.304E-02
RMM:   8    -0.364423461544E+03    0.38004E-05   -0.70822E-05  4857   0.151E-02
  13 F= -.36442346E+03 E0= -.36443184E+03  d E =-.101629E-01
       N       E                     dE             d eps       ncg     rms          rms(c)
DAV:   1    -0.364417734702E+03    0.57306E-02   -0.50967E+00  5040   0.647E+00    0.672E-01
RMM:   2    -0.364433013380E+03   -0.15279E-01   -0.19969E-01  7169   0.125E+00    0.364E-01
RMM:   3    -0.364429568559E+03    0.34448E-02   -0.20504E-02  7501   0.324E-01    0.273E-01
RMM:   4    -0.364428912995E+03    0.65556E-03   -0.48954E-03  7975   0.113E-01    0.179E-01
RMM:   5    -0.364428796210E+03    0.11678E-03   -0.19524E-03  7652   0.804E-02    0.103E-01
RMM:   6    -0.364428734657E+03    0.61553E-04   -0.91418E-04  7783   0.548E-02    0.559E-02
RMM:   7    -0.364428703544E+03    0.31113E-04   -0.35845E-04  7229   0.274E-02    0.362E-02
RMM:   8    -0.364428700544E+03    0.29999E-05   -0.10046E-04  5338   0.170E-02    0.211E-02
RMM:   9    -0.364428701310E+03   -0.76598E-06   -0.72055E-05  4676   0.143E-02
  14 F= -.36442870E+03 E0= -.36443747E+03  d E =-.154027E-01
       N       E                     dE             d eps       ncg     rms          rms(c)
DAV:   1    -0.364428227162E+03    0.47338E-03   -0.33601E-01  5248   0.166E+00    0.173E-01
RMM:   2    -0.364429233104E+03   -0.10059E-02   -0.13092E-02  7196   0.319E-01    0.931E-02
RMM:   3    -0.364429012803E+03    0.22030E-03   -0.13898E-03  7421   0.822E-02    0.680E-02
RMM:   4    -0.364428972360E+03    0.40443E-04   -0.34635E-04  7351   0.295E-02    0.439E-02
RMM:   5    -0.364428965276E+03    0.70846E-05   -0.13957E-04  6729   0.205E-02    0.252E-02
RMM:   6    -0.364428959331E+03    0.59448E-05   -0.58513E-05  4689   0.140E-02
  15 F= -.36442896E+03 E0= -.36443782E+03  d E =-.156607E-01
       N       E                     dE             d eps       ncg     rms          rms(c)
DAV:   1    -0.364431146783E+03   -0.21815E-02   -0.10165E+00  5040   0.281E+00    0.341E-01
RMM:   2    -0.364433137894E+03   -0.19911E-02   -0.37063E-02  7313   0.547E-01    0.166E-01
RMM:   3    -0.364432920147E+03    0.21775E-03   -0.43260E-03  7513   0.138E-01    0.113E-01
RMM:   4    -0.364432815571E+03    0.10458E-03   -0.12198E-03  7816   0.550E-02    0.736E-02
RMM:   5    -0.364432794779E+03    0.20792E-04   -0.49081E-04  7501   0.386E-02    0.448E-02
RMM:   6    -0.364432782205E+03    0.12574E-04   -0.19465E-04  7210   0.238E-02    0.245E-02
RMM:   7    -0.364432789915E+03   -0.77095E-05   -0.55591E-05  4494   0.141E-02
  16 F= -.36443279E+03 E0= -.36444159E+03  d E =-.383058E-02
       N       E                     dE             d eps       ncg     rms          rms(c)
DAV:   1    -0.364429753863E+03    0.30283E-02   -0.34984E+00  4928   0.522E+00    0.622E-01
RMM:   2    -0.364436786465E+03   -0.70326E-02   -0.12722E-01  7304   0.102E+00    0.304E-01
RMM:   3    -0.364436019471E+03    0.76699E-03   -0.14616E-02  7420   0.253E-01    0.207E-01
RMM:   4    -0.364435666275E+03    0.35320E-03   -0.40283E-03  7844   0.989E-02    0.136E-01
RMM:   5    -0.364435598823E+03    0.67453E-04   -0.16951E-03  7816   0.698E-02    0.829E-02
RMM:   6    -0.364435556537E+03    0.42285E-04   -0.66109E-04  7967   0.436E-02    0.467E-02
RMM:   7    -0.364435581285E+03   -0.24748E-04   -0.23189E-04  6245   0.228E-02    0.284E-02
RMM:   8    -0.364435594508E+03   -0.13223E-04   -0.11559E-04  5329   0.179E-02    0.184E-02
RMM:   9    -0.364435604665E+03   -0.10156E-04   -0.59235E-05  4975   0.144E-02    0.113E-02
RMM:  10    -0.364435609391E+03   -0.47261E-05   -0.17566E-05  3378   0.115E-02
  17 F= -.36443561E+03 E0= -.36444430E+03  d E =-.665006E-02
       N       E                     dE             d eps       ncg     rms          rms(c)
DAV:   1    -0.364440148570E+03   -0.45439E-02   -0.56461E-01  5376   0.226E+00    0.555E-01
RMM:   2    -0.364440197726E+03   -0.49156E-04   -0.37359E-02  7125   0.501E-01    0.239E-01
RMM:   3    -0.364438452245E+03    0.17455E-02   -0.68175E-03  7632   0.165E-01    0.164E-01
RMM:   4    -0.364437819798E+03    0.63245E-03   -0.20175E-03  7640   0.842E-02    0.826E-02
RMM:   5    -0.364437722941E+03    0.96857E-04   -0.57396E-04  7472   0.526E-02    0.585E-02
RMM:   6    -0.364437721751E+03    0.11897E-05   -0.25794E-04  6828   0.248E-02    0.423E-02
RMM:   7    -0.364437711211E+03    0.10540E-04   -0.94771E-05  5888   0.186E-02    0.234E-02
RMM:   8    -0.364437706903E+03    0.43081E-05   -0.57684E-05  4306   0.137E-02
  18 F= -.36443771E+03 E0= -.36444644E+03  d E =-.209751E-02
       N       E                     dE             d eps       ncg     rms          rms(c)
DAV:   1    -0.364441229202E+03   -0.35180E-02   -0.68672E-01  5264   0.249E+00    0.607E-01
RMM:   2    -0.364441303117E+03   -0.73915E-04   -0.44934E-02  7014   0.551E-01    0.261E-01
RMM:   3    -0.364439127445E+03    0.21757E-02   -0.79623E-03  7624   0.182E-01    0.175E-01
RMM:   4    -0.364438399756E+03    0.72769E-03   -0.23806E-03  7632   0.914E-02    0.884E-02
RMM:   5    -0.364438298379E+03    0.10138E-03   -0.67932E-04  7508   0.564E-02    0.640E-02
RMM:   6    -0.364438302927E+03   -0.45485E-05   -0.29959E-04  6840   0.267E-02    0.478E-02
RMM:   7    -0.364438296468E+03    0.64592E-05   -0.11428E-04  6041   0.206E-02    0.272E-02
RMM:   8    -0.364438294839E+03    0.16285E-05   -0.79184E-05  4789   0.155E-02
  19 F= -.36443829E+03 E0= -.36444708E+03  d E =-.268545E-02
       N       E                     dE             d eps       ncg     rms          rms(c)
DAV:   1    -0.364438943023E+03   -0.64656E-03   -0.29806E-01  5232   0.156E+00    0.112E-01
RMM:   2    -0.364439746179E+03   -0.80316E-03   -0.97133E-03  6404   0.290E-01    0.596E-02
RMM:   3    -0.364439715879E+03    0.30301E-04   -0.11443E-03  7300   0.805E-02    0.521E-02
RMM:   4    -0.364439706275E+03    0.96036E-05   -0.27016E-04  6777   0.215E-02    0.380E-02
RMM:   5    -0.364439701669E+03    0.46060E-05   -0.79870E-05  5627   0.151E-02
  20 F= -.36443970E+03 E0= -.36444847E+03  d E =-.140683E-02
       N       E                     dE             d eps       ncg     rms          rms(c)
DAV:   1    -0.364435764138E+03    0.39421E-02   -0.26788E+00  5024   0.468E+00    0.324E-01
RMM:   2    -0.364442948230E+03   -0.71841E-02   -0.86471E-02  5980   0.865E-01    0.162E-01
RMM:   3    -0.364442709327E+03    0.23890E-03   -0.10339E-02  7435   0.252E-01    0.147E-01
RMM:   4    -0.364442630162E+03    0.79165E-04   -0.21593E-03  8547   0.613E-02    0.104E-01
RMM:   5    -0.364442617039E+03    0.13124E-04   -0.68646E-04  7795   0.451E-02    0.625E-02
RMM:   6    -0.364442609784E+03    0.72550E-05   -0.35845E-04  7706   0.363E-02    0.241E-02
RMM:   7    -0.364442606261E+03    0.35226E-05   -0.12370E-04  6102   0.164E-02    0.165E-02
RMM:   8    -0.364442607213E+03   -0.95153E-06   -0.35395E-05  3650   0.130E-02
  21 F= -.36444261E+03 E0= -.36445127E+03  d E =-.431237E-02
       N       E                     dE             d eps       ncg     rms          rms(c)
DAV:   1    -0.364415230837E+03    0.27375E-01   -0.10735E+01  4928   0.937E+00    0.641E-01
RMM:   2    -0.364443893456E+03   -0.28663E-01   -0.34630E-01  5925   0.173E+00    0.316E-01
RMM:   3    -0.364442959266E+03    0.93419E-03   -0.40705E-02  7395   0.518E-01    0.286E-01
RMM:   4    -0.364442629720E+03    0.32955E-03   -0.85428E-03  8506   0.124E-01    0.199E-01
RMM:   5    -0.364442556825E+03    0.72896E-04   -0.26393E-03  8040   0.905E-02    0.119E-01
RMM:   6    -0.364442536086E+03    0.20738E-04   -0.13658E-03  8135   0.701E-02    0.473E-02
RMM:   7    -0.364442522425E+03    0.13661E-04   -0.47801E-04  8045   0.313E-02    0.311E-02
RMM:   8    -0.364442527767E+03   -0.53419E-05   -0.14542E-04  5732   0.186E-02    0.216E-02
RMM:   9    -0.364442539051E+03   -0.11284E-04   -0.10083E-04  5514   0.164E-02    0.110E-02
RMM:  10    -0.364442542687E+03   -0.36355E-05   -0.28808E-05  3627   0.115E-02
  22 F= -.36444254E+03 E0= -.36445094E+03  d E =-.424785E-02
       N       E                     dE             d eps       ncg     rms          rms(c)
DAV:   1    -0.364435189743E+03    0.73493E-02   -0.32604E+00  4928   0.517E+00    0.368E-01
RMM:   2    -0.364444013079E+03   -0.88233E-02   -0.10503E-01  5791   0.969E-01    0.178E-01
RMM:   3    -0.364443762309E+03    0.25077E-03   -0.12397E-02  7405   0.282E-01    0.172E-01
RMM:   4    -0.364443646159E+03    0.11615E-03   -0.24389E-03  8507   0.655E-02    0.126E-01
RMM:   5    -0.364443601339E+03    0.44820E-04   -0.72448E-04  7720   0.479E-02    0.773E-02
RMM:   6    -0.364443566839E+03    0.34500E-04   -0.43701E-04  7549   0.441E-02    0.278E-02
RMM:   7    -0.364443555087E+03    0.11752E-04   -0.13523E-04  6685   0.172E-02    0.195E-02
RMM:   8    -0.364443552094E+03    0.29925E-05   -0.33939E-05  3654   0.124E-02
  23 F= -.36444355E+03 E0= -.36445210E+03  d E =-.525725E-02
       N       E                     dE             d eps       ncg     rms          rms(c)
DAV:   1    -0.364443906252E+03   -0.35117E-03   -0.39043E-01  5024   0.180E+00    0.129E-01
RMM:   2    -0.364445125903E+03   -0.12197E-02   -0.13612E-02  6585   0.342E-01    0.792E-02
RMM:   3    -0.364444894198E+03    0.23170E-03   -0.13738E-03  7345   0.965E-02    0.558E-02
RMM:   4    -0.364444875317E+03    0.18881E-04   -0.29749E-04  7331   0.264E-02    0.352E-02
RMM:   5    -0.364444871402E+03    0.39149E-05   -0.10975E-04  6185   0.174E-02    0.201E-02
RMM:   6    -0.364444866679E+03    0.47233E-05   -0.41938E-05  4186   0.133E-02
  24 F= -.36444487E+03 E0= -.36445335E+03  d E =-.131458E-02
       N       E                     dE             d eps       ncg     rms          rms(c)
DAV:   1    -0.364441294191E+03    0.35772E-02   -0.19339E+00  4928   0.401E+00    0.290E-01
RMM:   2    -0.364447399168E+03   -0.61050E-02   -0.68207E-02  6740   0.764E-01    0.179E-01
RMM:   3    -0.364446353468E+03    0.10457E-02   -0.72445E-03  7417   0.212E-01    0.127E-01
RMM:   4    -0.364446270608E+03    0.82860E-04   -0.15759E-03  8335   0.598E-02    0.810E-02
RMM:   5    -0.364446260754E+03    0.98537E-05   -0.61155E-04  7727   0.416E-02    0.466E-02
RMM:   6    -0.364446243459E+03    0.17295E-04   -0.24841E-04  7340   0.290E-02    0.195E-02
RMM:   7    -0.364446239457E+03    0.40021E-05   -0.71644E-05  4711   0.140E-02
  25 F= -.36444624E+03 E0= -.36445456E+03  d E =-.268736E-02
       N       E                     dE             d eps       ncg     rms          rms(c)
DAV:   1    -0.364448629721E+03   -0.23863E-02   -0.50827E-01  5376   0.219E+00    0.518E-01
RMM:   2    -0.364448866449E+03   -0.23673E-03   -0.34858E-02  6762   0.488E-01    0.223E-01
RMM:   3    -0.364447377342E+03    0.14891E-02   -0.58421E-03  7623   0.162E-01    0.149E-01
RMM:   4    -0.364446855472E+03    0.52187E-03   -0.16455E-03  7626   0.763E-02    0.749E-02
RMM:   5    -0.364446801029E+03    0.54442E-04   -0.47119E-04  7460   0.470E-02    0.529E-02
RMM:   6    -0.364446821222E+03   -0.20193E-04   -0.21018E-04  6717   0.231E-02    0.380E-02
RMM:   7    -0.364446834228E+03   -0.13006E-04   -0.75885E-05  5411   0.170E-02    0.217E-02
RMM:   8    -0.364446847238E+03   -0.13009E-04   -0.46633E-05  4147   0.136E-02    0.122E-02
RMM:   9    -0.364446856198E+03   -0.89607E-05   -0.24280E-05  3626   0.116E-02
  26 F= -.36444686E+03 E0= -.36445506E+03  d E =-.616741E-03
       N       E                     dE             d eps       ncg     rms          rms(c)
DAV:   1    -0.364446859911E+03   -0.12673E-04   -0.61111E-04  5688   0.753E-02    0.164E-02
RMM:   2    -0.364446862258E+03   -0.23476E-05   -0.42842E-05  3996   0.173E-02
  27 F= -.36444686E+03 E0= -.36445506E+03  d E =-.622801E-03
       N       E                     dE             d eps       ncg     rms          rms(c)
DAV:   1    -0.364447037016E+03   -0.17711E-03   -0.10920E-01  5104   0.944E-01    0.968E-02
RMM:   2    -0.364447335947E+03   -0.29893E-03   -0.41187E-03  7251   0.184E-01    0.528E-02
RMM:   3    -0.364447292357E+03    0.43591E-04   -0.46835E-04  7298   0.484E-02    0.395E-02
RMM:   4    -0.364447278285E+03    0.14072E-04   -0.10682E-04  6039   0.164E-02    0.265E-02
RMM:   5    -0.364447274630E+03    0.36544E-05   -0.37105E-05  4017   0.113E-02
  28 F= -.36444727E+03 E0= -.36445547E+03  d E =-.412372E-03
       N       E                     dE             d eps       ncg     rms          rms(c)
DAV:   1    -0.364445620618E+03    0.16577E-02   -0.97809E-01  4928   0.283E+00    0.284E-01
RMM:   2    -0.364448237068E+03   -0.26164E-02   -0.36645E-02  7192   0.550E-01    0.151E-01
RMM:   3    -0.364447851305E+03    0.38576E-03   -0.39505E-03  7451   0.144E-01    0.113E-01
RMM:   4    -0.364447737997E+03    0.11331E-03   -0.88371E-04  8051   0.464E-02    0.754E-02
RMM:   5    -0.364447722905E+03    0.15093E-04   -0.40804E-04  7608   0.357E-02    0.451E-02
RMM:   6    -0.364447697493E+03    0.25412E-04   -0.17677E-04  7132   0.245E-02    0.231E-02
RMM:   7    -0.364447693669E+03    0.38242E-05   -0.59689E-05  4528   0.136E-02
  29 F= -.36444769E+03 E0= -.36445588E+03  d E =-.831411E-03
       N       E                     dE             d eps       ncg     rms          rms(c)
DAV:   1    -0.364447664136E+03    0.33357E-04   -0.20916E-02  5264   0.413E-01    0.454E-02
RMM:   2    -0.364447715242E+03   -0.51105E-04   -0.78016E-04  6764   0.802E-02    0.213E-02
RMM:   3    -0.364447703684E+03    0.11558E-04   -0.72738E-05  5152   0.234E-02    0.170E-02
RMM:   4    -0.364447698858E+03    0.48262E-05   -0.13948E-05  2774   0.942E-03
  30 F= -.36444770E+03 E0= -.36445588E+03  d E =-.836600E-03
       N       E                     dE             d eps       ncg     rms          rms(c)
DAV:   1    -0.364447881284E+03   -0.17760E-03   -0.17496E-02  5136   0.410E-01    0.826E-02
RMM:   2    -0.364447895554E+03   -0.14270E-04   -0.10745E-03  7068   0.889E-02    0.350E-02
RMM:   3    -0.364447865452E+03    0.30101E-04   -0.15389E-04  6543   0.294E-02    0.248E-02
RMM:   4    -0.364447849303E+03    0.16150E-04   -0.41022E-05  4689   0.149E-02    0.132E-02
RMM:   5    -0.364447845622E+03    0.36801E-05   -0.11168E-05  2774   0.954E-03
  31 F= -.36444785E+03 E0= -.36445603E+03  d E =-.146765E-03
       N       E                     dE             d eps       ncg     rms          rms(c)
DAV:   1    -0.364448343950E+03   -0.49465E-03   -0.15664E-01  4968   0.123E+00    0.245E-01
RMM:   2    -0.364448434662E+03   -0.90712E-04   -0.97037E-03  7152   0.265E-01    0.106E-01
RMM:   3    -0.364448175206E+03    0.25946E-03   -0.14618E-03  7500   0.848E-02    0.782E-02
RMM:   4    -0.364448027718E+03    0.14749E-03   -0.40236E-04  7401   0.379E-02    0.429E-02
RMM:   5    -0.364448003866E+03    0.23852E-04   -0.15415E-04  6939   0.229E-02    0.303E-02
RMM:   6    -0.364447998008E+03    0.58578E-05   -0.55273E-05  4517   0.136E-02
  32 F= -.36444800E+03 E0= -.36445618E+03  d E =-.299150E-03
       N       E                     dE             d eps       ncg     rms          rms(c)
DAV:   1    -0.364448078772E+03   -0.74906E-04   -0.94305E-03  5392   0.294E-01    0.580E-02
RMM:   2    -0.364448089787E+03   -0.11015E-04   -0.58629E-04  7402   0.646E-02    0.272E-02
RMM:   3    -0.364448082352E+03    0.74348E-05   -0.98549E-05  5836   0.201E-02
  33 F= -.36444808E+03 E0= -.36445626E+03  d E =-.843440E-04
       N       E                     dE             d eps       ncg     rms          rms(c)
DAV:   1    -0.364448233358E+03   -0.14357E-03   -0.84114E-02  5024   0.881E-01    0.156E-01
RMM:   2    -0.364448335149E+03   -0.10179E-03   -0.47696E-03  7162   0.186E-01    0.673E-02
RMM:   3    -0.364448257212E+03    0.77938E-04   -0.61641E-04  7370   0.567E-02    0.514E-02
RMM:   4    -0.364448206946E+03    0.50266E-04   -0.19192E-04  7077   0.245E-02    0.289E-02
RMM:   5    -0.364448200552E+03    0.63937E-05   -0.72508E-05  5906   0.158E-02
  34 F= -.36444820E+03 E0= -.36445632E+03  d E =-.202544E-03
       N       E                     dE             d eps       ncg     rms          rms(c)
DAV:   1    -0.364448205067E+03    0.18795E-05   -0.71787E-03  5168   0.258E-01    0.418E-02
RMM:   2    -0.364448218718E+03   -0.13651E-04   -0.40890E-04  7274   0.538E-02    0.208E-02
RMM:   3    -0.364448210301E+03    0.84173E-05   -0.53634E-05  4993   0.159E-02
  35 F= -.36444821E+03 E0= -.36445633E+03  d E =-.212293E-03
       N       E                     dE             d eps       ncg     rms          rms(c)
DAV:   1    -0.364448205017E+03    0.13701E-04   -0.38047E-03  5240   0.185E-01    0.325E-02
RMM:   2    -0.364448209220E+03   -0.42031E-05   -0.23701E-04  7342   0.397E-02    0.155E-02
RMM:   3    -0.364448206289E+03    0.29307E-05   -0.27724E-05  3611   0.114E-02
  36 F= -.36444821E+03 E0= -.36445631E+03  d E =-.208281E-03
       N       E                     dE             d eps       ncg     rms          rms(c)
DAV:   1    -0.364448211748E+03   -0.25280E-05   -0.10289E-03  5360   0.997E-02    0.194E-02
RMM:   2    -0.364448219207E+03   -0.74595E-05   -0.64986E-05  5500   0.216E-02
  37 F= -.36444822E+03 E0= -.36445632E+03  d E =-.221199E-03
       N       E                     dE             d eps       ncg     rms          rms(c)
DAV:   1    -0.364448259964E+03   -0.48216E-04   -0.59608E-03  5104   0.227E-01    0.249E-02
RMM:   2    -0.364448269151E+03   -0.91865E-05   -0.24361E-04  6849   0.458E-02    0.121E-02
RMM:   3    -0.364448267513E+03    0.16379E-05   -0.21597E-05  3111   0.134E-02
  38 F= -.36444827E+03 E0= -.36445637E+03  d E =-.483054E-04
       N       E                     dE             d eps       ncg     rms          rms(c)
DAV:   1    -0.364448313054E+03   -0.43903E-04   -0.52097E-02  4944   0.669E-01    0.760E-02
RMM:   2    -0.364448401892E+03   -0.88839E-04   -0.22009E-03  7364   0.133E-01    0.405E-02
RMM:   3    -0.364448392757E+03    0.91356E-05   -0.30153E-04  7074   0.364E-02    0.301E-02
RMM:   4    -0.364448374775E+03    0.17982E-04   -0.94080E-05  5952   0.170E-02    0.141E-02
RMM:   5    -0.364448375225E+03   -0.44949E-06   -0.32729E-05  3583   0.105E-02
  39 F= -.36444838E+03 E0= -.36445647E+03  d E =-.156017E-03
       N       E                     dE             d eps       ncg     rms          rms(c)
DAV:   1    -0.364448123527E+03    0.25125E-03   -0.20826E-01  4928   0.134E+00    0.149E-01
RMM:   2    -0.364448491482E+03   -0.36795E-03   -0.86375E-03  7368   0.266E-01    0.784E-02
RMM:   3    -0.364448456390E+03    0.35092E-04   -0.11434E-03  7417   0.721E-02    0.585E-02
RMM:   4    -0.364448384568E+03    0.71822E-04   -0.34449E-04  7606   0.319E-02    0.277E-02
RMM:   5    -0.364448385098E+03   -0.52988E-06   -0.12898E-04  5836   0.201E-02    0.156E-02
RMM:   6    -0.364448386434E+03   -0.13362E-05   -0.55641E-05  4127   0.132E-02
  40 F= -.36444839E+03 E0= -.36445645E+03  d E =-.167227E-03
       N       E                     dE             d eps       ncg     rms          rms(c)
DAV:   1    -0.364448383857E+03    0.12409E-05   -0.47573E-02  4944   0.642E-01    0.723E-02
RMM:   2    -0.364448462264E+03   -0.78407E-04   -0.18934E-03  7173   0.127E-01    0.367E-02
RMM:   3    -0.364448446946E+03    0.15318E-04   -0.20801E-04  6991   0.339E-02    0.278E-02
RMM:   4    -0.364448426244E+03    0.20702E-04   -0.54270E-05  5315   0.148E-02    0.122E-02
RMM:   5    -0.364448424073E+03    0.21713E-05   -0.16802E-05  2837   0.943E-03
  41 F= -.36444842E+03 E0= -.36445650E+03  d E =-.204866E-03
       N       E                     dE             d eps       ncg     rms          rms(c)
DAV:   1    -0.364448671282E+03   -0.24504E-03   -0.20957E-02  5448   0.465E-01    0.133E-01
RMM:   2    -0.364448620105E+03    0.51177E-04   -0.17070E-03  7067   0.111E-01    0.511E-02
RMM:   3    -0.364448541872E+03    0.78233E-04   -0.31612E-04  7336   0.354E-02    0.372E-02
RMM:   4    -0.364448503053E+03    0.38819E-04   -0.91445E-05  5891   0.198E-02    0.187E-02
RMM:   5    -0.364448494836E+03    0.82172E-05   -0.18230E-05  2856   0.132E-02
  42 F= -.36444849E+03 E0= -.36445659E+03  d E =-.707629E-04
       N       E                     dE             d eps       ncg     rms          rms(c)
DAV:   1    -0.364448579659E+03   -0.76606E-04   -0.10827E-02  5376   0.336E-01    0.911E-02
RMM:   2    -0.364448559045E+03    0.20615E-04   -0.88525E-04  7209   0.812E-02    0.358E-02
RMM:   3    -0.364448513896E+03    0.45148E-04   -0.14459E-04  6302   0.252E-02    0.267E-02
RMM:   4    -0.364448494540E+03    0.19356E-04   -0.40672E-05  3541   0.161E-02    0.163E-02
RMM:   5    -0.364448490856E+03    0.36836E-05   -0.14069E-05  2827   0.121E-02
  43 F= -.36444849E+03 E0= -.36445660E+03  d E =-.667831E-04
       N       E                     dE             d eps       ncg     rms          rms(c)
DAV:   1    -0.364448514059E+03   -0.19519E-04   -0.11399E-02  5040   0.305E-01    0.260E-02
RMM:   2    -0.364448542678E+03   -0.28619E-04   -0.40912E-04  7091   0.595E-02    0.161E-02
RMM:   3    -0.364448538308E+03    0.43701E-05   -0.41773E-05  3951   0.176E-02
  44 F= -.36444854E+03 E0= -.36445664E+03  d E =-.474516E-04
