<?xml version="1.0" encoding="ISO-8859-1"?>
<modeling>
 <generator>
  <i name="program" type="string">vasp </i>
  <i name="version" type="string">5.4.1  </i>
  <i name="subversion" type="string">05Feb16 (build Jan 29 2020 16:04:39) complex                          parallel </i>
  <i name="platform" type="string">IFC91_ompi </i>
  <i name="date" type="string">2020 06 15 </i>
  <i name="time" type="string">13:29:35 </i>
 </generator>
 <incar>
  <i type="string" name="SYSTEM"> automatically generated by mexm</i>
  <i type="int" name="ISTART">     0</i>
  <i type="string" name="PREC">accurate               ! avoid wrap aro</i>
  <i type="string" name="ALGO"> Fast                   ! blocked Davids</i>
  <i type="int" name="ISPIN">     1</i>
  <i type="int" name="ICHARG">     2</i>
  <i type="int" name="NELM">    70</i>
  <i type="int" name="IBRION">     2</i>
  <i name="EDIFF">      0.00001000</i>
  <i name="EDIFFG">     -0.01000000</i>
  <i type="int" name="NSW">   300</i>
  <i type="int" name="ISIF">     3</i>
  <i type="int" name="ISYM">     1</i>
  <i name="ENCUT">    300.00000000</i>
  <i name="POTIM">      0.15000000</i>
  <i type="string" name="LREAL"> Auto                  ! unpublished met</i>
  <i type="int" name="ISMEAR">     1</i>
  <i name="SIGMA">      0.15000000</i>
  <i type="logical" name="LWAVE"> F  </i>
  <i type="logical" name="LCHARG"> F  </i>
  <i type="logical" name="LVTOT"> F  </i>
  <v type="int" name="KPOINT_BSE">    -1     0     0     0</v>
  <i type="int" name="NELM">    70</i>
 </incar>
 <kpoints>
  <generation param="Gamma">
   <v type="int" name="divisions">       3        3        3 </v>
   <v name="usershift">      0.00000000       0.00000000       0.00000000 </v>
   <v name="genvec1">      0.33333333       0.00000000       0.00000000 </v>
   <v name="genvec2">     -0.00000000       0.33333333       0.00000000 </v>
   <v name="genvec3">      0.00000000      -0.00000000       0.33333333 </v>
   <v name="shift">      0.00000000       0.00000000       0.00000000 </v>
  </generation>
  <varray name="kpointlist" >
   <v>       0.00000000       0.00000000       0.00000000 </v>
   <v>       0.33333333       0.00000000       0.00000000 </v>
   <v>      -0.00000000       0.33333333       0.00000000 </v>
   <v>       0.33333333       0.33333333       0.00000000 </v>
   <v>      -0.33333333       0.33333333      -0.00000000 </v>
   <v>      -0.00000000      -0.00000000       0.33333333 </v>
   <v>       0.33333333       0.00000000       0.33333333 </v>
   <v>      -0.33333333      -0.00000000       0.33333333 </v>
   <v>      -0.00000000       0.33333333       0.33333333 </v>
   <v>       0.33333333       0.33333333       0.33333333 </v>
   <v>      -0.33333333       0.33333333       0.33333333 </v>
   <v>       0.00000000      -0.33333333       0.33333333 </v>
   <v>       0.33333333      -0.33333333       0.33333333 </v>
   <v>      -0.33333333      -0.33333333       0.33333333 </v>
  </varray>
  <varray name="weights" >
   <v>       0.03703704 </v>
   <v>       0.07407407 </v>
   <v>       0.07407407 </v>
   <v>       0.07407407 </v>
   <v>       0.07407407 </v>
   <v>       0.07407407 </v>
   <v>       0.07407407 </v>
   <v>       0.07407407 </v>
   <v>       0.07407407 </v>
   <v>       0.07407407 </v>
   <v>       0.07407407 </v>
   <v>       0.07407407 </v>
   <v>       0.07407407 </v>
   <v>       0.07407407 </v>
  </varray>
 </kpoints>
 <parameters>
  <separator name="general" >
   <i type="string" name="SYSTEM">automatically generated by mexm</i>
   <i type="logical" name="LCOMPAT"> F  </i>
  </separator>
  <separator name="electronic" >
   <i type="string" name="PREC">accura</i>
   <i name="ENMAX">    300.00000000</i>
   <i name="ENAUG">    461.25700000</i>
   <i name="EDIFF">      0.00001000</i>
   <i type="int" name="IALGO">    68</i>
   <i type="int" name="IWAVPR">    11</i>
   <i type="int" name="NBANDS">   196</i>
   <i name="NELECT">    325.00000000</i>
   <i type="int" name="TURBO">     0</i>
   <i type="int" name="IRESTART">     0</i>
   <i type="int" name="NREBOOT">     0</i>
   <i type="int" name="NMIN">     0</i>
   <i name="EREF">      0.00000000</i>
   <separator name="electronic smearing" >
    <i type="int" name="ISMEAR">     1</i>
    <i name="SIGMA">      0.15000000</i>
    <i name="KSPACING">      0.50000000</i>
    <i type="logical" name="KGAMMA"> T  </i>
   </separator>
   <separator name="electronic projectors" >
    <i type="logical" name="LREAL"> T  </i>
    <v name="ROPT">     -0.00025000     -0.00025000     -0.00025000     -0.00025000</v>
    <i type="int" name="LMAXPAW">  -100</i>
    <i type="int" name="LMAXMIX">     2</i>
    <i type="logical" name="NLSPLINE"> F  </i>
   </separator>
   <separator name="electronic startup" >
    <i type="int" name="ISTART">     0</i>
    <i type="int" name="ICHARG">     2</i>
    <i type="int" name="INIWAV">     1</i>
   </separator>
   <separator name="electronic spin" >
    <i type="int" name="ISPIN">     1</i>
    <i type="logical" name="LNONCOLLINEAR"> F  </i>
    <v name="MAGMOM">      1.00000000      1.00000000      1.00000000      1.00000000      1.00000000      1.00000000      1.00000000      1.00000000      1.00000000      1.00000000      1.00000000      1.00000000      1.00000000      1.00000000      1.00000000      1.00000000      1.00000000      1.00000000      1.00000000      1.00000000
      1.00000000      1.00000000      1.00000000      1.00000000      1.00000000      1.00000000      1.00000000      1.00000000      1.00000000      1.00000000      1.00000000      1.00000000      1.00000000      1.00000000      1.00000000      1.00000000</v>
    <i name="NUPDOWN">     -1.00000000</i>
    <i type="logical" name="LSORBIT"> F  </i>
    <v name="SAXIS">      0.00000000      0.00000000      1.00000000</v>
    <i type="logical" name="LSPIRAL"> F  </i>
    <v name="QSPIRAL">      0.00000000      0.00000000      0.00000000</v>
    <i type="logical" name="LZEROZ"> F  </i>
   </separator>
   <separator name="electronic exchange-correlation" >
    <i type="logical" name="LASPH"> F  </i>
    <i type="logical" name="LMETAGGA"> F  </i>
   </separator>
   <separator name="electronic convergence" >
    <i type="int" name="NELM">    70</i>
    <i type="int" name="NELMDL">    -5</i>
    <i type="int" name="NELMIN">     2</i>
    <i name="ENINI">    300.00000000</i>
    <separator name="electronic convergence detail" >
     <i type="logical" name="LDIAG"> T  </i>
     <i type="logical" name="LSUBROT"> F  </i>
     <i name="WEIMIN">      0.00100000</i>
     <i name="EBREAK">      0.00000001</i>
     <i name="DEPER">      0.30000000</i>
     <i type="int" name="NRMM">     4</i>
     <i name="TIME">      0.40000000</i>
    </separator>
   </separator>
   <separator name="electronic mixer" >
    <i name="AMIX">      0.40000000</i>
    <i name="BMIX">      1.00000000</i>
    <i name="AMIN">      0.10000000</i>
    <i name="AMIX_MAG">      1.60000000</i>
    <i name="BMIX_MAG">      1.00000000</i>
    <separator name="electronic mixer details" >
     <i type="int" name="IMIX">     4</i>
     <i type="logical" name="MIXFIRST"> F  </i>
     <i type="int" name="MAXMIX">   -45</i>
     <i name="WC">    100.00000000</i>
     <i type="int" name="INIMIX">     1</i>
     <i type="int" name="MIXPRE">     1</i>
     <i type="int" name="MREMOVE">     5</i>
    </separator>
   </separator>
   <separator name="electronic dipolcorrection" >
    <i type="logical" name="LDIPOL"> F  </i>
    <i type="logical" name="LMONO"> F  </i>
    <i type="int" name="IDIPOL">     0</i>
    <i name="EPSILON">      1.00000000</i>
    <v name="DIPOL">   -100.00000000   -100.00000000   -100.00000000</v>
    <i name="EFIELD">      0.00000000</i>
   </separator>
  </separator>
  <separator name="grids" >
   <i type="int" name="NGX">    40</i>
   <i type="int" name="NGY">    60</i>
   <i type="int" name="NGZ">    60</i>
   <i type="int" name="NGXF">    80</i>
   <i type="int" name="NGYF">   120</i>
   <i type="int" name="NGZF">   120</i>
   <i type="logical" name="ADDGRID"> F  </i>
  </separator>
  <separator name="ionic" >
   <i type="int" name="NSW">   300</i>
   <i type="int" name="IBRION">     2</i>
   <i type="int" name="ISIF">     3</i>
   <i name="PSTRESS">      0.00000000</i>
   <i name="EDIFFG">     -0.01000000</i>
   <i type="int" name="NFREE">     1</i>
   <i name="POTIM">      0.15000000</i>
   <i name="SMASS">     -3.00000000</i>
   <i name="SCALEE">      1.00000000</i>
  </separator>
  <separator name="ionic md" >
   <i name="TEBEG">      0.00010000</i>
   <i name="TEEND">      0.00010000</i>
   <i type="int" name="NBLOCK">     1</i>
   <i type="int" name="KBLOCK">   300</i>
   <i type="int" name="NPACO">   256</i>
   <i name="APACO">     16.00000000</i>
  </separator>
  <separator name="symmetry" >
   <i type="int" name="ISYM">     1</i>
   <i name="SYMPREC">      0.00001000</i>
  </separator>
  <separator name="dos" >
   <i type="logical" name="LORBIT"> F  </i>
   <v name="RWIGS">     -1.00000000     -1.00000000     -1.00000000     -1.00000000</v>
   <i type="int" name="NEDOS">   301</i>
   <i name="EMIN">     10.00000000</i>
   <i name="EMAX">    -10.00000000</i>
   <i name="EFERMI">      0.00000000</i>
  </separator>
  <separator name="writing" >
   <i type="int" name="NWRITE">     2</i>
   <i type="logical" name="LWAVE"> F  </i>
   <i type="logical" name="LCHARG"> F  </i>
   <i type="logical" name="LPARD"> F  </i>
   <i type="logical" name="LVTOT"> F  </i>
   <i type="logical" name="LVHAR"> F  </i>
   <i type="logical" name="LELF"> F  </i>
   <i type="logical" name="LOPTICS"> F  </i>
   <v name="STM">      0.00000000      0.00000000      0.00000000      0.00000000      0.00000000      0.00000000      0.00000000</v>
  </separator>
  <separator name="performance" >
   <i type="int" name="NPAR">     4</i>
   <i type="int" name="NSIM">     4</i>
   <i type="int" name="NBLK">    -1</i>
   <i type="logical" name="LPLANE"> T  </i>
   <i type="logical" name="LSCALAPACK"> T  </i>
   <i type="logical" name="LSCAAWARE"> F  </i>
   <i type="logical" name="LSCALU"> F  </i>
   <i type="logical" name="LASYNC"> F  </i>
   <i type="logical" name="LORBITALREAL"> F  </i>
  </separator>
  <separator name="miscellaneous" >
   <i type="int" name="IDIOT">     3</i>
   <i type="logical" name="LMUSIC"> F  </i>
   <v name="POMASS">     91.22400000    178.49000000    180.94800000     92.91000000</v>
   <v name="DARWINR">      0.00000000      0.00000000      0.00000000      0.00000000</v>
   <v name="DARWINV">      1.00000000      1.00000000      1.00000000      1.00000000</v>
   <i type="logical" name="LCORR"> T  </i>
  </separator>
  <i type="logical" name="GGA_COMPAT"> T  </i>
  <i type="logical" name="LBERRY"> F  </i>
  <i type="int" name="ICORELEVEL">     0</i>
  <i type="logical" name="LDAU"> F  </i>
  <i type="int" name="I_CONSTRAINED_M">     0</i>
  <separator name="electronic exchange-correlation" >
   <i type="string" name="GGA">--</i>
   <i type="int" name="VOSKOWN">     0</i>
   <i type="logical" name="LHFCALC"> F  </i>
   <i type="string" name="PRECFOCK"></i>
   <i type="logical" name="LSYMGRAD"> F  </i>
   <i type="logical" name="LHFONE"> F  </i>
   <i type="logical" name="LRHFCALC"> F  </i>
   <i type="logical" name="LTHOMAS"> F  </i>
   <i type="logical" name="LMODELHF"> F  </i>
   <i name="ENCUT4O">     -1.00000000</i>
   <i type="int" name="EXXOEP">     0</i>
   <i type="int" name="FOURORBIT">     0</i>
   <i name="AEXX">      0.00000000</i>
   <i name="HFALPHA">      0.00000000</i>
   <i name="MCALPHA">      0.00000000</i>
   <i name="ALDAX">      1.00000000</i>
   <i name="AGGAX">      1.00000000</i>
   <i name="ALDAC">      1.00000000</i>
   <i name="AGGAC">      1.00000000</i>
   <i type="int" name="NKREDX">     1</i>
   <i type="int" name="NKREDY">     1</i>
   <i type="int" name="NKREDZ">     1</i>
   <i type="logical" name="SHIFTRED"> F  </i>
   <i type="logical" name="ODDONLY"> F  </i>
   <i type="logical" name="EVENONLY"> F  </i>
   <i type="int" name="LMAXFOCK">     0</i>
   <i type="int" name="NMAXFOCKAE">     0</i>
   <i type="logical" name="LFOCKAEDFT"> F  </i>
   <i name="HFSCREEN">      0.00000000</i>
   <i name="HFSCREENC">      0.00000000</i>
   <i type="int" name="NBANDSGWLOW">     0</i>
  </separator>
  <separator name="vdW DFT" >
   <i type="logical" name="LUSE_VDW"> F  </i>
   <i name="Zab_VDW">     -0.84910000</i>
   <i name="PARAM1">      0.12340000</i>
   <i name="PARAM2">      1.00000000</i>
   <i name="PARAM3">      0.00000000</i>
  </separator>
  <separator name="model GW" >
   <i type="int" name="MODEL_GW">     0</i>
   <i name="MODEL_EPS0">     11.95825212</i>
   <i name="MODEL_ALPHA">      1.00000000</i>
  </separator>
  <separator name="linear response parameters" >
   <i type="logical" name="LEPSILON"> F  </i>
   <i type="logical" name="LRPA"> F  </i>
   <i type="logical" name="LNABLA"> F  </i>
   <i type="logical" name="LVEL"> F  </i>
   <i type="int" name="KINTER">     0</i>
   <i name="CSHIFT">      0.10000000</i>
   <i name="OMEGAMAX">     -1.00000000</i>
   <i name="DEG_THRESHOLD">      0.00200000</i>
  </separator>
  <separator name="orbital magnetization" >
   <i type="logical" name="NUCIND"> F  </i>
   <v name="MAGPOS">      0.00000000      0.00000000      0.00000000</v>
   <i type="logical" name="LNICSALL"> T  </i>
   <i type="logical" name="ORBITALMAG"> F  </i>
   <i type="logical" name="LMAGBLOCH"> F  </i>
   <i type="logical" name="LCHIMAG"> F  </i>
   <i type="logical" name="LGAUGE"> T  </i>
   <i type="int" name="MAGATOM">     0</i>
   <v name="MAGDIPOL">      0.00000000      0.00000000      0.00000000</v>
   <v name="AVECCONST">      0.00000000      0.00000000      0.00000000</v>
  </separator>
  <separator name="response functions" >
   <i type="logical" name="LADDER"> F  </i>
   <i type="logical" name="LFXC"> F  </i>
   <i type="logical" name="LHARTREE"> T  </i>
   <i type="int" name="IBSE">     0</i>
   <v type="int" name="KPOINT">    -1     0     0     0</v>
   <i type="logical" name="LTCTE"> F  </i>
   <i type="logical" name="LTETE"> F  </i>
   <i type="logical" name="LTRIPLET"> F  </i>
   <i type="logical" name="LFXCEPS"> F  </i>
   <i type="logical" name="LFXHEG"> F  </i>
   <i type="int" name="NATURALO">     0</i>
   <i type="logical" name="L2ORDER"> F  </i>
   <i type="logical" name="LUSEW"> F  </i>
   <i name="ENCUTGW">     -2.00000000</i>
   <i name="ENCUTGWSOFT">     -2.00000000</i>
   <i name="ENCUTLF">     -1.00000000</i>
   <i type="int" name="LMAXMP2">    -1</i>
   <i name="SCISSOR">      0.00000000</i>
   <i type="int" name="NOMEGA">     0</i>
   <i type="int" name="NOMEGAR">     0</i>
   <i type="int" name="NBANDSGW">    -1</i>
   <i type="int" name="NBANDSO">    -1</i>
   <i type="int" name="NBANDSV">    -1</i>
   <i type="int" name="NELM">    70</i>
   <i type="int" name="NELMHF">     1</i>
   <i type="int" name="DIM">     3</i>
   <i type="int" name="ANTIRES">     0</i>
   <i name="OMEGAMAX">    -30.00000000</i>
   <i name="OMEGAMIN">    -30.00000000</i>
   <i name="OMEGATL">   -200.00000000</i>
   <i type="int" name="OMEGAGRID">     0</i>
   <i name="CSHIFT">     -0.10000000</i>
   <i type="logical" name="SELFENERGY"> F  </i>
   <i type="logical" name="LSPECTRAL"> F  </i>
   <i type="logical" name="LSPECTRALGW"> F  </i>
   <i type="logical" name="LSINGLES"> F  </i>
   <i type="logical" name="LFERMIGW"> F  </i>
   <i type="logical" name="ODDONLYGW"> F  </i>
   <i type="logical" name="EVENONLYGW"> F  </i>
   <i type="int" name="NKREDLFX">     1</i>
   <i type="int" name="NKREDLFY">     1</i>
   <i type="int" name="NKREDLFZ">     1</i>
   <i type="int" name="MAXMEM">  1800</i>
   <i type="int" name="TELESCOPE">     0</i>
   <i type="int" name="TAUPAR">     1</i>
   <i type="int" name="OMEGAPAR">    -1</i>
   <i name="LAMBDA">      1.00000000</i>
  </separator>
  <separator name="External order field" >
   <i name="OFIELD_KAPPA">      0.00000000</i>
   <v name="OFIELD_K">      0.00000000      0.00000000      0.00000000</v>
   <i name="OFIELD_Q6_NEAR">      0.00000000</i>
   <i name="OFIELD_Q6_FAR">      0.00000000</i>
   <i name="OFIELD_A">      0.00000000</i>
  </separator>
 </parameters>
 <atominfo>
  <atoms>      36 </atoms>
  <types>       4 </types>
  <array name="atoms" >
   <dimension dim="1">ion</dimension>
   <field type="string">element</field>
   <field type="int">atomtype</field>
   <set>
    <rc><c>Zr</c><c>   1</c></rc>
    <rc><c>Zr</c><c>   1</c></rc>
    <rc><c>Zr</c><c>   1</c></rc>
    <rc><c>Zr</c><c>   1</c></rc>
    <rc><c>Zr</c><c>   1</c></rc>
    <rc><c>Zr</c><c>   1</c></rc>
    <rc><c>Zr</c><c>   1</c></rc>
    <rc><c>Zr</c><c>   1</c></rc>
    <rc><c>Zr</c><c>   1</c></rc>
    <rc><c>Hf</c><c>   2</c></rc>
    <rc><c>Hf</c><c>   2</c></rc>
    <rc><c>Hf</c><c>   2</c></rc>
    <rc><c>Hf</c><c>   2</c></rc>
    <rc><c>Hf</c><c>   2</c></rc>
    <rc><c>Hf</c><c>   2</c></rc>
    <rc><c>Ta</c><c>   3</c></rc>
    <rc><c>Ta</c><c>   3</c></rc>
    <rc><c>Ta</c><c>   3</c></rc>
    <rc><c>Ta</c><c>   3</c></rc>
    <rc><c>Ta</c><c>   3</c></rc>
    <rc><c>Ta</c><c>   3</c></rc>
    <rc><c>Ta</c><c>   3</c></rc>
    <rc><c>Ta</c><c>   3</c></rc>
    <rc><c>Ta</c><c>   3</c></rc>
    <rc><c>Ta</c><c>   3</c></rc>
    <rc><c>Nb</c><c>   4</c></rc>
    <rc><c>Nb</c><c>   4</c></rc>
    <rc><c>Nb</c><c>   4</c></rc>
    <rc><c>Nb</c><c>   4</c></rc>
    <rc><c>Nb</c><c>   4</c></rc>
    <rc><c>Nb</c><c>   4</c></rc>
    <rc><c>Nb</c><c>   4</c></rc>
    <rc><c>Nb</c><c>   4</c></rc>
    <rc><c>Nb</c><c>   4</c></rc>
    <rc><c>Nb</c><c>   4</c></rc>
    <rc><c>Nb</c><c>   4</c></rc>
   </set>
  </array>
  <array name="atomtypes" >
   <dimension dim="1">type</dimension>
   <field type="int">atomspertype</field>
   <field type="string">element</field>
   <field>mass</field>
   <field>valence</field>
   <field type="string">pseudopotential</field>
   <set>
    <rc><c>   9</c><c>Zr</c><c>     91.22400000</c><c>     12.00000000</c><c>  PAW_PBE Zr_sv 04Jan2005               </c></rc>
    <rc><c>   6</c><c>Hf</c><c>    178.49000000</c><c>      4.00000000</c><c>  PAW_PBE Hf 20Jan2003                  </c></rc>
    <rc><c>  10</c><c>Ta</c><c>    180.94800000</c><c>      5.00000000</c><c>  PAW_PBE Ta 17Jan2003                  </c></rc>
    <rc><c>  11</c><c>Nb</c><c>     92.91000000</c><c>     13.00000000</c><c>  PAW_PBE Nb_sv 25May2007               </c></rc>
   </set>
  </array>
 </atominfo>
 <structure name="initialpos" >
  <crystal>
   <varray name="basis" >
    <v>       6.89240779      -0.02926143      -0.00807109 </v>
    <v>      -0.04235075      10.17728973      -0.00847015 </v>
    <v>      -0.01200686      -0.00870460      10.22879404 </v>
   </varray>
   <i name="volume">    717.49512730 </i>
   <varray name="rec_basis" >
    <v>       0.14508994       0.00060390       0.00017082 </v>
    <v>       0.00041726       0.09825979       0.00008411 </v>
    <v>       0.00011483       0.00008184       0.09776344 </v>
   </varray>
  </crystal>
  <varray name="positions" >
   <v>       0.78017000       0.82682100       0.83522000 </v>
   <v>       0.76733400       0.83369100       0.17207000 </v>
   <v>       0.48549300       0.33964600       0.00072400 </v>
   <v>       0.22107500       0.83944700       0.83904800 </v>
   <v>       0.74314800       0.50985700       0.17172000 </v>
   <v>       0.00267800       0.32933400       0.99819500 </v>
   <v>       0.49167900       0.66161100       0.98819000 </v>
   <v>       0.25674500       0.15762200       0.17936900 </v>
   <v>       0.51281300       0.99643400       0.99849600 </v>
   <v>       0.01124100       0.65855700       0.35559900 </v>
   <v>       0.00860400       0.33087300       0.65683900 </v>
   <v>       0.72318800       0.17672600       0.81991600 </v>
   <v>       0.49486600       0.67295200       0.66731800 </v>
   <v>       0.99990800       0.01079000       0.65163000 </v>
   <v>       0.99694200       0.33622300       0.34401500 </v>
   <v>       0.26195600       0.84246900       0.49141000 </v>
   <v>       0.74156300       0.83646300       0.49480200 </v>
   <v>       0.25891900       0.50892500       0.17477100 </v>
   <v>       0.73422900       0.49868600       0.50986000 </v>
   <v>       0.99133300       0.02656300       0.00056300 </v>
   <v>       0.75497600       0.49463900       0.81906000 </v>
   <v>       0.26926300       0.16351800       0.49182900 </v>
   <v>       0.26515500       0.15787900       0.82293000 </v>
   <v>       0.49567900       0.99153400       0.65704400 </v>
   <v>       0.50631100       0.33360400       0.33624900 </v>
   <v>       0.24109400       0.83084400       0.17288400 </v>
   <v>       0.01122000       0.64315600       0.99682300 </v>
   <v>       0.49594600       0.66470900       0.34643700 </v>
   <v>       0.26967700       0.49453100       0.50128700 </v>
   <v>       0.51142100       0.00213400       0.33880700 </v>
   <v>       0.99577500       0.00191300       0.34704900 </v>
   <v>       0.00216200       0.65764400       0.65720200 </v>
   <v>       0.23485600       0.50381000       0.82729900 </v>
   <v>       0.48506000       0.33945100       0.66146400 </v>
   <v>       0.74533400       0.16250600       0.17584500 </v>
   <v>       0.73218100       0.16444400       0.49804000 </v>
  </varray>
 </structure>
 <calculation>
  <scstep>
   <time name="dav">    1.35    1.38</time>
   <time name="total">    1.42    1.85</time>
   <energy>
    <i name="alphaZ">   1749.38041541 </i>
    <i name="ewald"> -23517.11741027 </i>
    <i name="hartreedc">  -7727.02756545 </i>
    <i name="XCdc">     89.55698394 </i>
    <i name="pawpsdc">  25242.36703740 </i>
    <i name="pawaedc"> -23768.50095821 </i>
    <i name="eentropy">      0.00614481 </i>
    <i name="bandstr">   -208.58331855 </i>
    <i name="atom">  30425.69515449 </i>
    <i name="e_fr_energy">   2285.77648358 </i>
    <i name="e_wo_entrp">   2285.77033877 </i>
    <i name="e_0_energy">   2285.77443531 </i>
   </energy>
  </scstep>
  <scstep>
   <time name="dav">    1.28    1.29</time>
   <time name="total">    1.29    1.53</time>
   <energy>
    <i name="e_fr_energy">    -54.58880166 </i>
    <i name="e_wo_entrp">    -54.58408353 </i>
    <i name="e_0_energy">    -54.58722895 </i>
   </energy>
  </scstep>
  <scstep>
   <time name="dav">    1.59    1.60</time>
   <time name="total">    1.60    1.64</time>
   <energy>
    <i name="e_fr_energy">   -342.20727064 </i>
    <i name="e_wo_entrp">   -342.21195345 </i>
    <i name="e_0_energy">   -342.20883158 </i>
   </energy>
  </scstep>
  <scstep>
   <time name="dav">    1.61    1.61</time>
   <time name="total">    1.61    1.66</time>
   <energy>
    <i name="e_fr_energy">   -375.72927263 </i>
    <i name="e_wo_entrp">   -375.73360910 </i>
    <i name="e_0_energy">   -375.73071812 </i>
   </energy>
  </scstep>
  <scstep>
   <time name="dav">    1.53    1.53</time>
   <time name="total">    1.56    1.61</time>
   <energy>
    <i name="e_fr_energy">   -378.97247905 </i>
    <i name="e_wo_entrp">   -378.97923544 </i>
    <i name="e_0_energy">   -378.97473118 </i>
   </energy>
  </scstep>
  <scstep>
   <time name="diag">    0.09    0.09</time>
   <time name="diis">    0.81    0.82</time>
   <time name="orth">    0.02    0.02</time>
   <time name="total">    0.98    1.04</time>
   <energy>
    <i name="e_fr_energy">   -368.84660670 </i>
    <i name="e_wo_entrp">   -368.85887725 </i>
    <i name="e_0_energy">   -368.85069688 </i>
   </energy>
  </scstep>
  <scstep>
   <time name="diag">    0.09    0.14</time>
   <time name="diis">    0.81    0.89</time>
   <time name="orth">    0.01    0.02</time>
   <time name="total">    1.00    1.19</time>
   <energy>
    <i name="e_fr_energy">   -373.96252973 </i>
    <i name="e_wo_entrp">   -373.96013045 </i>
    <i name="e_0_energy">   -373.96172997 </i>
   </energy>
  </scstep>
  <scstep>
   <time name="diag">    0.10    0.10</time>
   <time name="diis">    0.87    1.03</time>
   <time name="orth">    0.01    0.02</time>
   <time name="total">    1.16    1.39</time>
   <energy>
    <i name="e_fr_energy">   -363.91438588 </i>
    <i name="e_wo_entrp">   -363.93131787 </i>
    <i name="e_0_energy">   -363.92002988 </i>
   </energy>
  </scstep>
  <scstep>
   <time name="diag">    0.09    0.09</time>
   <time name="diis">    0.85    0.86</time>
   <time name="orth">    0.01    0.01</time>
   <time name="total">    1.02    1.09</time>
   <energy>
    <i name="e_fr_energy">   -363.70808028 </i>
    <i name="e_wo_entrp">   -363.72800143 </i>
    <i name="e_0_energy">   -363.71472066 </i>
   </energy>
  </scstep>
  <scstep>
   <time name="diag">    0.09    0.09</time>
   <time name="diis">    0.85    0.85</time>
   <time name="orth">    0.01    0.01</time>
   <time name="total">    1.02    1.07</time>
   <energy>
    <i name="e_fr_energy">   -363.63905637 </i>
    <i name="e_wo_entrp">   -363.65894885 </i>
    <i name="e_0_energy">   -363.64568719 </i>
   </energy>
  </scstep>
  <scstep>
   <time name="diag">    0.09    0.09</time>
   <time name="diis">    0.92    0.92</time>
   <time name="orth">    0.01    0.01</time>
   <time name="total">    1.09    1.14</time>
   <energy>
    <i name="e_fr_energy">   -363.61700604 </i>
    <i name="e_wo_entrp">   -363.63971932 </i>
    <i name="e_0_energy">   -363.62457713 </i>
   </energy>
  </scstep>
  <scstep>
   <time name="diag">    0.09    0.09</time>
   <time name="diis">    0.84    0.85</time>
   <time name="orth">    0.01    0.01</time>
   <time name="total">    1.03    1.09</time>
   <energy>
    <i name="e_fr_energy">   -363.60821434 </i>
    <i name="e_wo_entrp">   -363.62980347 </i>
    <i name="e_0_energy">   -363.61541072 </i>
   </energy>
  </scstep>
  <scstep>
   <time name="diag">    0.09    0.09</time>
   <time name="diis">    0.85    0.86</time>
   <time name="orth">    0.01    0.01</time>
   <time name="total">    1.03    1.11</time>
   <energy>
    <i name="e_fr_energy">   -363.60591699 </i>
    <i name="e_wo_entrp">   -363.62777181 </i>
    <i name="e_0_energy">   -363.61320193 </i>
   </energy>
  </scstep>
  <scstep>
   <time name="diag">    0.09    0.09</time>
   <time name="diis">    0.94    0.94</time>
   <time name="orth">    0.02    0.02</time>
   <time name="total">    1.13    1.18</time>
   <energy>
    <i name="e_fr_energy">   -363.60595045 </i>
    <i name="e_wo_entrp">   -363.62796671 </i>
    <i name="e_0_energy">   -363.61328920 </i>
   </energy>
  </scstep>
  <scstep>
   <time name="diag">    0.10    0.10</time>
   <time name="diis">    0.90    0.98</time>
   <time name="orth">    0.01    0.02</time>
   <time name="total">    1.08    1.26</time>
   <energy>
    <i name="e_fr_energy">   -363.60608832 </i>
    <i name="e_wo_entrp">   -363.62817875 </i>
    <i name="e_0_energy">   -363.61345180 </i>
   </energy>
  </scstep>
  <scstep>
   <time name="diag">    0.09    0.11</time>
   <time name="diis">    0.86    0.90</time>
   <time name="orth">    0.01    0.01</time>
   <time name="total">    1.02    1.16</time>
   <energy>
    <i name="e_fr_energy">   -363.60613195 </i>
    <i name="e_wo_entrp">   -363.62810797 </i>
    <i name="e_0_energy">   -363.61345729 </i>
   </energy>
  </scstep>
  <scstep>
   <time name="diag">    0.11    0.13</time>
   <time name="diis">    0.72    0.72</time>
   <time name="orth">    0.01    0.01</time>
   <time name="total">    0.96    1.09</time>
   <energy>
    <i name="e_fr_energy">   -363.60613831 </i>
    <i name="e_wo_entrp">   -363.62820768 </i>
    <i name="e_0_energy">   -363.61349476 </i>
   </energy>
  </scstep>
  <scstep>
   <time name="diag">    0.09    0.09</time>
   <time name="diis">    0.65    0.66</time>
   <time name="orth">    0.01    0.02</time>
   <time name="total">    0.83    0.88</time>
   <energy>
    <i name="e_fr_energy">   -363.60615143 </i>
    <i name="e_wo_entrp">   -363.62820833 </i>
    <i name="e_0_energy">   -363.61350373 </i>
   </energy>
  </scstep>
  <scstep>
   <time name="diag">    0.09    0.09</time>
   <time name="diis">    0.59    0.59</time>
   <time name="orth">    0.01    0.01</time>
   <time name="total">    0.76    0.83</time>
   <energy>
    <i name="e_fr_energy">   -363.60615911 </i>
    <i name="e_wo_entrp">   -363.62822816 </i>
    <i name="e_0_energy">   -363.61351546 </i>
   </energy>
  </scstep>
  <scstep>
   <time name="diag">    0.09    0.09</time>
   <time name="diis">    0.53    0.53</time>
   <time name="orth">    0.01    0.01</time>
   <time name="total">    0.67    0.71</time>
   <energy>
    <i name="alphaZ">   1749.38041541 </i>
    <i name="ewald"> -23517.11741027 </i>
    <i name="hartreedc">  -7437.93393814 </i>
    <i name="XCdc">     84.51215474 </i>
    <i name="pawpsdc">  37912.50555126 </i>
    <i name="pawaedc"> -36410.45808425 </i>
    <i name="eentropy">      0.02206914 </i>
    <i name="bandstr">  -3170.21207244 </i>
    <i name="atom">  30425.69515449 </i>
    <i name="e_fr_energy">   -363.60616006 </i>
    <i name="e_wo_entrp">   -363.62822920 </i>
    <i name="e_0_energy">   -363.61351644 </i>
   </energy>
  </scstep>
  <structure>
   <crystal>
    <varray name="basis" >
     <v>       6.89240779      -0.02926143      -0.00807109 </v>
     <v>      -0.04235075      10.17728973      -0.00847015 </v>
     <v>      -0.01200686      -0.00870460      10.22879404 </v>
    </varray>
    <i name="volume">    717.49512730 </i>
    <varray name="rec_basis" >
     <v>       0.14508994       0.00060390       0.00017082 </v>
     <v>       0.00041726       0.09825979       0.00008411 </v>
     <v>       0.00011483       0.00008184       0.09776344 </v>
    </varray>
   </crystal>
   <varray name="positions" >
    <v>       0.78017000       0.82682100       0.83522000 </v>
    <v>       0.76733400       0.83369100       0.17207000 </v>
    <v>       0.48549300       0.33964600       0.00072400 </v>
    <v>       0.22107500       0.83944700       0.83904800 </v>
    <v>       0.74314800       0.50985700       0.17172000 </v>
    <v>       0.00267800       0.32933400       0.99819500 </v>
    <v>       0.49167900       0.66161100       0.98819000 </v>
    <v>       0.25674500       0.15762200       0.17936900 </v>
    <v>       0.51281300       0.99643400       0.99849600 </v>
    <v>       0.01124100       0.65855700       0.35559900 </v>
    <v>       0.00860400       0.33087300       0.65683900 </v>
    <v>       0.72318800       0.17672600       0.81991600 </v>
    <v>       0.49486600       0.67295200       0.66731800 </v>
    <v>       0.99990800       0.01079000       0.65163000 </v>
    <v>       0.99694200       0.33622300       0.34401500 </v>
    <v>       0.26195600       0.84246900       0.49141000 </v>
    <v>       0.74156300       0.83646300       0.49480200 </v>
    <v>       0.25891900       0.50892500       0.17477100 </v>
    <v>       0.73422900       0.49868600       0.50986000 </v>
    <v>       0.99133300       0.02656300       0.00056300 </v>
    <v>       0.75497600       0.49463900       0.81906000 </v>
    <v>       0.26926300       0.16351800       0.49182900 </v>
    <v>       0.26515500       0.15787900       0.82293000 </v>
    <v>       0.49567900       0.99153400       0.65704400 </v>
    <v>       0.50631100       0.33360400       0.33624900 </v>
    <v>       0.24109400       0.83084400       0.17288400 </v>
    <v>       0.01122000       0.64315600       0.99682300 </v>
    <v>       0.49594600       0.66470900       0.34643700 </v>
    <v>       0.26967700       0.49453100       0.50128700 </v>
    <v>       0.51142100       0.00213400       0.33880700 </v>
    <v>       0.99577500       0.00191300       0.34704900 </v>
    <v>       0.00216200       0.65764400       0.65720200 </v>
    <v>       0.23485600       0.50381000       0.82729900 </v>
    <v>       0.48506000       0.33945100       0.66146400 </v>
    <v>       0.74533400       0.16250600       0.17584500 </v>
    <v>       0.73218100       0.16444400       0.49804000 </v>
   </varray>
  </structure>
  <varray name="forces" >
   <v>      -0.01645296      -0.02678028      -0.01883656 </v>
   <v>       0.06454091      -0.03381455       0.03175136 </v>
   <v>      -0.01644660      -0.00381599      -0.02481830 </v>
   <v>       0.01827406       0.00834509       0.03995010 </v>
   <v>      -0.01196204      -0.01254945       0.00745060 </v>
   <v>       0.00670706      -0.00086574      -0.03391736 </v>
   <v>      -0.11894370       0.17481437       0.22789615 </v>
   <v>      -0.00345292      -0.03516725      -0.00021167 </v>
   <v>      -0.28182222      -0.18629813       0.19918720 </v>
   <v>       0.15456284       0.23918560      -0.32024005 </v>
   <v>      -0.01680390      -0.00660594       0.00834804 </v>
   <v>      -0.00165528       0.02727459      -0.01439522 </v>
   <v>      -0.00399290      -0.01723304       0.00529033 </v>
   <v>       0.01311940       0.03164200       0.03440810 </v>
   <v>       0.01602509       0.00159781      -0.00500304 </v>
   <v>       0.02804998       0.01010220       0.08560011 </v>
   <v>       0.00290887       0.01742349      -0.00831482 </v>
   <v>       0.02520121      -0.05158818       0.02120030 </v>
   <v>       0.00022242      -0.00545532       0.01354563 </v>
   <v>       0.18373786      -0.27102514       0.14267218 </v>
   <v>      -0.01311596      -0.00786518       0.00896263 </v>
   <v>       0.00259513      -0.03832213       0.01215825 </v>
   <v>       0.00733138      -0.00232530       0.01730414 </v>
   <v>      -0.02272206      -0.01644657      -0.01876134 </v>
   <v>      -0.01515846       0.02250482       0.01412348 </v>
   <v>       0.08346661      -0.00175417       0.08834431 </v>
   <v>       0.11709918       0.35918188       0.22300850 </v>
   <v>      -0.17887317       0.22550699      -0.27181119 </v>
   <v>      -0.02538244       0.03484185      -0.02210949 </v>
   <v>      -0.29223102      -0.24662737      -0.21703678 </v>
   <v>       0.23894895      -0.17461985      -0.30750431 </v>
   <v>       0.02323118      -0.00344062       0.01471662 </v>
   <v>      -0.01336281      -0.00805298       0.00525150 </v>
   <v>       0.04665004       0.01316697       0.00730047 </v>
   <v>       0.00748282      -0.01265317       0.01660799 </v>
   <v>      -0.00777654      -0.00228131       0.03788215 </v>
  </varray>
  <varray name="stress" >
   <v>      -7.73356488      -0.45724946       0.67498818 </v>
   <v>      -0.45724947      -7.08570026      -0.03379934 </v>
   <v>       0.67498819      -0.03379934      -7.29517416 </v>
  </varray>
  <energy>
   <i name="e_fr_energy">   -363.60616006 </i>
   <i name="e_wo_entrp">   -363.61351644 </i>
   <i name="e_0_energy">      0.02206914 </i>
  </energy>
  <time name="totalsc">   24.07   26.47</time>
 </calculation>
 <calculation>
  <scstep>
   <time name="dav">    1.31    1.32</time>
   <time name="total">    1.40    1.61</time>
   <energy>
    <i name="alphaZ">   1756.36394560 </i>
    <i name="ewald"> -23542.60111209 </i>
    <i name="hartreedc">  -7453.61163248 </i>
    <i name="XCdc">     85.90036381 </i>
    <i name="pawpsdc">  37912.48678846 </i>
    <i name="pawaedc"> -36410.43780889 </i>
    <i name="eentropy">      0.02217814 </i>
    <i name="bandstr">  -3137.48706964 </i>
    <i name="atom">  30425.69515449 </i>
    <i name="e_fr_energy">   -363.66919261 </i>
    <i name="e_wo_entrp">   -363.69137074 </i>
    <i name="e_0_energy">   -363.67658532 </i>
   </energy>
  </scstep>
  <scstep>
   <time name="diag">    0.09    0.09</time>
   <time name="diis">    0.84    0.84</time>
   <time name="orth">    0.01    0.01</time>
   <time name="total">    1.01    1.05</time>
   <energy>
    <i name="e_fr_energy">   -363.64976729 </i>
    <i name="e_wo_entrp">   -363.67153475 </i>
    <i name="e_0_energy">   -363.65702311 </i>
   </energy>
  </scstep>
  <scstep>
   <time name="diag">    0.09    0.09</time>
   <time name="diis">    0.87    0.87</time>
   <time name="orth">    0.01    0.01</time>
   <time name="total">    1.04    1.08</time>
   <energy>
    <i name="e_fr_energy">   -363.63785228 </i>
    <i name="e_wo_entrp">   -363.65986185 </i>
    <i name="e_0_energy">   -363.64518880 </i>
   </energy>
  </scstep>
  <scstep>
   <time name="diag">    0.08    0.09</time>
   <time name="diis">    0.90    0.90</time>
   <time name="orth">    0.02    0.02</time>
   <time name="total">    1.09    1.14</time>
   <energy>
    <i name="e_fr_energy">   -363.63353350 </i>
    <i name="e_wo_entrp">   -363.65559386 </i>
    <i name="e_0_energy">   -363.64088696 </i>
   </energy>
  </scstep>
  <scstep>
   <time name="diag">    0.09    0.09</time>
   <time name="diis">    0.86    0.87</time>
   <time name="orth">    0.01    0.01</time>
   <time name="total">    1.03    1.10</time>
   <energy>
    <i name="e_fr_energy">   -363.63279652 </i>
    <i name="e_wo_entrp">   -363.65477225 </i>
    <i name="e_0_energy">   -363.64012176 </i>
   </energy>
  </scstep>
  <scstep>
   <time name="diag">    0.10    0.11</time>
   <time name="diis">    0.97    0.98</time>
   <time name="orth">    0.01    0.01</time>
   <time name="total">    1.15    1.21</time>
   <energy>
    <i name="e_fr_energy">   -363.63293516 </i>
    <i name="e_wo_entrp">   -363.65495875 </i>
    <i name="e_0_energy">   -363.64027636 </i>
   </energy>
  </scstep>
  <scstep>
   <time name="diag">    0.13    0.13</time>
   <time name="diis">    0.89    0.90</time>
   <time name="orth">    0.01    0.01</time>
   <time name="total">    1.13    1.18</time>
   <energy>
    <i name="e_fr_energy">   -363.63304137 </i>
    <i name="e_wo_entrp">   -363.65509441 </i>
    <i name="e_0_energy">   -363.64039239 </i>
   </energy>
  </scstep>
  <scstep>
   <time name="diag">    0.15    0.15</time>
   <time name="diis">    0.79    0.79</time>
   <time name="orth">    0.01    0.01</time>
   <time name="total">    1.04    1.09</time>
   <energy>
    <i name="e_fr_energy">   -363.63312743 </i>
    <i name="e_wo_entrp">   -363.65511138 </i>
    <i name="e_0_energy">   -363.64045541 </i>
   </energy>
  </scstep>
  <scstep>
   <time name="diag">    0.17    0.17</time>
   <time name="diis">    0.62    0.62</time>
   <time name="orth">    0.01    0.01</time>
   <time name="total">    0.86    0.92</time>
   <energy>
    <i name="e_fr_energy">   -363.63318569 </i>
    <i name="e_wo_entrp">   -363.65521314 </i>
    <i name="e_0_energy">   -363.64052817 </i>
   </energy>
  </scstep>
  <scstep>
   <time name="diag">    0.09    0.09</time>
   <time name="diis">    0.65    0.65</time>
   <time name="orth">    0.02    0.02</time>
   <time name="total">    0.84    0.89</time>
   <energy>
    <i name="e_fr_energy">   -363.63323364 </i>
    <i name="e_wo_entrp">   -363.65524736 </i>
    <i name="e_0_energy">   -363.64057155 </i>
   </energy>
  </scstep>
  <scstep>
   <time name="diag">    0.14    0.14</time>
   <time name="diis">    0.51    0.51</time>
   <time name="orth">    0.02    0.02</time>
   <time name="total">    0.74    0.78</time>
   <energy>
    <i name="e_fr_energy">   -363.63326021 </i>
    <i name="e_wo_entrp">   -363.65528269 </i>
    <i name="e_0_energy">   -363.64060104 </i>
   </energy>
  </scstep>
  <scstep>
   <time name="diag">    0.09    0.09</time>
   <time name="diis">    0.45    0.46</time>
   <time name="orth">    0.01    0.01</time>
   <time name="total">    0.59    0.63</time>
   <energy>
    <i name="alphaZ">   1756.36394560 </i>
    <i name="ewald"> -23542.60111209 </i>
    <i name="hartreedc">  -7434.32462344 </i>
    <i name="XCdc">     85.02513296 </i>
    <i name="pawpsdc">  38093.81242803 </i>
    <i name="pawaedc"> -36591.41065257 </i>
    <i name="eentropy">      0.02201656 </i>
    <i name="bandstr">  -3156.21555701 </i>
    <i name="atom">  30425.69515449 </i>
    <i name="e_fr_energy">   -363.63326748 </i>
    <i name="e_wo_entrp">   -363.65528404 </i>
    <i name="e_0_energy">   -363.64060633 </i>
   </energy>
  </scstep>
  <structure>
   <crystal>
    <varray name="basis" >
     <v>       6.88281280      -0.02979144      -0.00722273 </v>
     <v>      -0.04313062      10.16431033      -0.00852610 </v>
     <v>      -0.01074641      -0.00875475      10.21535822 </v>
    </varray>
    <i name="volume">    714.64227388 </i>
    <varray name="rec_basis" >
     <v>       0.14529227       0.00061665       0.00015337 </v>
     <v>       0.00042594       0.09838534       0.00008477 </v>
     <v>       0.00010308       0.00008255       0.09789200 </v>
    </varray>
   </crystal>
   <varray name="positions" >
    <v>       0.78013517       0.82678279       0.83519329 </v>
    <v>       0.76746931       0.83364334       0.17211499 </v>
    <v>       0.48545837       0.33964044       0.00068885 </v>
    <v>       0.22111354       0.83945903       0.83910457 </v>
    <v>       0.74312279       0.50983909       0.17173051 </v>
    <v>       0.00269199       0.32933277       0.99814702 </v>
    <v>       0.49143133       0.66185916       0.98851246 </v>
    <v>       0.25673744       0.15757197       0.17936865 </v>
    <v>       0.51222008       0.99616761       0.99877714 </v>
    <v>       0.01156686       0.65889769       0.35514643 </v>
    <v>       0.00856868       0.33086351       0.65685078 </v>
    <v>       0.72318473       0.17676476       0.81989566 </v>
    <v>       0.49485748       0.67292748       0.66732546 </v>
    <v>       0.99993591       0.01083512       0.65167874 </v>
    <v>       0.99697565       0.33622536       0.34400795 </v>
    <v>       0.26201520       0.84248364       0.49153118 </v>
    <v>       0.74156924       0.83648779       0.49479026 </v>
    <v>       0.25897152       0.50885181       0.17480098 </v>
    <v>       0.73422945       0.49867826       0.50987916 </v>
    <v>       0.99171681       0.02617886       0.00076485 </v>
    <v>       0.75494841       0.49462775       0.81907265 </v>
    <v>       0.26926814       0.16346353       0.49184616 </v>
    <v>       0.26517042       0.15787576       0.82295449 </v>
    <v>       0.49563110       0.99151045       0.65701740 </v>
    <v>       0.50627940       0.33363593       0.33626898 </v>
    <v>       0.24126947       0.83084212       0.17300914 </v>
    <v>       0.01146958       0.64366777       0.99713916 </v>
    <v>       0.49557169       0.66502828       0.34605238 </v>
    <v>       0.26962395       0.49458037       0.50125572 </v>
    <v>       0.51080466       0.00178124       0.33849913 </v>
    <v>       0.99627447       0.00166574       0.34661410 </v>
    <v>       0.00221079       0.65763927       0.65722286 </v>
    <v>       0.23482788       0.50379847       0.82730640 </v>
    <v>       0.48515809       0.33947002       0.66147442 </v>
    <v>       0.74534964       0.16248807       0.17586850 </v>
    <v>       0.73216474       0.16444075       0.49809358 </v>
   </varray>
  </structure>
  <varray name="forces" >
   <v>      -0.02530230      -0.02089719      -0.01804745 </v>
   <v>       0.04863710      -0.03447743       0.02026912 </v>
   <v>      -0.00969203      -0.00758960      -0.02194219 </v>
   <v>       0.01854800       0.00789110       0.02852244 </v>
   <v>      -0.00794831      -0.01177663      -0.00226635 </v>
   <v>       0.00086991      -0.00433656      -0.02684439 </v>
   <v>      -0.09999647       0.16874022       0.21555866 </v>
   <v>      -0.00597904      -0.02213628      -0.00899721 </v>
   <v>      -0.25735528      -0.17728392       0.18299007 </v>
   <v>       0.13450496       0.22217551      -0.29889831 </v>
   <v>      -0.02107836      -0.00794326       0.00854696 </v>
   <v>       0.00257229       0.01151639       0.00307382 </v>
   <v>      -0.00420213      -0.01891928       0.01458233 </v>
   <v>       0.00415652       0.03021110       0.04228288 </v>
   <v>       0.01179749       0.00021835      -0.00730595 </v>
   <v>       0.00851999       0.00111383       0.08506885 </v>
   <v>       0.01152494       0.01263468      -0.01618586 </v>
   <v>       0.02008193      -0.05809061       0.01553065 </v>
   <v>       0.01285853       0.00657546       0.00035832 </v>
   <v>       0.17253508      -0.25754993       0.13610125 </v>
   <v>      -0.01484765      -0.00071121       0.02086658 </v>
   <v>      -0.00515638      -0.03413442       0.01291903 </v>
   <v>      -0.00043992       0.00051868       0.02502075 </v>
   <v>      -0.00550876      -0.01044991      -0.00190143 </v>
   <v>      -0.01038424       0.02182527       0.00970424 </v>
   <v>       0.07729073       0.01323750       0.07079921 </v>
   <v>       0.10302657       0.34050179       0.21891250 </v>
   <v>      -0.15107528       0.20054429      -0.25269637 </v>
   <v>      -0.03535392       0.04416546      -0.02512469 </v>
   <v>      -0.25658757      -0.22830547      -0.20592966 </v>
   <v>       0.21657275      -0.16583962      -0.29556682 </v>
   <v>       0.02229171      -0.00226304       0.00965791 </v>
   <v>      -0.00769690      -0.00688942       0.01492262 </v>
   <v>       0.04885821       0.01137883       0.01178940 </v>
   <v>       0.00902827      -0.01672688       0.00384823 </v>
   <v>      -0.00507046      -0.00692780       0.03038085 </v>
  </varray>
  <varray name="stress" >
   <v>      -2.31449458      -0.32550063       0.57445926 </v>
   <v>      -0.32550063      -1.66730694       0.03391440 </v>
   <v>       0.57445928       0.03391439      -1.87672448 </v>
  </varray>
  <energy>
   <i name="e_fr_energy">   -363.63326748 </i>
   <i name="e_wo_entrp">   -363.64060633 </i>
   <i name="e_0_energy">      0.02201656 </i>
  </energy>
  <time name="totalsc">   13.64   14.58</time>
 </calculation>
 <calculation>
  <scstep>
   <time name="dav">    1.33    1.34</time>
   <time name="total">    1.39    1.62</time>
   <energy>
    <i name="alphaZ">   1770.02385168 </i>
    <i name="ewald"> -23591.77677023 </i>
    <i name="hartreedc">  -7465.28342953 </i>
    <i name="XCdc">     87.73063000 </i>
    <i name="pawpsdc">  38093.68555817 </i>
    <i name="pawaedc"> -36591.26419145 </i>
    <i name="eentropy">      0.02211142 </i>
    <i name="bandstr">  -3092.62390064 </i>
    <i name="atom">  30425.69515449 </i>
    <i name="e_fr_energy">   -363.79098609 </i>
    <i name="e_wo_entrp">   -363.81309751 </i>
    <i name="e_0_energy">   -363.79835657 </i>
   </energy>
  </scstep>
  <scstep>
   <time name="diag">    0.09    0.09</time>
   <time name="diis">    0.85    0.85</time>
   <time name="orth">    0.01    0.01</time>
   <time name="total">    1.02    1.06</time>
   <energy>
    <i name="e_fr_energy">   -363.71610155 </i>
    <i name="e_wo_entrp">   -363.73718615 </i>
    <i name="e_0_energy">   -363.72312975 </i>
   </energy>
  </scstep>
  <scstep>
   <time name="diag">    0.09    0.09</time>
   <time name="diis">    0.87    0.87</time>
   <time name="orth">    0.03    0.03</time>
   <time name="total">    1.09    1.14</time>
   <energy>
    <i name="e_fr_energy">   -363.67104314 </i>
    <i name="e_wo_entrp">   -363.69261280 </i>
    <i name="e_0_energy">   -363.67823303 </i>
   </energy>
  </scstep>
  <scstep>
   <time name="diag">    0.12    0.12</time>
   <time name="diis">    0.86    0.87</time>
   <time name="orth">    0.01    0.01</time>
   <time name="total">    1.07    1.14</time>
   <energy>
    <i name="e_fr_energy">   -363.65462158 </i>
    <i name="e_wo_entrp">   -363.67639148 </i>
    <i name="e_0_energy">   -363.66187821 </i>
   </energy>
  </scstep>
  <scstep>
   <time name="diag">    0.09    0.09</time>
   <time name="diis">    0.90    0.93</time>
   <time name="orth">    0.01    0.02</time>
   <time name="total">    1.06    1.15</time>
   <energy>
    <i name="e_fr_energy">   -363.65192579 </i>
    <i name="e_wo_entrp">   -363.67353982 </i>
    <i name="e_0_energy">   -363.65913047 </i>
   </energy>
  </scstep>
  <scstep>
   <time name="diag">    0.10    0.11</time>
   <time name="diis">    0.90    0.95</time>
   <time name="orth">    0.02    0.02</time>
   <time name="total">    1.08    1.20</time>
   <energy>
    <i name="e_fr_energy">   -363.65238294 </i>
    <i name="e_wo_entrp">   -363.67406698 </i>
    <i name="e_0_energy">   -363.65961095 </i>
   </energy>
  </scstep>
  <scstep>
   <time name="diag">    0.09    0.09</time>
   <time name="diis">    0.97    0.97</time>
   <time name="orth">    0.01    0.01</time>
   <time name="total">    1.14    1.18</time>
   <energy>
    <i name="e_fr_energy">   -363.65270805 </i>
    <i name="e_wo_entrp">   -363.67444572 </i>
    <i name="e_0_energy">   -363.65995394 </i>
   </energy>
  </scstep>
  <scstep>
   <time name="diag">    0.09    0.09</time>
   <time name="diis">    0.99    1.00</time>
   <time name="orth">    0.01    0.01</time>
   <time name="total">    1.16    1.21</time>
   <energy>
    <i name="e_fr_energy">   -363.65301264 </i>
    <i name="e_wo_entrp">   -363.67464779 </i>
    <i name="e_0_energy">   -363.66022436 </i>
   </energy>
  </scstep>
  <scstep>
   <time name="diag">    0.09    0.09</time>
   <time name="diis">    0.75    0.91</time>
   <time name="orth">    0.01    0.01</time>
   <time name="total">    0.92    1.12</time>
   <energy>
    <i name="e_fr_energy">   -363.65320854 </i>
    <i name="e_wo_entrp">   -363.67491331 </i>
    <i name="e_0_energy">   -363.66044346 </i>
   </energy>
  </scstep>
  <scstep>
   <time name="diag">    0.09    0.09</time>
   <time name="diis">    0.83    0.83</time>
   <time name="orth">    0.01    0.01</time>
   <time name="total">    1.01    1.08</time>
   <energy>
    <i name="e_fr_energy">   -363.65335197 </i>
    <i name="e_wo_entrp">   -363.67503021 </i>
    <i name="e_0_energy">   -363.66057805 </i>
   </energy>
  </scstep>
  <scstep>
   <time name="diag">    0.09    0.09</time>
   <time name="diis">    0.64    0.64</time>
   <time name="orth">    0.01    0.01</time>
   <time name="total">    0.83    0.89</time>
   <energy>
    <i name="e_fr_energy">   -363.65343156 </i>
    <i name="e_wo_entrp">   -363.67512355 </i>
    <i name="e_0_energy">   -363.66066222 </i>
   </energy>
  </scstep>
  <scstep>
   <time name="diag">    0.09    0.09</time>
   <time name="diis">    0.57    0.57</time>
   <time name="orth">    0.01    0.01</time>
   <time name="total">    0.74    0.79</time>
   <energy>
    <i name="e_fr_energy">   -363.65345274 </i>
    <i name="e_wo_entrp">   -363.67513656 </i>
    <i name="e_0_energy">   -363.66068068 </i>
   </energy>
  </scstep>
  <scstep>
   <time name="diag">    0.12    0.12</time>
   <time name="diis">    0.55    0.55</time>
   <time name="orth">    0.01    0.01</time>
   <time name="total">    0.72    0.76</time>
   <energy>
    <i name="alphaZ">   1770.02385168 </i>
    <i name="ewald"> -23591.77677023 </i>
    <i name="hartreedc">  -7428.01645976 </i>
    <i name="XCdc">     86.03797040 </i>
    <i name="pawpsdc">  38455.72626981 </i>
    <i name="pawaedc"> -36952.45182384 </i>
    <i name="eentropy">      0.02169574 </i>
    <i name="bandstr">  -3128.91334530 </i>
    <i name="atom">  30425.69515449 </i>
    <i name="e_fr_energy">   -363.65345700 </i>
    <i name="e_wo_entrp">   -363.67515274 </i>
    <i name="e_0_energy">   -363.66068891 </i>
   </energy>
  </scstep>
  <structure>
   <crystal>
    <varray name="basis" >
     <v>       6.86419143      -0.03082006      -0.00557629 </v>
     <v>      -0.04464415      10.13912067      -0.00863469 </v>
     <v>      -0.00830019      -0.00885208      10.18928281 </v>
    </varray>
    <i name="volume">    709.12712428 </i>
    <varray name="rec_basis" >
     <v>       0.14568656       0.00064158       0.00011923 </v>
     <v>       0.00044292       0.09862991       0.00008605 </v>
     <v>       0.00008011       0.00008393       0.09814247 </v>
    </varray>
   </crystal>
   <varray name="positions" >
    <v>       0.78006748       0.82670855       0.83514139 </v>
    <v>       0.76773225       0.83355074       0.17220240 </v>
    <v>       0.48539108       0.33962964       0.00062056 </v>
    <v>       0.22118844       0.83948240       0.83921448 </v>
    <v>       0.74307379       0.50980429       0.17175093 </v>
    <v>       0.00271920       0.32933038       0.99805378 </v>
    <v>       0.49094993       0.66234137       0.98913914 </v>
    <v>       0.25672274       0.15747474       0.17936798 </v>
    <v>       0.51106760       0.99564989       0.99932358 </v>
    <v>       0.01220039       0.65955975       0.35426690 </v>
    <v>       0.00850002       0.33084508       0.65687367 </v>
    <v>       0.72317838       0.17684008       0.81985614 </v>
    <v>       0.49484091       0.67287982       0.66733995 </v>
    <v>       0.99999015       0.01092280       0.65177346 </v>
    <v>       0.99704106       0.33622996       0.34399424 </v>
    <v>       0.26213022       0.84251210       0.49176664 </v>
    <v>       0.74158138       0.83653595       0.49476745 </v>
    <v>       0.25907356       0.50870961       0.17485922 </v>
    <v>       0.73423032       0.49866322       0.50991639 </v>
    <v>       0.99246255       0.02543244       0.00115705 </v>
    <v>       0.75489479       0.49460588       0.81909724 </v>
    <v>       0.26927812       0.16335769       0.49187951 </v>
    <v>       0.26520037       0.15786946       0.82300209 </v>
    <v>       0.49553800       0.99146469       0.65696571 </v>
    <v>       0.50621799       0.33369797       0.33630783 </v>
    <v>       0.24161045       0.83083848       0.17325228 </v>
    <v>       0.01195464       0.64466228       0.99775351 </v>
    <v>       0.49484445       0.66564867       0.34530502 </v>
    <v>       0.26952087       0.49467630       0.50119493 </v>
    <v>       0.50960687       0.00109569       0.33790096 </v>
    <v>       0.99724526       0.00118532       0.34576888 </v>
    <v>       0.00230560       0.65763007       0.65726338 </v>
    <v>       0.23477323       0.50377607       0.82732078 </v>
    <v>       0.48534873       0.33950698       0.66149466 </v>
    <v>       0.74538003       0.16245323       0.17591415 </v>
    <v>       0.73213313       0.16443445       0.49819772 </v>
   </varray>
  </structure>
  <varray name="forces" >
   <v>      -0.04307871      -0.00981496      -0.01758121 </v>
   <v>       0.01489174      -0.03424880      -0.00156174 </v>
   <v>       0.00307302      -0.01415790      -0.01771395 </v>
   <v>       0.01954148       0.00598816       0.00342487 </v>
   <v>      -0.00000675      -0.01141327      -0.02166171 </v>
   <v>      -0.01021529      -0.00990549      -0.01518237 </v>
   <v>      -0.06240080       0.15358081       0.18953180 </v>
   <v>      -0.01041848       0.00544244      -0.02617286 </v>
   <v>      -0.20768430      -0.15728234       0.15013414 </v>
   <v>       0.09357985       0.18677505      -0.25541896 </v>
   <v>      -0.02905142      -0.00980453       0.00974644 </v>
   <v>       0.01041263      -0.01834910       0.03641410 </v>
   <v>      -0.00452515      -0.02394597       0.03359424 </v>
   <v>      -0.01359150       0.02724867       0.05769957 </v>
   <v>       0.00374673      -0.00208186      -0.01080153 </v>
   <v>      -0.03056010      -0.01814063       0.08599312 </v>
   <v>       0.02897043       0.00303863      -0.03074162 </v>
   <v>       0.00960235      -0.07208029       0.00340141 </v>
   <v>       0.03743512       0.03026013      -0.02517945 </v>
   <v>       0.15047948      -0.23204242       0.12320329 </v>
   <v>      -0.01840121       0.01427026       0.04443514 </v>
   <v>      -0.01960746      -0.02463535       0.01475602 </v>
   <v>      -0.01510494       0.00720384       0.03888197 </v>
   <v>       0.02825162       0.00215089       0.03125726 </v>
   <v>      -0.00114307       0.02043314       0.00137559 </v>
   <v>       0.06675425       0.04220383       0.03488389 </v>
   <v>       0.07546124       0.30395973       0.20846643 </v>
   <v>      -0.09727768       0.15084070      -0.21204131 </v>
   <v>      -0.05480135       0.06100477      -0.03089194 </v>
   <v>      -0.18344909      -0.18972192      -0.18034065 </v>
   <v>       0.17030461      -0.14775867      -0.26824900 </v>
   <v>       0.02114043      -0.00112205      -0.00098503 </v>
   <v>       0.00387041      -0.00546216       0.03250684 </v>
   <v>       0.05251657       0.00838765       0.02016066 </v>
   <v>       0.01143228      -0.02438549      -0.02016103 </v>
   <v>      -0.00014695      -0.01643546       0.01481757 </v>
  </varray>
  <varray name="stress" >
   <v>       8.54913268      -0.06392532       0.37275343 </v>
   <v>      -0.06392539       9.22701607       0.17350283 </v>
   <v>       0.37275340       0.17350282       8.98247354 </v>
  </varray>
  <energy>
   <i name="e_fr_energy">   -363.65345700 </i>
   <i name="e_wo_entrp">   -363.66068891 </i>
   <i name="e_0_energy">      0.02169574 </i>
  </energy>
  <time name="totalsc">   14.96   16.24</time>
 </calculation>
 <calculation>
  <scstep>
   <time name="dav">    1.17    1.18</time>
   <time name="total">    1.26    1.49</time>
   <energy>
    <i name="alphaZ">   1768.86815470 </i>
    <i name="ewald"> -23578.29306783 </i>
    <i name="hartreedc">  -7434.78424041 </i>
    <i name="XCdc">     85.81028254 </i>
    <i name="pawpsdc">  38456.07879031 </i>
    <i name="pawaedc"> -36952.77234692 </i>
    <i name="eentropy">      0.02134104 </i>
    <i name="bandstr">  -3134.29310401 </i>
    <i name="atom">  30425.69515449 </i>
    <i name="e_fr_energy">   -363.66903609 </i>
    <i name="e_wo_entrp">   -363.69037713 </i>
    <i name="e_0_energy">   -363.67614977 </i>
   </energy>
  </scstep>
  <scstep>
   <time name="diag">    0.09    0.09</time>
   <time name="diis">    0.80    0.80</time>
   <time name="orth">    0.01    0.01</time>
   <time name="total">    0.97    1.02</time>
   <energy>
    <i name="e_fr_energy">   -363.67954926 </i>
    <i name="e_wo_entrp">   -363.70193455 </i>
    <i name="e_0_energy">   -363.68701103 </i>
   </energy>
  </scstep>
  <scstep>
   <time name="diag">    0.09    0.09</time>
   <time name="diis">    0.84    0.84</time>
   <time name="orth">    0.01    0.01</time>
   <time name="total">    1.01    1.06</time>
   <energy>
    <i name="e_fr_energy">   -363.67475587 </i>
    <i name="e_wo_entrp">   -363.69638163 </i>
    <i name="e_0_energy">   -363.68196445 </i>
   </energy>
  </scstep>
  <scstep>
   <time name="diag">    0.09    0.09</time>
   <time name="diis">    0.82    0.98</time>
   <time name="orth">    0.01    0.01</time>
   <time name="total">    0.99    1.19</time>
   <energy>
    <i name="e_fr_energy">   -363.67458969 </i>
    <i name="e_wo_entrp">   -363.69635944 </i>
    <i name="e_0_energy">   -363.68184628 </i>
   </energy>
  </scstep>
  <scstep>
   <time name="diag">    0.09    0.09</time>
   <time name="diis">    0.88    0.89</time>
   <time name="orth">    0.01    0.01</time>
   <time name="total">    1.06    1.12</time>
   <energy>
    <i name="e_fr_energy">   -363.67453002 </i>
    <i name="e_wo_entrp">   -363.69627135 </i>
    <i name="e_0_energy">   -363.68177713 </i>
   </energy>
  </scstep>
  <scstep>
   <time name="diag">    0.09    0.10</time>
   <time name="diis">    0.87    0.87</time>
   <time name="orth">    0.01    0.01</time>
   <time name="total">    1.04    1.11</time>
   <energy>
    <i name="e_fr_energy">   -363.67448889 </i>
    <i name="e_wo_entrp">   -363.69627796 </i>
    <i name="e_0_energy">   -363.68175191 </i>
   </energy>
  </scstep>
  <scstep>
   <time name="diag">    0.09    0.09</time>
   <time name="diis">    0.81    0.82</time>
   <time name="orth">    0.01    0.01</time>
   <time name="total">    0.98    1.02</time>
   <energy>
    <i name="e_fr_energy">   -363.67448262 </i>
    <i name="e_wo_entrp">   -363.69624120 </i>
    <i name="e_0_energy">   -363.68173548 </i>
   </energy>
  </scstep>
  <scstep>
   <time name="diag">    0.09    0.09</time>
   <time name="diis">    0.51    0.51</time>
   <time name="orth">    0.02    0.02</time>
   <time name="total">    0.65    0.69</time>
   <energy>
    <i name="alphaZ">   1768.86815470 </i>
    <i name="ewald"> -23578.29306783 </i>
    <i name="hartreedc">  -7438.27269786 </i>
    <i name="XCdc">     85.95787023 </i>
    <i name="pawpsdc">  38426.33184664 </i>
    <i name="pawaedc"> -36922.89772988 </i>
    <i name="eentropy">      0.02177935 </i>
    <i name="bandstr">  -3131.08578961 </i>
    <i name="atom">  30425.69515449 </i>
    <i name="e_fr_energy">   -363.67447978 </i>
    <i name="e_wo_entrp">   -363.69625913 </i>
    <i name="e_0_energy">   -363.68173957 </i>
   </energy>
  </scstep>
  <structure>
   <crystal>
    <varray name="basis" >
     <v>       6.86502889      -0.03129529      -0.00463821 </v>
     <v>      -0.04533913      10.14211927      -0.00845540 </v>
     <v>      -0.00690531      -0.00866576      10.19168588 </v>
    </varray>
    <i name="volume">    709.59043528 </i>
    <varray name="rec_basis" >
     <v>       0.14566885       0.00065128       0.00009925 </v>
     <v>       0.00044954       0.09860080       0.00008414 </v>
     <v>       0.00006667       0.00008210       0.09811931 </v>
    </varray>
   </crystal>
   <varray name="positions" >
    <v>       0.77997481       0.82667024       0.83510347 </v>
    <v>       0.76785339       0.83348004       0.17223334 </v>
    <v>       0.48537066       0.33961063       0.00057642 </v>
    <v>       0.22124696       0.83949756       0.83925912 </v>
    <v>       0.74305538       0.50977920       0.17173574 </v>
    <v>       0.00271332       0.32931894       0.99800298 </v>
    <v>       0.49067402       0.66268364       0.98957263 </v>
    <v>       0.25670097       0.15744415       0.17934017 </v>
    <v>       0.51031193       0.99528942       0.99968528 </v>
    <v>       0.01258419       0.66000461       0.35367004 </v>
    <v>       0.00842894       0.33082769       0.65689244 </v>
    <v>       0.72319222       0.17684885       0.81987972 </v>
    <v>       0.49482752       0.67283671       0.66738070 </v>
    <v>       0.99998940       0.01098433       0.65186956 </v>
    <v>       0.99707129       0.33622948       0.34397776 </v>
    <v>       0.26212534       0.84250346       0.49194499 </v>
    <v>       0.74163117       0.83655724       0.49472660 </v>
    <v>       0.25912614       0.50858034       0.17488447 </v>
    <v>       0.73428932       0.49868978       0.50990384 </v>
    <v>       0.99297447       0.02490930       0.00143297 </v>
    <v>       0.75484617       0.49461277       0.81915319 </v>
    <v>       0.26925104       0.16329206       0.49190745 </v>
    <v>       0.26518804       0.15787470       0.82306077 </v>
    <v>       0.49554747       0.99145004       0.65697936 </v>
    <v>       0.50619343       0.33374273       0.33632379 </v>
    <v>       0.24184232       0.83088214       0.17337981 </v>
    <v>       0.01225596       0.64535550       0.99820253 </v>
    <v>       0.49442195       0.66603904       0.34480302 </v>
    <v>       0.26939716       0.49477634       0.50113974 </v>
    <v>       0.50887166       0.00063809       0.33748763 </v>
    <v>       0.99787242       0.00085033       0.34517104 </v>
    <v>       0.00237400       0.65762556       0.65727748 </v>
    <v>       0.23475889       0.50376198       0.82736037 </v>
    <v>       0.48550203       0.33952992       0.66152348 </v>
    <v>       0.74540904       0.16241447       0.17590995 </v>
    <v>       0.73212100       0.16441472       0.49825216 </v>
   </varray>
  </structure>
  <varray name="forces" >
   <v>      -0.03941956      -0.00729561      -0.01692141 </v>
   <v>       0.00125304      -0.02762926      -0.00769394 </v>
   <v>       0.00625988      -0.01301662      -0.02051600 </v>
   <v>       0.00977226       0.00479705      -0.01391118 </v>
   <v>      -0.00209141      -0.00844969      -0.02538269 </v>
   <v>      -0.01176016      -0.01309934      -0.01701460 </v>
   <v>      -0.05235770       0.12928682       0.16532369 </v>
   <v>      -0.01113121       0.01684110      -0.02246376 </v>
   <v>      -0.17472925      -0.13119125       0.12541487 </v>
   <v>       0.07838820       0.16028180      -0.21628124 </v>
   <v>      -0.02883474      -0.00645649       0.00643740 </v>
   <v>       0.00292889      -0.03284259       0.04818258 </v>
   <v>      -0.00225198      -0.03227829       0.03231388 </v>
   <v>      -0.01812494       0.03288754       0.04919488 </v>
   <v>      -0.00246462      -0.00145120      -0.00052839 </v>
   <v>      -0.03274962      -0.01587740       0.07781909 </v>
   <v>       0.02319561       0.00635954      -0.04734569 </v>
   <v>       0.01077754      -0.07017660      -0.00049542 </v>
   <v>       0.03667138       0.04215750      -0.03079631 </v>
   <v>       0.12981569      -0.19821245       0.11224793 </v>
   <v>      -0.00958698       0.02471804       0.04249361 </v>
   <v>      -0.00801873      -0.02652383       0.00527571 </v>
   <v>      -0.01033580       0.00126617       0.04028052 </v>
   <v>       0.03478143       0.01052988       0.02393406 </v>
   <v>       0.00315912       0.01442527       0.01067419 </v>
   <v>       0.05411340       0.05675009       0.01930640 </v>
   <v>       0.07221688       0.25735849       0.19112909 </v>
   <v>      -0.07620540       0.11336983      -0.16184873 </v>
   <v>      -0.04709059       0.06270169      -0.03188265 </v>
   <v>      -0.13499619      -0.15193508      -0.13491825 </v>
   <v>       0.13810440      -0.13473920      -0.22324407 </v>
   <v>       0.01502850      -0.01476230      -0.00888902 </v>
   <v>      -0.00265400       0.00756200       0.03974472 </v>
   <v>       0.05023251       0.01375738       0.01555767 </v>
   <v>       0.01188926      -0.04094979      -0.02349336 </v>
   <v>      -0.01378511      -0.02816319      -0.00170356 </v>
  </varray>
  <varray name="stress" >
   <v>       7.49344688       0.08207108       0.28323528 </v>
   <v>       0.08207103       8.01537657       0.20962940 </v>
   <v>       0.28323530       0.20962939       7.83217562 </v>
  </varray>
  <energy>
   <i name="e_fr_energy">   -363.67447978 </i>
   <i name="e_wo_entrp">   -363.68173957 </i>
   <i name="e_0_energy">      0.02177935 </i>
  </energy>
  <time name="totalsc">    9.83   10.76</time>
 </calculation>
 <calculation>
  <scstep>
   <time name="dav">    1.00    1.01</time>
   <time name="total">    1.08    1.28</time>
   <energy>
    <i name="alphaZ">   1765.40776079 </i>
    <i name="ewald"> -23536.25435707 </i>
    <i name="hartreedc">  -7459.94883597 </i>
    <i name="XCdc">     85.27902538 </i>
    <i name="pawpsdc">  38426.65748756 </i>
    <i name="pawaedc"> -36923.25350048 </i>
    <i name="eentropy">      0.02024085 </i>
    <i name="bandstr">  -3147.26803974 </i>
    <i name="atom">  30425.69515449 </i>
    <i name="e_fr_energy">   -363.66506419 </i>
    <i name="e_wo_entrp">   -363.68530504 </i>
    <i name="e_0_energy">   -363.67181114 </i>
   </energy>
  </scstep>
  <scstep>
   <time name="diag">    0.09    0.09</time>
   <time name="diis">    0.78    0.78</time>
   <time name="orth">    0.01    0.01</time>
   <time name="total">    0.95    0.99</time>
   <energy>
    <i name="e_fr_energy">   -363.75794081 </i>
    <i name="e_wo_entrp">   -363.78077048 </i>
    <i name="e_0_energy">   -363.76555070 </i>
   </energy>
  </scstep>
  <scstep>
   <time name="diag">    0.09    0.09</time>
   <time name="diis">    0.94    0.94</time>
   <time name="orth">    0.01    0.01</time>
   <time name="total">    1.10    1.15</time>
   <energy>
    <i name="e_fr_energy">   -363.71875565 </i>
    <i name="e_wo_entrp">   -363.73993043 </i>
    <i name="e_0_energy">   -363.72581391 </i>
   </energy>
  </scstep>
  <scstep>
   <time name="diag">    0.09    0.09</time>
   <time name="diis">    0.92    0.92</time>
   <time name="orth">    0.01    0.01</time>
   <time name="total">    1.10    1.17</time>
   <energy>
    <i name="e_fr_energy">   -363.71701269 </i>
    <i name="e_wo_entrp">   -363.73857141 </i>
    <i name="e_0_energy">   -363.72419893 </i>
   </energy>
  </scstep>
  <scstep>
   <time name="diag">    0.09    0.10</time>
   <time name="diis">    0.86    0.87</time>
   <time name="orth">    0.01    0.01</time>
   <time name="total">    1.04    1.09</time>
   <energy>
    <i name="e_fr_energy">   -363.71649533 </i>
    <i name="e_wo_entrp">   -363.73798731 </i>
    <i name="e_0_energy">   -363.72365933 </i>
   </energy>
  </scstep>
  <scstep>
   <time name="diag">    0.09    0.09</time>
   <time name="diis">    0.88    0.89</time>
   <time name="orth">    0.02    0.02</time>
   <time name="total">    1.09    1.13</time>
   <energy>
    <i name="e_fr_energy">   -363.71612520 </i>
    <i name="e_wo_entrp">   -363.73777227 </i>
    <i name="e_0_energy">   -363.72334089 </i>
   </energy>
  </scstep>
  <scstep>
   <time name="diag">    0.12    0.12</time>
   <time name="diis">    0.98    0.98</time>
   <time name="orth">    0.01    0.01</time>
   <time name="total">    1.18    1.24</time>
   <energy>
    <i name="e_fr_energy">   -363.71611943 </i>
    <i name="e_wo_entrp">   -363.73767128 </i>
    <i name="e_0_energy">   -363.72330338 </i>
   </energy>
  </scstep>
  <scstep>
   <time name="diag">    0.13    0.14</time>
   <time name="diis">    0.86    0.87</time>
   <time name="orth">    0.01    0.01</time>
   <time name="total">    1.07    1.14</time>
   <energy>
    <i name="e_fr_energy">   -363.71613092 </i>
    <i name="e_wo_entrp">   -363.73774118 </i>
    <i name="e_0_energy">   -363.72333434 </i>
   </energy>
  </scstep>
  <scstep>
   <time name="diag">    0.09    0.09</time>
   <time name="diis">    0.81    0.82</time>
   <time name="orth">    0.01    0.01</time>
   <time name="total">    1.01    1.07</time>
   <energy>
    <i name="e_fr_energy">   -363.71613777 </i>
    <i name="e_wo_entrp">   -363.73770028 </i>
    <i name="e_0_energy">   -363.72332528 </i>
   </energy>
  </scstep>
  <scstep>
   <time name="diag">    0.09    0.09</time>
   <time name="diis">    0.74    0.74</time>
   <time name="orth">    0.01    0.01</time>
   <time name="total">    0.91    0.96</time>
   <energy>
    <i name="e_fr_energy">   -363.71613833 </i>
    <i name="e_wo_entrp">   -363.73772348 </i>
    <i name="e_0_energy">   -363.72333338 </i>
   </energy>
  </scstep>
  <scstep>
   <time name="diag">    0.09    0.09</time>
   <time name="diis">    0.53    0.53</time>
   <time name="orth">    0.01    0.01</time>
   <time name="total">    0.67    0.71</time>
   <energy>
    <i name="alphaZ">   1765.40776079 </i>
    <i name="ewald"> -23536.25435707 </i>
    <i name="hartreedc">  -7469.96881215 </i>
    <i name="XCdc">     85.69914685 </i>
    <i name="pawpsdc">  38336.00973399 </i>
    <i name="pawaedc"> -36832.78739114 </i>
    <i name="eentropy">      0.02158419 </i>
    <i name="bandstr">  -3137.53895613 </i>
    <i name="atom">  30425.69515449 </i>
    <i name="e_fr_energy">   -363.71613618 </i>
    <i name="e_wo_entrp">   -363.73772037 </i>
    <i name="e_0_energy">   -363.72333091 </i>
   </energy>
  </scstep>
  <structure>
   <crystal>
    <varray name="basis" >
     <v>       6.86754127      -0.03272100      -0.00182399 </v>
     <v>      -0.04742410      10.15111506      -0.00791753 </v>
     <v>      -0.00272067      -0.00810681      10.19889509 </v>
    </varray>
    <i name="volume">    710.98131079 </i>
    <varray name="rec_basis" >
     <v>       0.14561577       0.00068032       0.00003939 </v>
     <v>       0.00046940       0.09851360       0.00007843 </v>
     <v>       0.00002641       0.00007660       0.09804990 </v>
    </varray>
   </crystal>
   <varray name="positions" >
    <v>       0.77969683       0.82655533       0.83498977 </v>
    <v>       0.76821674       0.83326801       0.17232610 </v>
    <v>       0.48530942       0.33955360       0.00044404 </v>
    <v>       0.22142248       0.83954302       0.83939299 </v>
    <v>       0.74300016       0.50970397       0.17169018 </v>
    <v>       0.00269569       0.32928465       0.99785064 </v>
    <v>       0.48984622       0.66371007       0.99087285 </v>
    <v>       0.25663566       0.15735240       0.17925677 </v>
    <v>       0.50804487       0.99420822       0.00077034 </v>
    <v>       0.01373597       0.66133889       0.35187972 </v>
    <v>       0.00821570       0.33077555       0.65694876 </v>
    <v>       0.72323371       0.17687515       0.81995045 </v>
    <v>       0.49478734       0.67270742       0.66750294 </v>
    <v>       0.99998713       0.01116888       0.65215779 </v>
    <v>       0.99716201       0.33622805       0.34392829 </v>
    <v>       0.26211059       0.84247755       0.49247990 </v>
    <v>       0.74178056       0.83662112       0.49460406 </v>
    <v>       0.25928380       0.50819265       0.17496020 </v>
    <v>       0.73446631       0.49876944       0.50986616 </v>
    <v>       0.99450972       0.02334039       0.00226042 </v>
    <v>       0.75470030       0.49463342       0.81932103 </v>
    <v>       0.26916977       0.16309521       0.49199126 </v>
    <v>       0.26515100       0.15789040       0.82323679 </v>
    <v>       0.49557586       0.99140614       0.65702030 </v>
    <v>       0.50611976       0.33387697       0.33637167 </v>
    <v>       0.24253780       0.83101310       0.17376224 </v>
    <v>       0.01315973       0.64743458       0.99954916 </v>
    <v>       0.49315501       0.66720978       0.34329746 </v>
    <v>       0.26902613       0.49507636       0.50097424 </v>
    <v>       0.50666639      -0.00073439       0.33624819 </v>
    <v>       0.99975391      -0.00015420       0.34337780 </v>
    <v>       0.00257918       0.65761203       0.65731973 </v>
    <v>       0.23471582       0.50371972       0.82747912 </v>
    <v>       0.48596186       0.33959874       0.66160987 </v>
    <v>       0.74549603       0.16229823       0.17589734 </v>
    <v>       0.73208456       0.16435554       0.49841545 </v>
   </varray>
  </structure>
  <varray name="forces" >
   <v>      -0.03080563      -0.00002398      -0.01317353 </v>
   <v>      -0.04389327      -0.00692941      -0.02580663 </v>
   <v>       0.01638600      -0.00724362      -0.02951144 </v>
   <v>      -0.01639871       0.00191650      -0.06839853 </v>
   <v>      -0.00869691       0.00060419      -0.03648283 </v>
   <v>      -0.01634012      -0.02054232      -0.02313504 </v>
   <v>      -0.02258682       0.05625818       0.09283670 </v>
   <v>      -0.01271083       0.05415910      -0.01249727 </v>
   <v>      -0.07681062      -0.05441347       0.05436210 </v>
   <v>       0.03318361       0.08480037      -0.10257274 </v>
   <v>      -0.03221705       0.00037034      -0.00274606 </v>
   <v>      -0.01829580      -0.07356474       0.08052457 </v>
   <v>       0.00579476      -0.05864475       0.02797912 </v>
   <v>      -0.03247482       0.05211944       0.02602740 </v>
   <v>      -0.02250481      -0.00349335       0.03308725 </v>
   <v>      -0.04023552      -0.00885769       0.05382353 </v>
   <v>       0.00655266       0.01683697      -0.09355551 </v>
   <v>       0.01411087      -0.06552604      -0.00978131 </v>
   <v>       0.03519689       0.07161849      -0.04408014 </v>
   <v>       0.07228023      -0.10172103       0.08211843 </v>
   <v>       0.01547281       0.05141276       0.03300473 </v>
   <v>       0.02580963      -0.03087839      -0.02032295 </v>
   <v>       0.00262268      -0.01472233       0.04285011 </v>
   <v>       0.05418947       0.03843709       0.00095850 </v>
   <v>       0.01589201      -0.00538851       0.04071558 </v>
   <v>       0.02014324       0.09719081      -0.02738001 </v>
   <v>       0.06551108       0.12677120       0.14471464 </v>
   <v>      -0.01653012       0.00455036      -0.01553353 </v>
   <v>      -0.02500065       0.06738332      -0.03570768 </v>
   <v>       0.00374637      -0.04741454      -0.00690477 </v>
   <v>       0.04321653      -0.09974160      -0.09605175 </v>
   <v>      -0.00405299      -0.05634208      -0.03295689 </v>
   <v>      -0.02021548       0.04190971       0.05973994 </v>
   <v>       0.04747604       0.03105163       0.00318627 </v>
   <v>       0.01362083      -0.08734804      -0.03601330 </v>
   <v>      -0.05143555      -0.05459460      -0.04331695 </v>
  </varray>
  <varray name="stress" >
   <v>       3.99326763       0.50460565       0.03597317 </v>
   <v>       0.50460563       4.05167288       0.29598740 </v>
   <v>       0.03597323       0.29598741       4.05100949 </v>
  </varray>
  <energy>
   <i name="e_fr_energy">   -363.71613618 </i>
   <i name="e_wo_entrp">   -363.72333091 </i>
   <i name="e_0_energy">      0.02158419 </i>
  </energy>
  <time name="totalsc">   13.04   13.94</time>
 </calculation>
 <calculation>
  <scstep>
   <time name="dav">    1.02    1.04</time>
   <time name="total">    1.10    1.30</time>
   <energy>
    <i name="alphaZ">   1758.51698084 </i>
    <i name="ewald"> -23444.98046196 </i>
    <i name="hartreedc">  -7520.07029097 </i>
    <i name="XCdc">     84.38289585 </i>
    <i name="pawpsdc">  38335.47532546 </i>
    <i name="pawaedc"> -36832.28382000 </i>
    <i name="eentropy">      0.01776788 </i>
    <i name="bandstr">  -3170.23837800 </i>
    <i name="atom">  30425.69515449 </i>
    <i name="e_fr_energy">   -363.48482642 </i>
    <i name="e_wo_entrp">   -363.50259429 </i>
    <i name="e_0_energy">   -363.49074904 </i>
   </energy>
  </scstep>
  <scstep>
   <time name="diag">    0.09    0.09</time>
   <time name="diis">    0.75    0.75</time>
   <time name="orth">    0.02    0.02</time>
   <time name="total">    0.92    0.96</time>
   <energy>
    <i name="e_fr_energy">   -363.84356314 </i>
    <i name="e_wo_entrp">   -363.86313342 </i>
    <i name="e_0_energy">   -363.85008657 </i>
   </energy>
  </scstep>
  <scstep>
   <time name="diag">    0.09    0.09</time>
   <time name="diis">    0.91    0.92</time>
   <time name="orth">    0.01    0.01</time>
   <time name="total">    1.08    1.14</time>
   <energy>
    <i name="e_fr_energy">   -363.71965900 </i>
    <i name="e_wo_entrp">   -363.73892891 </i>
    <i name="e_0_energy">   -363.72608230 </i>
   </energy>
  </scstep>
  <scstep>
   <time name="diag">    0.09    0.09</time>
   <time name="diis">    0.90    0.90</time>
   <time name="orth">    0.02    0.02</time>
   <time name="total">    1.07    1.11</time>
   <energy>
    <i name="e_fr_energy">   -363.71037474 </i>
    <i name="e_wo_entrp">   -363.72995056 </i>
    <i name="e_0_energy">   -363.71690001 </i>
   </energy>
  </scstep>
  <scstep>
   <time name="diag">    0.09    0.09</time>
   <time name="diis">    0.85    0.86</time>
   <time name="orth">    0.02    0.02</time>
   <time name="total">    1.04    1.09</time>
   <energy>
    <i name="e_fr_energy">   -363.70786351 </i>
    <i name="e_wo_entrp">   -363.72739437 </i>
    <i name="e_0_energy">   -363.71437380 </i>
   </energy>
  </scstep>
  <scstep>
   <time name="diag">    0.09    0.09</time>
   <time name="diis">    0.88    0.88</time>
   <time name="orth">    0.01    0.01</time>
   <time name="total">    1.05    1.09</time>
   <energy>
    <i name="e_fr_energy">   -363.70617289 </i>
    <i name="e_wo_entrp">   -363.72593740 </i>
    <i name="e_0_energy">   -363.71276106 </i>
   </energy>
  </scstep>
  <scstep>
   <time name="diag">    0.09    0.09</time>
   <time name="diis">    1.00    1.00</time>
   <time name="orth">    0.01    0.01</time>
   <time name="total">    1.17    1.22</time>
   <energy>
    <i name="e_fr_energy">   -363.70619188 </i>
    <i name="e_wo_entrp">   -363.72580999 </i>
    <i name="e_0_energy">   -363.71273125 </i>
   </energy>
  </scstep>
  <scstep>
   <time name="diag">    0.09    0.09</time>
   <time name="diis">    1.00    1.00</time>
   <time name="orth">    0.02    0.02</time>
   <time name="total">    1.20    1.28</time>
   <energy>
    <i name="e_fr_energy">   -363.70626120 </i>
    <i name="e_wo_entrp">   -363.72596973 </i>
    <i name="e_0_energy">   -363.71283071 </i>
   </energy>
  </scstep>
  <scstep>
[...]
       <r>    7.5389    1.0000 </r>
       <r>    7.5663    1.0000 </r>
       <r>    7.6448    1.0001 </r>
       <r>    7.6661    1.0002 </r>
       <r>    7.6919    1.0004 </r>
       <r>    7.7287    1.0014 </r>
       <r>    7.7617    1.0034 </r>
       <r>    7.7997    1.0084 </r>
       <r>    7.8328    1.0158 </r>
       <r>    7.8537    1.0218 </r>
       <r>    7.9128    1.0354 </r>
       <r>    7.9407    1.0293 </r>
       <r>    7.9603    1.0140 </r>
       <r>    7.9945    0.9556 </r>
       <r>    8.0086    0.9172 </r>
       <r>    8.0222    0.8719 </r>
       <r>    8.0629    0.6904 </r>
       <r>    8.0987    0.4942 </r>
       <r>    8.1303    0.3207 </r>
       <r>    8.1514    0.2176 </r>
       <r>    8.1736    0.1265 </r>
       <r>    8.2378   -0.0169 </r>
       <r>    8.2861   -0.0353 </r>
       <r>    8.3478   -0.0200 </r>
       <r>    8.3718   -0.0134 </r>
       <r>    8.3851   -0.0104 </r>
       <r>    8.4272   -0.0040 </r>
       <r>    8.4720   -0.0012 </r>
       <r>    8.4974   -0.0005 </r>
       <r>    8.5533   -0.0001 </r>
       <r>    8.6085   -0.0000 </r>
       <r>    8.6240   -0.0000 </r>
       <r>    8.6988   -0.0000 </r>
       <r>    8.7579   -0.0000 </r>
       <r>    8.7750   -0.0000 </r>
       <r>    8.9862   -0.0000 </r>
       <r>    9.0153   -0.0000 </r>
       <r>    9.1581   -0.0000 </r>
       <r>    9.2588   -0.0000 </r>
       <r>    9.3535   -0.0000 </r>
       <r>    9.9471   -0.0000 </r>
       <r>   10.0099   -0.0000 </r>
       <r>   10.0931   -0.0000 </r>
       <r>   10.1516   -0.0000 </r>
       <r>   10.2007   -0.0000 </r>
       <r>   10.2726   -0.0000 </r>
       <r>   10.2966   -0.0000 </r>
       <r>   10.3814   -0.0000 </r>
       <r>   10.4874   -0.0000 </r>
      </set>
     </set>
    </set>
   </array>
  </eigenvalues>
  <separator name="orbital magnetization" >
   <v name="MAGDIPOLOUT">      0.00000000      0.00000000      0.00000000</v>
  </separator>
  <dos>
   <i name="efermi">      8.09768442 </i>
   <total>
    <array>
     <dimension dim="1">gridpoints</dimension>
     <dimension dim="2">spin</dimension>
     <field>energy</field>
     <field>total</field>
     <field>integrated</field>
     <set>
      <set comment="spin 1">
       <r>   -49.0340     0.0000     0.0000 </r>
       <r>   -48.8261     0.0000     0.0000 </r>
       <r>   -48.6181     0.0000     0.0000 </r>
       <r>   -48.4102     0.0000     0.0000 </r>
       <r>   -48.2022     0.0000     0.0000 </r>
       <r>   -47.9943     0.0000     0.0000 </r>
       <r>   -47.7863     0.0000     0.0000 </r>
       <r>   -47.5784    -0.0000    -0.0000 </r>
       <r>   -47.3705    -0.0000    -0.0000 </r>
       <r>   -47.1625    -0.0000    -0.0000 </r>
       <r>   -46.9546    -0.0000    -0.0000 </r>
       <r>   -46.7466    -0.0000    -0.0000 </r>
       <r>   -46.5387    -0.0445    -0.0093 </r>
       <r>   -46.3307    -1.6504    -0.3524 </r>
       <r>   -46.1228    33.0111     6.5120 </r>
       <r>   -45.9149    70.8653    21.2479 </r>
       <r>   -45.7069     4.1338    22.1075 </r>
       <r>   -45.4990    -0.5156    22.0003 </r>
       <r>   -45.2910    -0.0012    22.0000 </r>
       <r>   -45.0831    -0.0000    22.0000 </r>
       <r>   -44.8752    -0.0000    22.0000 </r>
       <r>   -44.6672     0.0000    22.0000 </r>
       <r>   -44.4593     0.0000    22.0000 </r>
       <r>   -44.2513     0.0000    22.0000 </r>
       <r>   -44.0434     0.0000    22.0000 </r>
       <r>   -43.8354     0.0000    22.0000 </r>
       <r>   -43.6275     0.0000    22.0000 </r>
       <r>   -43.4196     0.0000    22.0000 </r>
       <r>   -43.2116     0.0000    22.0000 </r>
       <r>   -43.0037     0.0000    22.0000 </r>
       <r>   -42.7957     0.0000    22.0000 </r>
       <r>   -42.5878     0.0000    22.0000 </r>
       <r>   -42.3798     0.0000    22.0000 </r>
       <r>   -42.1719     0.0000    22.0000 </r>
       <r>   -41.9640     0.0000    22.0000 </r>
       <r>   -41.7560     0.0000    22.0000 </r>
       <r>   -41.5481     0.0000    22.0000 </r>
       <r>   -41.3401    -0.0000    22.0000 </r>
       <r>   -41.1322    -0.0000    22.0000 </r>
       <r>   -40.9242    -0.0000    22.0000 </r>
       <r>   -40.7163    -0.0000    22.0000 </r>
       <r>   -40.5084    -0.0055    21.9989 </r>
       <r>   -40.3004    -1.0031    21.7903 </r>
       <r>   -40.0925    13.1336    24.5213 </r>
       <r>   -39.8845    64.6887    37.9729 </r>
       <r>   -39.6766    10.6124    40.1796 </r>
       <r>   -39.4686    -0.8601    40.0008 </r>
       <r>   -39.2607    -0.0037    40.0000 </r>
       <r>   -39.0528    -0.0000    40.0000 </r>
       <r>   -38.8448    -0.0000    40.0000 </r>
       <r>   -38.6369     0.0000    40.0000 </r>
       <r>   -38.4289     0.0000    40.0000 </r>
       <r>   -38.2210     0.0000    40.0000 </r>
       <r>   -38.0130     0.0000    40.0000 </r>
       <r>   -37.8051     0.0000    40.0000 </r>
       <r>   -37.5972     0.0000    40.0000 </r>
       <r>   -37.3892     0.0000    40.0000 </r>
       <r>   -37.1813     0.0000    40.0000 </r>
       <r>   -36.9733     0.0000    40.0000 </r>
       <r>   -36.7654     0.0000    40.0000 </r>
       <r>   -36.5574     0.0000    40.0000 </r>
       <r>   -36.3495     0.0000    40.0000 </r>
       <r>   -36.1416     0.0000    40.0000 </r>
       <r>   -35.9336     0.0000    40.0000 </r>
       <r>   -35.7257     0.0000    40.0000 </r>
       <r>   -35.5177     0.0000    40.0000 </r>
       <r>   -35.3098     0.0000    40.0000 </r>
       <r>   -35.1018     0.0000    40.0000 </r>
       <r>   -34.8939     0.0000    40.0000 </r>
       <r>   -34.6860     0.0000    40.0000 </r>
       <r>   -34.4780     0.0000    40.0000 </r>
       <r>   -34.2701     0.0000    40.0000 </r>
       <r>   -34.0621     0.0000    40.0000 </r>
       <r>   -33.8542     0.0000    40.0000 </r>
       <r>   -33.6463     0.0000    40.0000 </r>
       <r>   -33.4383     0.0000    40.0000 </r>
       <r>   -33.2304     0.0000    40.0000 </r>
       <r>   -33.0224     0.0000    40.0000 </r>
       <r>   -32.8145     0.0000    40.0000 </r>
       <r>   -32.6065     0.0000    40.0000 </r>
       <r>   -32.3986     0.0000    40.0000 </r>
       <r>   -32.1907     0.0000    40.0000 </r>
       <r>   -31.9827     0.0000    40.0000 </r>
       <r>   -31.7748     0.0000    40.0000 </r>
       <r>   -31.5668     0.0000    40.0000 </r>
       <r>   -31.3589     0.0000    40.0000 </r>
       <r>   -31.1509     0.0000    40.0000 </r>
       <r>   -30.9430     0.0000    40.0000 </r>
       <r>   -30.7351     0.0000    40.0000 </r>
       <r>   -30.5271     0.0000    40.0000 </r>
       <r>   -30.3192     0.0000    40.0000 </r>
       <r>   -30.1112     0.0000    40.0000 </r>
       <r>   -29.9033     0.0000    40.0000 </r>
       <r>   -29.6953     0.0000    40.0000 </r>
       <r>   -29.4874     0.0000    40.0000 </r>
       <r>   -29.2795     0.0000    40.0000 </r>
       <r>   -29.0715     0.0000    40.0000 </r>
       <r>   -28.8636     0.0000    40.0000 </r>
       <r>   -28.6556     0.0000    40.0000 </r>
       <r>   -28.4477     0.0000    40.0000 </r>
       <r>   -28.2397     0.0000    40.0000 </r>
       <r>   -28.0318     0.0000    40.0000 </r>
       <r>   -27.8239     0.0000    40.0000 </r>
       <r>   -27.6159     0.0000    40.0000 </r>
       <r>   -27.4080     0.0000    40.0000 </r>
       <r>   -27.2000     0.0000    40.0000 </r>
       <r>   -26.9921     0.0000    40.0000 </r>
       <r>   -26.7841     0.0000    40.0000 </r>
       <r>   -26.5762     0.0000    40.0000 </r>
       <r>   -26.3683     0.0000    40.0000 </r>
       <r>   -26.1603     0.0000    40.0000 </r>
       <r>   -25.9524     0.0000    40.0000 </r>
       <r>   -25.7444     0.0000    40.0000 </r>
       <r>   -25.5365     0.0000    40.0000 </r>
       <r>   -25.3285     0.0000    40.0000 </r>
       <r>   -25.1206     0.0000    40.0000 </r>
       <r>   -24.9127     0.0000    40.0000 </r>
       <r>   -24.7047     0.0000    40.0000 </r>
       <r>   -24.4968     0.0000    40.0000 </r>
       <r>   -24.2888     0.0000    40.0000 </r>
       <r>   -24.0809     0.0000    40.0000 </r>
       <r>   -23.8729    -0.0000    40.0000 </r>
       <r>   -23.6650    -0.0000    40.0000 </r>
       <r>   -23.4571    -0.0000    40.0000 </r>
       <r>   -23.2491    -0.0000    40.0000 </r>
       <r>   -23.0412    -0.0018    39.9996 </r>
       <r>   -22.8332    -0.4742    39.9010 </r>
       <r>   -22.6253     4.1464    40.7632 </r>
       <r>   -22.4174    56.4952    52.5110 </r>
       <r>   -22.2094    95.3208    72.3322 </r>
       <r>   -22.0015    94.4885    91.9804 </r>
       <r>   -21.7935    58.5862   104.1630 </r>
       <r>   -21.5856     9.6329   106.1661 </r>
       <r>   -21.3776    -0.7939   106.0010 </r>
       <r>   -21.1697    -0.0047   106.0000 </r>
       <r>   -20.9618    -0.0000   106.0000 </r>
       <r>   -20.7538    -0.0000   106.0000 </r>
       <r>   -20.5459     0.0000   106.0000 </r>
       <r>   -20.3379     0.0000   106.0000 </r>
       <r>   -20.1300     0.0000   106.0000 </r>
       <r>   -19.9220    -0.0000   106.0000 </r>
       <r>   -19.7141    -0.0000   106.0000 </r>
       <r>   -19.5062    -0.0000   106.0000 </r>
       <r>   -19.2982    -0.0000   106.0000 </r>
       <r>   -19.0903    -0.0001   106.0000 </r>
       <r>   -18.8823    -0.0690   105.9856 </r>
       <r>   -18.6744    -0.1145   105.9618 </r>
       <r>   -18.4664    16.7949   109.4542 </r>
       <r>   -18.2585    53.7666   120.6346 </r>
       <r>   -18.0506    76.8261   136.6100 </r>
       <r>   -17.8426    79.9695   153.2390 </r>
       <r>   -17.6347    34.1567   160.3417 </r>
       <r>   -17.4267    -1.5857   160.0119 </r>
       <r>   -17.2188    -0.0573   160.0000 </r>
       <r>   -17.0108    -0.0000   160.0000 </r>
       <r>   -16.8029    -0.0000   160.0000 </r>
       <r>   -16.5950     0.0000   160.0000 </r>
       <r>   -16.3870     0.0000   160.0000 </r>
       <r>   -16.1791     0.0000   160.0000 </r>
       <r>   -15.9711     0.0000   160.0000 </r>
       <r>   -15.7632     0.0000   160.0000 </r>
       <r>   -15.5552     0.0000   160.0000 </r>
       <r>   -15.3473     0.0000   160.0000 </r>
       <r>   -15.1394     0.0000   160.0000 </r>
       <r>   -14.9314     0.0000   160.0000 </r>
       <r>   -14.7235     0.0000   160.0000 </r>
       <r>   -14.5155     0.0000   160.0000 </r>
       <r>   -14.3076     0.0000   160.0000 </r>
       <r>   -14.0996     0.0000   160.0000 </r>
       <r>   -13.8917     0.0000   160.0000 </r>
       <r>   -13.6838     0.0000   160.0000 </r>
       <r>   -13.4758     0.0000   160.0000 </r>
       <r>   -13.2679     0.0000   160.0000 </r>
       <r>   -13.0599     0.0000   160.0000 </r>
       <r>   -12.8520     0.0000   160.0000 </r>
       <r>   -12.6440     0.0000   160.0000 </r>
       <r>   -12.4361     0.0000   160.0000 </r>
       <r>   -12.2282     0.0000   160.0000 </r>
       <r>   -12.0202     0.0000   160.0000 </r>
       <r>   -11.8123     0.0000   160.0000 </r>
       <r>   -11.6043     0.0000   160.0000 </r>
       <r>   -11.3964     0.0000   160.0000 </r>
       <r>   -11.1884     0.0000   160.0000 </r>
       <r>   -10.9805     0.0000   160.0000 </r>
       <r>   -10.7726     0.0000   160.0000 </r>
       <r>   -10.5646     0.0000   160.0000 </r>
       <r>   -10.3567     0.0000   160.0000 </r>
       <r>   -10.1487     0.0000   160.0000 </r>
       <r>    -9.9408     0.0000   160.0000 </r>
       <r>    -9.7329     0.0000   160.0000 </r>
       <r>    -9.5249     0.0000   160.0000 </r>
       <r>    -9.3170     0.0000   160.0000 </r>
       <r>    -9.1090     0.0000   160.0000 </r>
       <r>    -8.9011     0.0000   160.0000 </r>
       <r>    -8.6931     0.0000   160.0000 </r>
       <r>    -8.4852     0.0000   160.0000 </r>
       <r>    -8.2773     0.0000   160.0000 </r>
       <r>    -8.0693     0.0000   160.0000 </r>
       <r>    -7.8614     0.0000   160.0000 </r>
       <r>    -7.6534     0.0000   160.0000 </r>
       <r>    -7.4455     0.0000   160.0000 </r>
       <r>    -7.2375     0.0000   160.0000 </r>
       <r>    -7.0296     0.0000   160.0000 </r>
       <r>    -6.8217     0.0000   160.0000 </r>
       <r>    -6.6137     0.0000   160.0000 </r>
       <r>    -6.4058     0.0000   160.0000 </r>
       <r>    -6.1978     0.0000   160.0000 </r>
       <r>    -5.9899     0.0000   160.0000 </r>
       <r>    -5.7819     0.0000   160.0000 </r>
       <r>    -5.5740     0.0000   160.0000 </r>
       <r>    -5.3661     0.0000   160.0000 </r>
       <r>    -5.1581     0.0000   160.0000 </r>
       <r>    -4.9502     0.0000   160.0000 </r>
       <r>    -4.7422     0.0000   160.0000 </r>
       <r>    -4.5343     0.0000   160.0000 </r>
       <r>    -4.3263     0.0000   160.0000 </r>
       <r>    -4.1184     0.0000   160.0000 </r>
       <r>    -3.9105     0.0000   160.0000 </r>
       <r>    -3.7025     0.0000   160.0000 </r>
       <r>    -3.4946     0.0000   160.0000 </r>
       <r>    -3.2866     0.0000   160.0000 </r>
       <r>    -3.0787     0.0000   160.0000 </r>
       <r>    -2.8707     0.0000   160.0000 </r>
       <r>    -2.6628     0.0000   160.0000 </r>
       <r>    -2.4549     0.0000   160.0000 </r>
       <r>    -2.2469     0.0000   160.0000 </r>
       <r>    -2.0390     0.0000   160.0000 </r>
       <r>    -1.8310     0.0000   160.0000 </r>
       <r>    -1.6231     0.0000   160.0000 </r>
       <r>    -1.4151     0.0000   160.0000 </r>
       <r>    -1.2072     0.0000   160.0000 </r>
       <r>    -0.9993     0.0000   160.0000 </r>
       <r>    -0.7913     0.0000   160.0000 </r>
       <r>    -0.5834     0.0000   160.0000 </r>
       <r>    -0.3754     0.0000   160.0000 </r>
       <r>    -0.1675     0.0000   160.0000 </r>
       <r>     0.0405    -0.0000   160.0000 </r>
       <r>     0.2484    -0.0000   160.0000 </r>
       <r>     0.4563    -0.0000   160.0000 </r>
       <r>     0.6643    -0.0000   160.0000 </r>
       <r>     0.8722    -0.0000   160.0000 </r>
       <r>     1.0802    -0.0015   159.9997 </r>
       <r>     1.2881    -0.0010   159.9995 </r>
       <r>     1.4960     0.3498   160.0722 </r>
       <r>     1.7040     1.3093   160.3445 </r>
       <r>     1.9119     1.6927   160.6965 </r>
       <r>     2.1199     2.0636   161.1256 </r>
       <r>     2.3278     3.8756   161.9315 </r>
       <r>     2.5358     2.8597   162.5261 </r>
       <r>     2.7437     1.9373   162.9290 </r>
       <r>     2.9516     4.9170   163.9514 </r>
       <r>     3.1596     2.7220   164.5174 </r>
       <r>     3.3675     6.0355   165.7725 </r>
       <r>     3.5755     7.0158   167.2314 </r>
       <r>     3.7834     7.7021   168.8330 </r>
       <r>     3.9914     8.8740   170.6783 </r>
       <r>     4.1993     9.0531   172.5608 </r>
       <r>     4.4072    11.5348   174.9594 </r>
       <r>     4.6152    18.9543   178.9008 </r>
       <r>     4.8231    21.6798   183.4089 </r>
       <r>     5.0311    29.0685   189.4535 </r>
       <r>     5.2390    32.4766   196.2068 </r>
       <r>     5.4470    38.4249   204.1970 </r>
       <r>     5.6549    40.0672   212.5286 </r>
       <r>     5.8628    40.7079   220.9935 </r>
       <r>     6.0708    34.4727   228.1619 </r>
       <r>     6.2787    36.4724   235.7461 </r>
       <r>     6.4867    21.4324   240.2028 </r>
       <r>     6.6946    25.8179   245.5714 </r>
       <r>     6.9026    63.1643   258.7060 </r>
       <r>     7.1105    63.7229   271.9567 </r>
       <r>     7.3184    54.7840   283.3486 </r>
       <r>     7.5264    49.1552   293.5701 </r>
       <r>     7.7343    53.2953   304.6524 </r>
       <r>     7.9423    58.8889   316.8980 </r>
       <r>     8.1502    51.1789   327.5402 </r>
       <r>     8.3582    48.2469   337.5728 </r>
       <r>     8.5661    48.5771   347.6741 </r>
       <r>     8.7740    39.0747   355.7994 </r>
       <r>     8.9820    30.2524   362.0901 </r>
       <r>     9.1899    19.9905   366.2470 </r>
       <r>     9.3979    16.8720   369.7554 </r>
       <r>     9.6058    11.3410   372.1137 </r>
       <r>     9.8138    19.3556   376.1386 </r>
       <r>    10.0217    29.2231   382.2153 </r>
       <r>    10.2296    26.3451   387.6936 </r>
       <r>    10.4376    16.6405   391.1538 </r>
       <r>    10.6455     4.3031   392.0486 </r>
       <r>    10.8535    -0.2266   392.0015 </r>
       <r>    11.0614    -0.0073   392.0000 </r>
       <r>    11.2694    -0.0000   392.0000 </r>
       <r>    11.4773    -0.0000   392.0000 </r>
       <r>    11.6852     0.0000   392.0000 </r>
       <r>    11.8932     0.0000   392.0000 </r>
       <r>    12.1011     0.0000   392.0000 </r>
       <r>    12.3091     0.0000   392.0000 </r>
       <r>    12.5170     0.0000   392.0000 </r>
       <r>    12.7250     0.0000   392.0000 </r>
       <r>    12.9329     0.0000   392.0000 </r>
       <r>    13.1408     0.0000   392.0000 </r>
       <r>    13.3488     0.0000   392.0000 </r>
      </set>
     </set>
    </array>
   </total>
  </dos>
 </calculation>
 <structure name="finalpos" >
  <crystal>
   <varray name="basis" >
    <v>       6.87304377      -0.02193246       0.00164282 </v>
    <v>      -0.03142650      10.16723157       0.00489265 </v>
    <v>       0.00248558       0.00479390      10.19763789 </v>
   </varray>
   <i name="volume">    712.60194654 </i>
   <varray name="rec_basis" >
    <v>       0.14549739       0.00044974      -0.00003568 </v>
    <v>       0.00031387       0.09835618      -0.00004631 </v>
    <v>      -0.00002359      -0.00004726       0.09806195 </v>
   </varray>
  </crystal>
  <varray name="positions" >
   <v>       0.77643795       0.82777402       0.83453973 </v>
   <v>       0.76175781       0.83270270       0.17227231 </v>
   <v>       0.49350330       0.33963227      -0.00146261 </v>
   <v>       0.21732095       0.83821455       0.83272661 </v>
   <v>       0.74246856       0.51191634       0.16928729 </v>
   <v>       0.00291413       0.32816981       0.99591281 </v>
   <v>       0.48373631       0.66612526       0.99243505 </v>
   <v>       0.25704466       0.16575940       0.18076901 </v>
   <v>       0.49555676       0.99192748       0.00275096 </v>
   <v>       0.01631124       0.66385307       0.34557197 </v>
   <v>       0.00635889       0.33029230       0.65918721 </v>
   <v>       0.72256875       0.16961068       0.82428433 </v>
   <v>       0.49446284       0.67062085       0.66725463 </v>
   <v>       0.99828830       0.01475419       0.65066923 </v>
   <v>       0.99354225       0.33626821       0.34568231 </v>
   <v>       0.25928962       0.84203553       0.49417947 </v>
   <v>       0.74114744       0.83584622       0.49189470 </v>
   <v>       0.26182542       0.50050615       0.17518752 </v>
   <v>       0.73665239       0.50063030       0.51058814 </v>
   <v>       0.00428001       0.01790066       0.00676726 </v>
   <v>       0.75863444       0.49878813       0.82036557 </v>
   <v>       0.27230443       0.16335518       0.49178229 </v>
   <v>       0.26882671       0.15902165       0.82310370 </v>
   <v>       0.49585615       0.99180225       0.65655845 </v>
   <v>       0.51165623       0.33424969       0.33888853 </v>
   <v>       0.24155569       0.83600203       0.17308854 </v>
   <v>       0.01750485       0.65188210       0.00528521 </v>
   <v>       0.48931317       0.66672194       0.34342246 </v>
   <v>       0.26597435       0.49645923       0.50117704 </v>
   <v>       0.50572120      -0.00124706       0.33547863 </v>
   <v>       0.00142737      -0.00191087       0.33922781 </v>
   <v>       0.00112776       0.65609740       0.65551779 </v>
   <v>       0.23390403       0.50330967       0.83015697 </v>
   <v>       0.49014757       0.34092070       0.66340214 </v>
   <v>       0.75090935       0.15641723       0.17410187 </v>
   <v>       0.72966312       0.16359672       0.49794908 </v>
  </varray>
 </structure>
</modeling>
