       N       E                     dE             d eps       ncg     rms          rms(c)
DAV:   1     0.175808175456E+04    0.17581E+04   -0.10792E+05  5432   0.104E+03
DAV:   2    -0.133971278478E+03   -0.18921E+04   -0.18216E+04  5792   0.384E+02
DAV:   3    -0.366630502008E+03   -0.23266E+03   -0.22079E+03  8352   0.920E+01
DAV:   4    -0.392500681313E+03   -0.25870E+02   -0.24638E+02  8304   0.289E+01
DAV:   5    -0.394848550431E+03   -0.23479E+01   -0.23117E+01  7888   0.883E+00    0.677E+01
RMM:   6    -0.383860060170E+03    0.10988E+02   -0.19493E+01  6713   0.102E+01    0.328E+01
RMM:   7    -0.385329357968E+03   -0.14693E+01   -0.26241E+01  7115   0.845E+00    0.109E+01
RMM:   8    -0.379548407550E+03    0.57810E+01   -0.54836E+00  7547   0.348E+00    0.403E+00
RMM:   9    -0.379510998885E+03    0.37409E-01   -0.17248E+00  7529   0.173E+00    0.290E+00
RMM:  10    -0.379456623748E+03    0.54375E-01   -0.42295E-01  7543   0.126E+00    0.127E+00
RMM:  11    -0.379418783796E+03    0.37840E-01   -0.13171E-01  7610   0.548E-01    0.685E-01
RMM:  12    -0.379414869164E+03    0.39146E-02   -0.47081E-02  7603   0.332E-01    0.403E-01
RMM:  13    -0.379413516310E+03    0.13529E-02   -0.12359E-02  7605   0.167E-01    0.241E-01
RMM:  14    -0.379413461332E+03    0.54977E-04   -0.47912E-03  7779   0.950E-02    0.128E-01
RMM:  15    -0.379413470978E+03   -0.96463E-05   -0.21305E-03  7828   0.590E-02    0.669E-02
RMM:  16    -0.379413481266E+03   -0.10288E-04   -0.90039E-04  6665   0.330E-02    0.385E-02
RMM:  17    -0.379413480183E+03    0.10837E-05   -0.35927E-04  6501   0.243E-02    0.191E-02
RMM:  18    -0.379413481807E+03   -0.16249E-05   -0.13384E-04  5109   0.154E-02    0.870E-03
RMM:  19    -0.379413484654E+03   -0.28466E-05   -0.72859E-05  4099   0.121E-02
   1 F= -.37941348E+03 E0= -.37941882E+03  d E =-.379413E+03
       N       E                     dE             d eps       ncg     rms          rms(c)
DAV:   1    -0.379414456159E+03   -0.97435E-03   -0.66622E-02  5552   0.754E-01    0.839E-02
RMM:   2    -0.379414700649E+03   -0.24449E-03   -0.35341E-03  7007   0.159E-01    0.400E-02
RMM:   3    -0.379414672168E+03    0.28481E-04   -0.31750E-04  7065   0.475E-02    0.311E-02
RMM:   4    -0.379414660993E+03    0.11175E-04   -0.79558E-05  5442   0.151E-02    0.195E-02
RMM:   5    -0.379414659292E+03    0.17009E-05   -0.25402E-05  3271   0.111E-02
   2 F= -.37941466E+03 E0= -.37941997E+03  d E =-.117464E-02
       N       E                     dE             d eps       ncg     rms          rms(c)
DAV:   1    -0.379415832450E+03   -0.11715E-02   -0.59817E-01  5296   0.226E+00    0.249E-01
RMM:   2    -0.379417783735E+03   -0.19513E-02   -0.28803E-02  7028   0.468E-01    0.121E-01
RMM:   3    -0.379417517968E+03    0.26577E-03   -0.26606E-03  7242   0.127E-01    0.927E-02
RMM:   4    -0.379417422552E+03    0.95417E-04   -0.73354E-04  8095   0.429E-02    0.587E-02
RMM:   5    -0.379417408762E+03    0.13790E-04   -0.30067E-04  7603   0.321E-02    0.332E-02
RMM:   6    -0.379417412248E+03   -0.34868E-05   -0.12638E-04  6832   0.205E-02    0.199E-02
RMM:   7    -0.379417412617E+03   -0.36823E-06   -0.37835E-05  3707   0.125E-02
   3 F= -.37941741E+03 E0= -.37942264E+03  d E =-.392796E-02
       N       E                     dE             d eps       ncg     rms          rms(c)
DAV:   1    -0.379413275533E+03    0.41367E-02   -0.23988E+00  5240   0.452E+00    0.504E-01
RMM:   2    -0.379420875295E+03   -0.75998E-02   -0.11407E-01  6989   0.934E-01    0.239E-01
RMM:   3    -0.379419783903E+03    0.10914E-02   -0.10505E-02  7226   0.259E-01    0.184E-01
RMM:   4    -0.379419387266E+03    0.39664E-03   -0.29966E-03  8247   0.876E-02    0.114E-01
RMM:   5    -0.379419331774E+03    0.55492E-04   -0.11816E-03  7812   0.645E-02    0.648E-02
RMM:   6    -0.379419341374E+03   -0.96003E-05   -0.50100E-04  8046   0.398E-02    0.396E-02
RMM:   7    -0.379419340933E+03    0.44164E-06   -0.17327E-04  6692   0.212E-02    0.255E-02
RMM:   8    -0.379419350692E+03   -0.97591E-05   -0.66671E-05  4839   0.148E-02
   4 F= -.37941935E+03 E0= -.37942441E+03  d E =-.586604E-02
       N       E                     dE             d eps       ncg     rms          rms(c)
DAV:   1    -0.379421855422E+03   -0.25145E-02   -0.18833E-01  5576   0.141E+00    0.388E-01
RMM:   2    -0.379421497658E+03    0.35776E-03   -0.16881E-02  7251   0.353E-01    0.155E-01
RMM:   3    -0.379420826490E+03    0.67117E-03   -0.29875E-03  7519   0.108E-01    0.112E-01
RMM:   4    -0.379420557929E+03    0.26856E-03   -0.85489E-04  7636   0.561E-02    0.621E-02
RMM:   5    -0.379420474507E+03    0.83422E-04   -0.29294E-04  7463   0.351E-02    0.402E-02
RMM:   6    -0.379420469142E+03    0.53654E-05   -0.12234E-04  6522   0.192E-02    0.273E-02
RMM:   7    -0.379420459050E+03    0.10092E-04   -0.37750E-05  3837   0.131E-02    0.163E-02
RMM:   8    -0.379420455604E+03    0.34456E-05   -0.23728E-05  3287   0.118E-02
   5 F= -.37942046E+03 E0= -.37942551E+03  d E =-.110491E-02
       N       E                     dE             d eps       ncg     rms          rms(c)
DAV:   1    -0.379422131182E+03   -0.16721E-02   -0.19410E-01  5456   0.143E+00    0.387E-01
RMM:   2    -0.379421756823E+03    0.37436E-03   -0.16988E-02  7034   0.358E-01    0.152E-01
RMM:   3    -0.379421054416E+03    0.70241E-03   -0.28672E-03  7446   0.108E-01    0.106E-01
RMM:   4    -0.379420798993E+03    0.25542E-03   -0.81719E-04  7627   0.551E-02    0.591E-02
RMM:   5    -0.379420725420E+03    0.73573E-04   -0.27777E-04  7324   0.340E-02    0.397E-02
RMM:   6    -0.379420723266E+03    0.21537E-05   -0.11491E-04  6187   0.193E-02    0.287E-02
RMM:   7    -0.379420716401E+03    0.68646E-05   -0.38482E-05  3909   0.132E-02
   6 F= -.37942072E+03 E0= -.37942576E+03  d E =-.136571E-02
       N       E                     dE             d eps       ncg     rms          rms(c)
DAV:   1    -0.379421070267E+03   -0.34700E-03   -0.36837E-02  5152   0.528E-01    0.376E-02
RMM:   2    -0.379421164851E+03   -0.94583E-04   -0.11679E-03  6889   0.103E-01    0.231E-02
RMM:   3    -0.379421159578E+03    0.52728E-05   -0.13221E-04  5731   0.293E-02    0.182E-02
RMM:   4    -0.379421158661E+03    0.91647E-06   -0.42665E-05  4054   0.118E-02
   7 F= -.37942116E+03 E0= -.37942619E+03  d E =-.442260E-03
       N       E                     dE             d eps       ncg     rms          rms(c)
DAV:   1    -0.379421350579E+03   -0.19100E-03   -0.33090E-01  5104   0.158E+00    0.110E-01
RMM:   2    -0.379422219546E+03   -0.86897E-03   -0.10325E-02  6589   0.305E-01    0.623E-02
RMM:   3    -0.379422187545E+03    0.32001E-04   -0.13121E-03  7358   0.865E-02    0.494E-02
RMM:   4    -0.379422176576E+03    0.10969E-04   -0.28842E-04  7199   0.241E-02    0.341E-02
RMM:   5    -0.379422174503E+03    0.20726E-05   -0.98980E-05  6024   0.155E-02
   8 F= -.37942217E+03 E0= -.37942719E+03  d E =-.145810E-02
       N       E                     dE             d eps       ncg     rms          rms(c)
DAV:   1    -0.379419464933E+03    0.27116E-02   -0.13225E+00  4928   0.316E+00    0.217E-01
RMM:   2    -0.379422905591E+03   -0.34407E-02   -0.40961E-02  6450   0.608E-01    0.119E-01
RMM:   3    -0.379422765316E+03    0.14027E-03   -0.50524E-03  7424   0.175E-01    0.938E-02
RMM:   4    -0.379422735219E+03    0.30097E-04   -0.10890E-03  8181   0.468E-02    0.647E-02
RMM:   5    -0.379422731282E+03    0.39366E-05   -0.37624E-04  7499   0.317E-02    0.395E-02
RMM:   6    -0.379422723235E+03    0.80478E-05   -0.15607E-04  7312   0.244E-02    0.155E-02
RMM:   7    -0.379422721787E+03    0.14476E-05   -0.43746E-05  4077   0.121E-02
   9 F= -.37942272E+03 E0= -.37942769E+03  d E =-.200539E-02
       N       E                     dE             d eps       ncg     rms          rms(c)
DAV:   1    -0.379422577898E+03    0.14534E-03   -0.88627E-02  5120   0.819E-01    0.563E-02
RMM:   2    -0.379422801737E+03   -0.22384E-03   -0.26471E-03  5765   0.156E-01    0.297E-02
RMM:   3    -0.379422783885E+03    0.17852E-04   -0.28055E-04  6793   0.469E-02    0.244E-02
RMM:   4    -0.379422778394E+03    0.54905E-05   -0.50640E-05  4483   0.121E-02
  10 F= -.37942278E+03 E0= -.37942777E+03  d E =-.206199E-02
       N       E                     dE             d eps       ncg     rms          rms(c)
DAV:   1    -0.379423172171E+03   -0.38829E-03   -0.86592E-02  5184   0.848E-01    0.135E-01
RMM:   2    -0.379423280336E+03   -0.10816E-03   -0.42594E-03  6770   0.179E-01    0.563E-02
RMM:   3    -0.379423200128E+03    0.80208E-04   -0.48741E-04  7191   0.538E-02    0.393E-02
RMM:   4    -0.379423180226E+03    0.19902E-04   -0.13138E-04  6753   0.212E-02    0.225E-02
RMM:   5    -0.379423174402E+03    0.58233E-05   -0.42768E-05  4093   0.133E-02
  11 F= -.37942317E+03 E0= -.37942814E+03  d E =-.396008E-03
       N       E                     dE             d eps       ncg     rms          rms(c)
DAV:   1    -0.379423374327E+03   -0.19410E-03   -0.19583E-01  4976   0.127E+00    0.200E-01
RMM:   2    -0.379423638213E+03   -0.26389E-03   -0.96687E-03  6998   0.267E-01    0.883E-02
RMM:   3    -0.379423461899E+03    0.17631E-03   -0.11710E-03  7308   0.775E-02    0.613E-02
RMM:   4    -0.379423417325E+03    0.44573E-04   -0.32997E-04  7431   0.323E-02    0.361E-02
RMM:   5    -0.379423407843E+03    0.94826E-05   -0.12912E-04  6657   0.200E-02    0.243E-02
RMM:   6    -0.379423411787E+03   -0.39443E-05   -0.44311E-05  4126   0.123E-02
  12 F= -.37942341E+03 E0= -.37942835E+03  d E =-.633393E-03
       N       E                     dE             d eps       ncg     rms          rms(c)
DAV:   1    -0.379423771432E+03   -0.36359E-03   -0.38780E-02  5408   0.590E-01    0.137E-01
RMM:   2    -0.379423812220E+03   -0.40788E-04   -0.26086E-03  7301   0.135E-01    0.622E-02
RMM:   3    -0.379423711465E+03    0.10075E-03   -0.44875E-04  7373   0.435E-02    0.434E-02
RMM:   4    -0.379423676766E+03    0.34699E-04   -0.14210E-04  6720   0.215E-02    0.233E-02
RMM:   5    -0.379423663034E+03    0.13732E-04   -0.39187E-05  3942   0.143E-02    0.145E-02
RMM:   6    -0.379423660716E+03    0.23182E-05   -0.15702E-05  2931   0.102E-02
  13 F= -.37942366E+03 E0= -.37942861E+03  d E =-.248929E-03
       N       E                     dE             d eps       ncg     rms          rms(c)
DAV:   1    -0.379424088605E+03   -0.42557E-03   -0.10963E-01  5240   0.996E-01    0.219E-01
RMM:   2    -0.379424165075E+03   -0.76470E-04   -0.69669E-03  6973   0.224E-01    0.967E-02
RMM:   3    -0.379423889464E+03    0.27561E-03   -0.10610E-03  7416   0.708E-02    0.654E-02
RMM:   4    -0.379423803703E+03    0.85762E-04   -0.33878E-04  7427   0.333E-02    0.359E-02
RMM:   5    -0.379423773952E+03    0.29751E-04   -0.11562E-04  6442   0.221E-02    0.224E-02
RMM:   6    -0.379423770594E+03    0.33577E-05   -0.41743E-05  3957   0.128E-02
  14 F= -.37942377E+03 E0= -.37942874E+03  d E =-.358807E-03
       N       E                     dE             d eps       ncg     rms          rms(c)
DAV:   1    -0.379423782731E+03   -0.87787E-05   -0.25378E-03  5600   0.150E-01    0.394E-02
RMM:   2    -0.379423781506E+03    0.12242E-05   -0.19461E-04  7083   0.361E-02    0.198E-02
RMM:   3    -0.379423772797E+03    0.87090E-05   -0.31899E-05  3603   0.121E-02
  15 F= -.37942377E+03 E0= -.37942875E+03  d E =-.361010E-03
       N       E                     dE             d eps       ncg     rms          rms(c)
DAV:   1    -0.379423797358E+03   -0.15852E-04   -0.11144E-02  5248   0.316E-01    0.743E-02
RMM:   2    -0.379423791565E+03    0.57929E-05   -0.78184E-04  7171   0.745E-02    0.338E-02
RMM:   3    -0.379423759302E+03    0.32264E-04   -0.12094E-04  6091   0.236E-02    0.236E-02
RMM:   4    -0.379423749714E+03    0.95880E-05   -0.29934E-05  3169   0.139E-02
  16 F= -.37942375E+03 E0= -.37942870E+03  d E =-.337926E-03
       N       E                     dE             d eps       ncg     rms          rms(c)
DAV:   1    -0.379423774402E+03   -0.15100E-04   -0.44012E-03  5360   0.200E-01    0.463E-02
RMM:   2    -0.379423782884E+03   -0.84820E-05   -0.27504E-04  6364   0.448E-02    0.210E-02
RMM:   3    -0.379423771910E+03    0.10973E-04   -0.36887E-05  4410   0.150E-02    0.129E-02
RMM:   4    -0.379423768843E+03    0.30676E-05   -0.95780E-06  2578   0.107E-02
  17 F= -.37942377E+03 E0= -.37942874E+03  d E =-.357056E-03
       N       E                     dE             d eps       ncg     rms          rms(c)
DAV:   1    -0.379423772865E+03   -0.95501E-06   -0.54972E-04  5144   0.703E-02    0.157E-02
RMM:   2    -0.379423773410E+03   -0.54481E-06   -0.38102E-05  3427   0.167E-02
  18 F= -.37942377E+03 E0= -.37942874E+03  d E =-.361623E-03
       N       E                     dE             d eps       ncg     rms          rms(c)
DAV:   1    -0.379423769235E+03    0.36309E-05   -0.13749E-04  5152   0.359E-02    0.767E-03
RMM:   2    -0.379423768480E+03    0.75486E-06   -0.83879E-06  2565   0.833E-03
  19 F= -.37942377E+03 E0= -.37942874E+03  d E =-.356693E-03
       N       E                     dE             d eps       ncg     rms          rms(c)
DAV:   1    -0.379423768983E+03    0.25137E-06   -0.33482E-05  3728   0.196E-02    0.677E-03
RMM:   2    -0.379423769365E+03   -0.38162E-06   -0.49195E-06  2539   0.949E-03
  20 F= -.37942377E+03 E0= -.37942874E+03  d E =-.357578E-03
       N       E                     dE             d eps       ncg     rms          rms(c)
DAV:   1    -0.379423767890E+03    0.10932E-05   -0.69364E-06  2792   0.860E-03    0.339E-03
RMM:   2    -0.379423767576E+03    0.31381E-06   -0.12934E-06  2493   0.359E-03
  21 F= -.37942377E+03 E0= -.37942873E+03  d E =-.355789E-03
       N       E                     dE             d eps       ncg     rms          rms(c)
DAV:   1    -0.379423767577E+03    0.31323E-06   -0.13937E-06  2800   0.475E-03    0.121E-03
RMM:   2    -0.379423767529E+03    0.47548E-07   -0.37955E-07  2066   0.249E-03
  22 F= -.37942377E+03 E0= -.37942873E+03  d E =-.355742E-03
       N       E                     dE             d eps       ncg     rms          rms(c)
DAV:   1    -0.379423828338E+03   -0.60761E-04   -0.54997E-03  5056   0.199E-01    0.192E-02
RMM:   2    -0.379423838176E+03   -0.98380E-05   -0.17315E-04  6421   0.404E-02    0.106E-02
RMM:   3    -0.379423835894E+03    0.22819E-05   -0.19571E-05  3041   0.116E-02
  23 F= -.37942384E+03 E0= -.37942881E+03  d E =-.683648E-04
       N       E                     dE             d eps       ncg     rms          rms(c)
DAV:   1    -0.379423927041E+03   -0.88865E-04   -0.49435E-02  4960   0.594E-01    0.595E-02
RMM:   2    -0.379424014382E+03   -0.87341E-04   -0.16060E-03  7245   0.121E-01    0.345E-02
RMM:   3    -0.379424005094E+03    0.92881E-05   -0.25942E-04  6812   0.319E-02    0.261E-02
RMM:   4    -0.379423996685E+03    0.84094E-05   -0.82706E-05  5433   0.151E-02
  24 F= -.37942400E+03 E0= -.37942903E+03  d E =-.229156E-03
       N       E                     dE             d eps       ncg     rms          rms(c)
DAV:   1    -0.379423831352E+03    0.17374E-03   -0.19713E-01  4944   0.119E+00    0.116E-01
RMM:   2    -0.379424199503E+03   -0.36815E-03   -0.63021E-03  7265   0.242E-01    0.675E-02
RMM:   3    -0.379424168279E+03    0.31225E-04   -0.10125E-03  7399   0.628E-02    0.518E-02
RMM:   4    -0.379424129032E+03    0.39247E-04   -0.28621E-04  7365   0.282E-02    0.269E-02
RMM:   5    -0.379424127517E+03    0.15152E-05   -0.12037E-04  6137   0.180E-02    0.148E-02
RMM:   6    -0.379424126557E+03    0.95929E-06   -0.40785E-05  3882   0.121E-02
  25 F= -.37942413E+03 E0= -.37942925E+03  d E =-.359028E-03
       N       E                     dE             d eps       ncg     rms          rms(c)
DAV:   1    -0.379424154709E+03   -0.27192E-04   -0.19576E-02  5104   0.373E-01    0.299E-02
RMM:   2    -0.379424198537E+03   -0.43829E-04   -0.57903E-04  6416   0.732E-02    0.158E-02
RMM:   3    -0.379424196652E+03    0.18849E-05   -0.74901E-05  4828   0.209E-02
  26 F= -.37942420E+03 E0= -.37942931E+03  d E =-.700950E-04
