       N       E                     dE             d eps       ncg     rms          rms(c)
DAV:   1     0.173619477754E+04    0.17362E+04   -0.10719E+05  5368   0.105E+03
DAV:   2    -0.125564184370E+03   -0.18618E+04   -0.17964E+04  5628   0.386E+02
DAV:   3    -0.359651879306E+03   -0.23409E+03   -0.22214E+03  8176   0.930E+01
DAV:   4    -0.386297958647E+03   -0.26646E+02   -0.25252E+02  8112   0.291E+01
DAV:   5    -0.388908444899E+03   -0.26105E+01   -0.25514E+01  7768   0.941E+00    0.651E+01
RMM:   6    -0.378429592466E+03    0.10479E+02   -0.24507E+01  6751   0.103E+01    0.319E+01
RMM:   7    -0.381642883257E+03   -0.32133E+01   -0.33238E+01  7402   0.977E+00    0.130E+01
RMM:   8    -0.373855615748E+03    0.77873E+01   -0.82481E+00  6937   0.414E+00    0.433E+00
RMM:   9    -0.373631859625E+03    0.22376E+00   -0.33005E+00  7434   0.252E+00    0.286E+00
RMM:  10    -0.373569085028E+03    0.62775E-01   -0.58769E-01  7465   0.121E+00    0.158E+00
RMM:  11    -0.373533728468E+03    0.35357E-01   -0.16099E-01  7371   0.575E-01    0.935E-01
RMM:  12    -0.373527056140E+03    0.66723E-02   -0.80193E-02  7472   0.433E-01    0.524E-01
RMM:  13    -0.373525290563E+03    0.17656E-02   -0.25842E-02  7486   0.248E-01    0.282E-01
RMM:  14    -0.373524443889E+03    0.84667E-03   -0.81868E-03  7508   0.122E-01    0.175E-01
RMM:  15    -0.373524346661E+03    0.97227E-04   -0.57651E-03  7482   0.927E-02    0.965E-02
RMM:  16    -0.373524434263E+03   -0.87602E-04   -0.22106E-03  7206   0.527E-02    0.653E-02
RMM:  17    -0.373524372529E+03    0.61734E-04   -0.66953E-04  6735   0.306E-02    0.337E-02
RMM:  18    -0.373524378054E+03   -0.55247E-05   -0.41251E-04  6425   0.243E-02    0.172E-02
RMM:  19    -0.373524386427E+03   -0.83724E-05   -0.13285E-04  4738   0.138E-02    0.888E-03
RMM:  20    -0.373524388779E+03   -0.23529E-05   -0.69658E-05  3667   0.103E-02
   1 F= -.37352439E+03 E0= -.37353203E+03  d E =-.373524E+03
       N       E                     dE             d eps       ncg     rms          rms(c)
DAV:   1    -0.373525561345E+03   -0.11749E-02   -0.43562E-02  5440   0.611E-01    0.129E-01
RMM:   2    -0.373525583880E+03   -0.22535E-04   -0.26634E-03  6937   0.136E-01    0.575E-02
RMM:   3    -0.373525501244E+03    0.82636E-04   -0.43773E-04  6953   0.424E-02    0.406E-02
RMM:   4    -0.373525459936E+03    0.41308E-04   -0.12033E-04  6421   0.217E-02    0.208E-02
RMM:   5    -0.373525450850E+03    0.90859E-05   -0.34753E-05  3570   0.135E-02
   2 F= -.37352545E+03 E0= -.37353314E+03  d E =-.106207E-02
       N       E                     dE             d eps       ncg     rms          rms(c)
DAV:   1    -0.373528600985E+03   -0.31410E-02   -0.39175E-01  5264   0.183E+00    0.385E-01
RMM:   2    -0.373528723149E+03   -0.12216E-03   -0.23029E-02  6896   0.404E-01    0.173E-01
RMM:   3    -0.373527972423E+03    0.75073E-03   -0.38584E-03  7308   0.124E-01    0.122E-01
RMM:   4    -0.373527624978E+03    0.34744E-03   -0.10853E-03  7492   0.627E-02    0.628E-02
RMM:   5    -0.373527570925E+03    0.54053E-04   -0.36982E-04  7444   0.354E-02    0.405E-02
RMM:   6    -0.373527566749E+03    0.41753E-05   -0.15822E-04  6580   0.207E-02    0.267E-02
RMM:   7    -0.373527560104E+03    0.66457E-05   -0.64359E-05  4838   0.139E-02
   3 F= -.37352756E+03 E0= -.37353537E+03  d E =-.317132E-02
       N       E                     dE             d eps       ncg     rms          rms(c)
DAV:   1    -0.373531296975E+03   -0.37302E-02   -0.15684E+00  5096   0.366E+00    0.770E-01
RMM:   2    -0.373531582726E+03   -0.28575E-03   -0.91199E-02  6852   0.797E-01    0.345E-01
RMM:   3    -0.373528616013E+03    0.29667E-02   -0.15462E-02  7378   0.249E-01    0.241E-01
RMM:   4    -0.373527248713E+03    0.13673E-02   -0.43551E-03  7533   0.126E-01    0.123E-01
RMM:   5    -0.373527056831E+03    0.19188E-03   -0.14643E-03  7567   0.700E-02    0.797E-02
RMM:   6    -0.373527060852E+03   -0.40214E-05   -0.61674E-04  7363   0.401E-02    0.529E-02
RMM:   7    -0.373527052137E+03    0.87157E-05   -0.27569E-04  6533   0.255E-02    0.340E-02
RMM:   8    -0.373527053078E+03   -0.94107E-06   -0.12688E-04  5761   0.189E-02    0.228E-02
RMM:   9    -0.373527055343E+03   -0.22657E-05   -0.73928E-05  4565   0.158E-02
   4 F= -.37352706E+03 E0= -.37353507E+03  d E =-.266656E-02
       N       E                     dE             d eps       ncg     rms          rms(c)
DAV:   1    -0.373529524863E+03   -0.24718E-02   -0.48805E-01  5168   0.204E+00    0.439E-01
RMM:   2    -0.373529489340E+03    0.35523E-04   -0.28759E-02  6858   0.443E-01    0.196E-01
RMM:   3    -0.373528575880E+03    0.91346E-03   -0.49527E-03  7361   0.139E-01    0.139E-01
RMM:   4    -0.373528125722E+03    0.45016E-03   -0.13774E-03  7508   0.727E-02    0.699E-02
RMM:   5    -0.373528066558E+03    0.59164E-04   -0.46079E-04  7450   0.399E-02    0.438E-02
RMM:   6    -0.373528074449E+03   -0.78908E-05   -0.17136E-04  6617   0.233E-02    0.284E-02
RMM:   7    -0.373528080329E+03   -0.58803E-05   -0.78328E-05  5070   0.144E-02
   5 F= -.37352808E+03 E0= -.37353598E+03  d E =-.369155E-02
       N       E                     dE             d eps       ncg     rms          rms(c)
DAV:   1    -0.373528931979E+03   -0.85753E-03   -0.37558E-02  5376   0.582E-01    0.127E-01
RMM:   2    -0.373528851350E+03    0.80629E-04   -0.21758E-03  5821   0.129E-01    0.495E-02
RMM:   3    -0.373528826149E+03    0.25201E-04   -0.34844E-04  6897   0.442E-02    0.357E-02
RMM:   4    -0.373528794355E+03    0.31794E-04   -0.11064E-04  5883   0.205E-02    0.200E-02
RMM:   5    -0.373528794976E+03   -0.62062E-06   -0.21203E-05  2866   0.125E-02
   6 F= -.37352879E+03 E0= -.37353669E+03  d E =-.714647E-03
       N       E                     dE             d eps       ncg     rms          rms(c)
DAV:   1    -0.373531199923E+03   -0.24056E-02   -0.33886E-01  5152   0.175E+00    0.394E-01
RMM:   2    -0.373530563387E+03    0.63654E-03   -0.20400E-02  6282   0.386E-01    0.158E-01
RMM:   3    -0.373530312820E+03    0.25057E-03   -0.35434E-03  7256   0.129E-01    0.117E-01
RMM:   4    -0.373529941840E+03    0.37098E-03   -0.11435E-03  7489   0.640E-02    0.638E-02
RMM:   5    -0.373529922689E+03    0.19151E-04   -0.34998E-04  7215   0.325E-02    0.435E-02
RMM:   6    -0.373529944062E+03   -0.21373E-04   -0.16309E-04  6639   0.210E-02    0.271E-02
RMM:   7    -0.373529956014E+03   -0.11952E-04   -0.69426E-05  5089   0.147E-02    0.169E-02
RMM:   8    -0.373529964086E+03   -0.80717E-05   -0.31202E-05  3497   0.125E-02
   7 F= -.37352996E+03 E0= -.37353784E+03  d E =-.188376E-02
       N       E                     dE             d eps       ncg     rms          rms(c)
DAV:   1    -0.373530154161E+03   -0.19815E-03   -0.39540E-02  5168   0.597E-01    0.133E-01
RMM:   2    -0.373530083130E+03    0.71031E-04   -0.23430E-03  6263   0.131E-01    0.518E-02
RMM:   3    -0.373530062776E+03    0.20354E-04   -0.41082E-04  7142   0.443E-02    0.383E-02
RMM:   4    -0.373530026084E+03    0.36692E-04   -0.13051E-04  5969   0.215E-02    0.200E-02
RMM:   5    -0.373530027195E+03   -0.11113E-05   -0.37092E-05  3592   0.137E-02
   8 F= -.37353003E+03 E0= -.37353789E+03  d E =-.194687E-02
       N       E                     dE             d eps       ncg     rms          rms(c)
DAV:   1    -0.373530038750E+03   -0.12666E-04   -0.56664E-04  5704   0.698E-02    0.224E-02
RMM:   2    -0.373530044536E+03   -0.57861E-05   -0.51823E-05  4646   0.167E-02
   9 F= -.37353004E+03 E0= -.37353791E+03  d E =-.196421E-02
       N       E                     dE             d eps       ncg     rms          rms(c)
DAV:   1    -0.373530179901E+03   -0.14115E-03   -0.49417E-03  4992   0.204E-01    0.218E-02
RMM:   2    -0.373530196443E+03   -0.16542E-04   -0.21432E-04  6493   0.419E-02    0.138E-02
RMM:   3    -0.373530189637E+03    0.68058E-05   -0.17345E-05  2839   0.131E-02
  10 F= -.37353019E+03 E0= -.37353806E+03  d E =-.145101E-03
       N       E                     dE             d eps       ncg     rms          rms(c)
DAV:   1    -0.373530488131E+03   -0.29169E-03   -0.44540E-02  4928   0.609E-01    0.681E-02
RMM:   2    -0.373530579972E+03   -0.91841E-04   -0.18216E-03  7244   0.124E-01    0.359E-02
RMM:   3    -0.373530571136E+03    0.88362E-05   -0.23626E-04  6933   0.311E-02    0.258E-02
RMM:   4    -0.373530562779E+03    0.83565E-05   -0.64966E-05  4938   0.136E-02
  11 F= -.37353056E+03 E0= -.37353842E+03  d E =-.518243E-03
       N       E                     dE             d eps       ncg     rms          rms(c)
DAV:   1    -0.373530665625E+03   -0.94490E-04   -0.17718E-01  4872   0.122E+00    0.132E-01
RMM:   2    -0.373531042084E+03   -0.37646E-03   -0.71306E-03  7301   0.248E-01    0.699E-02
RMM:   3    -0.373531016597E+03    0.25487E-04   -0.90281E-04  7353   0.611E-02    0.505E-02
RMM:   4    -0.373530980406E+03    0.36191E-04   -0.24484E-04  6865   0.250E-02    0.291E-02
RMM:   5    -0.373530978716E+03    0.16902E-05   -0.10395E-04  6332   0.171E-02    0.136E-02
RMM:   6    -0.373530979960E+03   -0.12445E-05   -0.32070E-05  3464   0.109E-02
  12 F= -.37353098E+03 E0= -.37353884E+03  d E =-.935424E-03
       N       E                     dE             d eps       ncg     rms          rms(c)
DAV:   1    -0.373530964265E+03    0.14450E-04   -0.39141E-02  4928   0.573E-01    0.619E-02
RMM:   2    -0.373531050741E+03   -0.86475E-04   -0.16181E-03  7252   0.117E-01    0.323E-02
RMM:   3    -0.373531045773E+03    0.49680E-05   -0.21662E-04  6736   0.294E-02    0.235E-02
RMM:   4    -0.373531040457E+03    0.53160E-05   -0.62236E-05  4535   0.130E-02
  13 F= -.37353104E+03 E0= -.37353889E+03  d E =-.995920E-03
       N       E                     dE             d eps       ncg     rms          rms(c)
DAV:   1    -0.373531926085E+03   -0.88031E-03   -0.59364E-02  5776   0.814E-01    0.242E-01
RMM:   2    -0.373531645293E+03    0.28079E-03   -0.57244E-03  7235   0.210E-01    0.969E-02
RMM:   3    -0.373531414515E+03    0.23078E-03   -0.11359E-03  7442   0.597E-02    0.719E-02
RMM:   4    -0.373531265390E+03    0.14913E-03   -0.31569E-04  7264   0.372E-02    0.344E-02
RMM:   5    -0.373531244251E+03    0.21139E-04   -0.90089E-05  5536   0.203E-02    0.221E-02
RMM:   6    -0.373531239030E+03    0.52217E-05   -0.36594E-05  3460   0.129E-02
  14 F= -.37353124E+03 E0= -.37353913E+03  d E =-.198573E-03
       N       E                     dE             d eps       ncg     rms          rms(c)
DAV:   1    -0.373531276019E+03   -0.31767E-04   -0.34468E-03  6000   0.199E-01    0.525E-02
RMM:   2    -0.373531258504E+03    0.17515E-04   -0.31391E-04  7056   0.510E-02    0.211E-02
RMM:   3    -0.373531244104E+03    0.14400E-04   -0.47346E-05  4317   0.134E-02    0.159E-02
RMM:   4    -0.373531235958E+03    0.81468E-05   -0.10794E-05  2700   0.108E-02
  15 F= -.37353124E+03 E0= -.37353915E+03  d E =-.195501E-03
       N       E                     dE             d eps       ncg     rms          rms(c)
DAV:   1    -0.373531328290E+03   -0.84185E-04   -0.51891E-02  4880   0.643E-01    0.518E-02
RMM:   2    -0.373531454657E+03   -0.12637E-03   -0.17897E-03  6879   0.129E-01    0.303E-02
RMM:   3    -0.373531449044E+03    0.56130E-05   -0.22681E-04  6625   0.345E-02    0.235E-02
RMM:   4    -0.373531442790E+03    0.62544E-05   -0.47458E-05  4169   0.122E-02
  16 F= -.37353144E+03 E0= -.37353937E+03  d E =-.206832E-03
       N       E                     dE             d eps       ncg     rms          rms(c)
DAV:   1    -0.373530695318E+03    0.75373E-03   -0.46610E-01  4816   0.192E+00    0.156E-01
RMM:   2    -0.373531834492E+03   -0.11392E-02   -0.15929E-02  6942   0.384E-01    0.878E-02
RMM:   3    -0.373531812905E+03    0.21586E-04   -0.20835E-03  7366   0.101E-01    0.676E-02
RMM:   4    -0.373531762871E+03    0.50035E-04   -0.46025E-04  7491   0.325E-02    0.424E-02
RMM:   5    -0.373531760652E+03    0.22184E-05   -0.20243E-04  6834   0.249E-02    0.222E-02
RMM:   6    -0.373531757123E+03    0.35291E-05   -0.75613E-05  5469   0.157E-02
  17 F= -.37353176E+03 E0= -.37353972E+03  d E =-.521166E-03
       N       E                     dE             d eps       ncg     rms          rms(c)
DAV:   1    -0.373532132948E+03   -0.37230E-03   -0.89020E-02  5132   0.919E-01    0.194E-01
RMM:   2    -0.373532079773E+03    0.53175E-04   -0.57110E-03  6252   0.210E-01    0.786E-02
RMM:   3    -0.373531980609E+03    0.99164E-04   -0.85257E-04  7268   0.668E-02    0.567E-02
RMM:   4    -0.373531893424E+03    0.87184E-04   -0.24709E-04  7177   0.300E-02    0.288E-02
RMM:   5    -0.373531889098E+03    0.43261E-05   -0.71408E-05  4853   0.170E-02
  18 F= -.37353189E+03 E0= -.37353985E+03  d E =-.131975E-03
       N       E                     dE             d eps       ncg     rms          rms(c)
DAV:   1    -0.373531909909E+03   -0.16485E-04   -0.77617E-03  5168   0.272E-01    0.528E-02
RMM:   2    -0.373531914466E+03   -0.45563E-05   -0.50195E-04  6496   0.614E-02    0.243E-02
RMM:   3    -0.373531902273E+03    0.12193E-04   -0.64984E-05  4567   0.193E-02    0.165E-02
RMM:   4    -0.373531900601E+03    0.16718E-05   -0.19694E-05  2931   0.135E-02
  19 F= -.37353190E+03 E0= -.37353986E+03  d E =-.143478E-03
       N       E                     dE             d eps       ncg     rms          rms(c)
DAV:   1    -0.373531965281E+03   -0.63008E-04   -0.22858E-02  4880   0.425E-01    0.449E-02
RMM:   2    -0.373532028158E+03   -0.62876E-04   -0.91135E-04  7170   0.871E-02    0.253E-02
RMM:   3    -0.373532025543E+03    0.26149E-05   -0.11286E-04  5390   0.235E-02    0.194E-02
RMM:   4    -0.373532022477E+03    0.30655E-05   -0.31745E-05  3503   0.127E-02
  20 F= -.37353202E+03 E0= -.37354000E+03  d E =-.121876E-03
       N       E                     dE             d eps       ncg     rms          rms(c)
DAV:   1    -0.373531753611E+03    0.27193E-03   -0.20481E-01  4816   0.127E+00    0.127E-01
RMM:   2    -0.373532263788E+03   -0.51018E-03   -0.78235E-03  7221   0.256E-01    0.692E-02
RMM:   3    -0.373532232684E+03    0.31104E-04   -0.90156E-04  7362   0.639E-02    0.521E-02
RMM:   4    -0.373532195749E+03    0.36935E-04   -0.21211E-04  6952   0.240E-02    0.331E-02
RMM:   5    -0.373532186773E+03    0.89760E-05   -0.88461E-05  6245   0.172E-02
  21 F= -.37353219E+03 E0= -.37354021E+03  d E =-.286172E-03
       N       E                     dE             d eps       ncg     rms          rms(c)
DAV:   1    -0.373532168273E+03    0.27476E-04   -0.88446E-03  5152   0.265E-01    0.274E-02
RMM:   2    -0.373532195108E+03   -0.26835E-04   -0.38034E-04  6808   0.540E-02    0.174E-02
RMM:   3    -0.373532187829E+03    0.72796E-05   -0.44466E-05  3924   0.160E-02
  22 F= -.37353219E+03 E0= -.37354021E+03  d E =-.287227E-03
       N       E                     dE             d eps       ncg     rms          rms(c)
DAV:   1    -0.373532333483E+03   -0.13838E-03   -0.12718E-02  5304   0.359E-01    0.944E-02
RMM:   2    -0.373532308471E+03    0.25012E-04   -0.98841E-04  7090   0.868E-02    0.379E-02
RMM:   3    -0.373532274340E+03    0.34131E-04   -0.17891E-04  6509   0.261E-02    0.279E-02
RMM:   4    -0.373532249564E+03    0.24776E-04   -0.46066E-05  3775   0.170E-02    0.146E-02
RMM:   5    -0.373532245860E+03    0.37042E-05   -0.15247E-05  2836   0.124E-02
  23 F= -.37353225E+03 E0= -.37354028E+03  d E =-.580309E-04
       N       E                     dE             d eps       ncg     rms          rms(c)
DAV:   1    -0.373532304000E+03   -0.54436E-04   -0.76665E-03  5160   0.281E-01    0.689E-02
RMM:   2    -0.373532293460E+03    0.10540E-04   -0.56928E-04  6974   0.668E-02    0.280E-02
RMM:   3    -0.373532270165E+03    0.23295E-04   -0.89403E-05  5949   0.197E-02    0.198E-02
RMM:   4    -0.373532256605E+03    0.13560E-04   -0.19974E-05  2873   0.130E-02    0.128E-02
RMM:   5    -0.373532254526E+03    0.20789E-05   -0.81284E-06  2671   0.103E-02
  24 F= -.37353225E+03 E0= -.37354030E+03  d E =-.666975E-04
       N       E                     dE             d eps       ncg     rms          rms(c)
DAV:   1    -0.373532303164E+03   -0.46559E-04   -0.68695E-03  4928   0.242E-01    0.339E-02
RMM:   2    -0.373532313596E+03   -0.10431E-04   -0.35029E-04  7331   0.516E-02    0.182E-02
RMM:   3    -0.373532311485E+03    0.21111E-05   -0.44846E-05  4129   0.147E-02
  25 F= -.37353231E+03 E0= -.37354034E+03  d E =-.569584E-04
