<?xml version="1.0" encoding="ISO-8859-1"?>
<modeling>
 <generator>
  <i name="program" type="string">vasp </i>
  <i name="version" type="string">5.4.1  </i>
  <i name="subversion" type="string">05Feb16 (build Jan 29 2020 16:04:39) complex                          parallel </i>
  <i name="platform" type="string">IFC91_ompi </i>
  <i name="date" type="string">2020 06 15 </i>
  <i name="time" type="string">03:05:28 </i>
 </generator>
 <incar>
  <i type="string" name="SYSTEM"> automatically generated by mexm</i>
  <i type="int" name="ISTART">     0</i>
  <i type="string" name="PREC">accurate               ! avoid wrap aro</i>
  <i type="string" name="ALGO"> Fast                   ! blocked Davids</i>
  <i type="int" name="ISPIN">     1</i>
  <i type="int" name="ICHARG">     2</i>
  <i type="int" name="NELM">    70</i>
  <i type="int" name="IBRION">     2</i>
  <i name="EDIFF">      0.00001000</i>
  <i name="EDIFFG">     -0.01000000</i>
  <i type="int" name="NSW">   300</i>
  <i type="int" name="ISIF">     3</i>
  <i type="int" name="ISYM">     1</i>
  <i name="ENCUT">    300.00000000</i>
  <i name="POTIM">      0.15000000</i>
  <i type="string" name="LREAL"> Auto                  ! unpublished met</i>
  <i type="int" name="ISMEAR">     1</i>
  <i name="SIGMA">      0.15000000</i>
  <i type="logical" name="LWAVE"> F  </i>
  <i type="logical" name="LCHARG"> F  </i>
  <i type="logical" name="LVTOT"> F  </i>
  <v type="int" name="KPOINT_BSE">    -1     0     0     0</v>
  <i type="int" name="NELM">    70</i>
 </incar>
 <kpoints>
  <generation param="Gamma">
   <v type="int" name="divisions">       3        3        3 </v>
   <v name="usershift">      0.00000000       0.00000000       0.00000000 </v>
   <v name="genvec1">      0.33333333       0.00000000       0.00000000 </v>
   <v name="genvec2">     -0.00000000       0.33333333       0.00000000 </v>
   <v name="genvec3">      0.00000000      -0.00000000       0.33333333 </v>
   <v name="shift">      0.00000000       0.00000000       0.00000000 </v>
  </generation>
  <varray name="kpointlist" >
   <v>       0.00000000       0.00000000       0.00000000 </v>
   <v>       0.33333333      -0.00000000       0.00000000 </v>
   <v>       0.00000000       0.33333333       0.00000000 </v>
   <v>       0.33333333       0.33333333       0.00000000 </v>
   <v>      -0.33333333       0.33333333      -0.00000000 </v>
   <v>      -0.00000000      -0.00000000       0.33333333 </v>
   <v>       0.33333333      -0.00000000       0.33333333 </v>
   <v>      -0.33333333      -0.00000000       0.33333333 </v>
   <v>      -0.00000000       0.33333333       0.33333333 </v>
   <v>       0.33333333       0.33333333       0.33333333 </v>
   <v>      -0.33333333       0.33333333       0.33333333 </v>
   <v>       0.00000000      -0.33333333       0.33333333 </v>
   <v>       0.33333333      -0.33333333       0.33333333 </v>
   <v>      -0.33333333      -0.33333333       0.33333333 </v>
  </varray>
  <varray name="weights" >
   <v>       0.03703704 </v>
   <v>       0.07407407 </v>
   <v>       0.07407407 </v>
   <v>       0.07407407 </v>
   <v>       0.07407407 </v>
   <v>       0.07407407 </v>
   <v>       0.07407407 </v>
   <v>       0.07407407 </v>
   <v>       0.07407407 </v>
   <v>       0.07407407 </v>
   <v>       0.07407407 </v>
   <v>       0.07407407 </v>
   <v>       0.07407407 </v>
   <v>       0.07407407 </v>
  </varray>
 </kpoints>
 <parameters>
  <separator name="general" >
   <i type="string" name="SYSTEM">automatically generated by mexm</i>
   <i type="logical" name="LCOMPAT"> F  </i>
  </separator>
  <separator name="electronic" >
   <i type="string" name="PREC">accura</i>
   <i name="ENMAX">    300.00000000</i>
   <i name="ENAUG">    461.25700000</i>
   <i name="EDIFF">      0.00001000</i>
   <i type="int" name="IALGO">    68</i>
   <i type="int" name="IWAVPR">    11</i>
   <i type="int" name="NBANDS">   200</i>
   <i name="NELECT">    330.00000000</i>
   <i type="int" name="TURBO">     0</i>
   <i type="int" name="IRESTART">     0</i>
   <i type="int" name="NREBOOT">     0</i>
   <i type="int" name="NMIN">     0</i>
   <i name="EREF">      0.00000000</i>
   <separator name="electronic smearing" >
    <i type="int" name="ISMEAR">     1</i>
    <i name="SIGMA">      0.15000000</i>
    <i name="KSPACING">      0.50000000</i>
    <i type="logical" name="KGAMMA"> T  </i>
   </separator>
   <separator name="electronic projectors" >
    <i type="logical" name="LREAL"> T  </i>
    <v name="ROPT">     -0.00025000     -0.00025000     -0.00025000     -0.00025000</v>
    <i type="int" name="LMAXPAW">  -100</i>
    <i type="int" name="LMAXMIX">     2</i>
    <i type="logical" name="NLSPLINE"> F  </i>
   </separator>
   <separator name="electronic startup" >
    <i type="int" name="ISTART">     0</i>
    <i type="int" name="ICHARG">     2</i>
    <i type="int" name="INIWAV">     1</i>
   </separator>
   <separator name="electronic spin" >
    <i type="int" name="ISPIN">     1</i>
    <i type="logical" name="LNONCOLLINEAR"> F  </i>
    <v name="MAGMOM">      1.00000000      1.00000000      1.00000000      1.00000000      1.00000000      1.00000000      1.00000000      1.00000000      1.00000000      1.00000000      1.00000000      1.00000000      1.00000000      1.00000000      1.00000000      1.00000000      1.00000000      1.00000000      1.00000000      1.00000000
      1.00000000      1.00000000      1.00000000      1.00000000      1.00000000      1.00000000      1.00000000      1.00000000      1.00000000      1.00000000      1.00000000      1.00000000      1.00000000      1.00000000      1.00000000      1.00000000</v>
    <i name="NUPDOWN">     -1.00000000</i>
    <i type="logical" name="LSORBIT"> F  </i>
    <v name="SAXIS">      0.00000000      0.00000000      1.00000000</v>
    <i type="logical" name="LSPIRAL"> F  </i>
    <v name="QSPIRAL">      0.00000000      0.00000000      0.00000000</v>
    <i type="logical" name="LZEROZ"> F  </i>
   </separator>
   <separator name="electronic exchange-correlation" >
    <i type="logical" name="LASPH"> F  </i>
    <i type="logical" name="LMETAGGA"> F  </i>
   </separator>
   <separator name="electronic convergence" >
    <i type="int" name="NELM">    70</i>
    <i type="int" name="NELMDL">    -5</i>
    <i type="int" name="NELMIN">     2</i>
    <i name="ENINI">    300.00000000</i>
    <separator name="electronic convergence detail" >
     <i type="logical" name="LDIAG"> T  </i>
     <i type="logical" name="LSUBROT"> F  </i>
     <i name="WEIMIN">      0.00100000</i>
     <i name="EBREAK">      0.00000001</i>
     <i name="DEPER">      0.30000000</i>
     <i type="int" name="NRMM">     4</i>
     <i name="TIME">      0.40000000</i>
    </separator>
   </separator>
   <separator name="electronic mixer" >
    <i name="AMIX">      0.40000000</i>
    <i name="BMIX">      1.00000000</i>
    <i name="AMIN">      0.10000000</i>
    <i name="AMIX_MAG">      1.60000000</i>
    <i name="BMIX_MAG">      1.00000000</i>
    <separator name="electronic mixer details" >
     <i type="int" name="IMIX">     4</i>
     <i type="logical" name="MIXFIRST"> F  </i>
     <i type="int" name="MAXMIX">   -45</i>
     <i name="WC">    100.00000000</i>
     <i type="int" name="INIMIX">     1</i>
     <i type="int" name="MIXPRE">     1</i>
     <i type="int" name="MREMOVE">     5</i>
    </separator>
   </separator>
   <separator name="electronic dipolcorrection" >
    <i type="logical" name="LDIPOL"> F  </i>
    <i type="logical" name="LMONO"> F  </i>
    <i type="int" name="IDIPOL">     0</i>
    <i name="EPSILON">      1.00000000</i>
    <v name="DIPOL">   -100.00000000   -100.00000000   -100.00000000</v>
    <i name="EFIELD">      0.00000000</i>
   </separator>
  </separator>
  <separator name="grids" >
   <i type="int" name="NGX">    40</i>
   <i type="int" name="NGY">    60</i>
   <i type="int" name="NGZ">    60</i>
   <i type="int" name="NGXF">    80</i>
   <i type="int" name="NGYF">   120</i>
   <i type="int" name="NGZF">   120</i>
   <i type="logical" name="ADDGRID"> F  </i>
  </separator>
  <separator name="ionic" >
   <i type="int" name="NSW">   300</i>
   <i type="int" name="IBRION">     2</i>
   <i type="int" name="ISIF">     3</i>
   <i name="PSTRESS">      0.00000000</i>
   <i name="EDIFFG">     -0.01000000</i>
   <i type="int" name="NFREE">     1</i>
   <i name="POTIM">      0.15000000</i>
   <i name="SMASS">     -3.00000000</i>
   <i name="SCALEE">      1.00000000</i>
  </separator>
  <separator name="ionic md" >
   <i name="TEBEG">      0.00010000</i>
   <i name="TEEND">      0.00010000</i>
   <i type="int" name="NBLOCK">     1</i>
   <i type="int" name="KBLOCK">   300</i>
   <i type="int" name="NPACO">   256</i>
   <i name="APACO">     16.00000000</i>
  </separator>
  <separator name="symmetry" >
   <i type="int" name="ISYM">     1</i>
   <i name="SYMPREC">      0.00001000</i>
  </separator>
  <separator name="dos" >
   <i type="logical" name="LORBIT"> F  </i>
   <v name="RWIGS">     -1.00000000     -1.00000000     -1.00000000     -1.00000000</v>
   <i type="int" name="NEDOS">   301</i>
   <i name="EMIN">     10.00000000</i>
   <i name="EMAX">    -10.00000000</i>
   <i name="EFERMI">      0.00000000</i>
  </separator>
  <separator name="writing" >
   <i type="int" name="NWRITE">     2</i>
   <i type="logical" name="LWAVE"> F  </i>
   <i type="logical" name="LCHARG"> F  </i>
   <i type="logical" name="LPARD"> F  </i>
   <i type="logical" name="LVTOT"> F  </i>
   <i type="logical" name="LVHAR"> F  </i>
   <i type="logical" name="LELF"> F  </i>
   <i type="logical" name="LOPTICS"> F  </i>
   <v name="STM">      0.00000000      0.00000000      0.00000000      0.00000000      0.00000000      0.00000000      0.00000000</v>
  </separator>
  <separator name="performance" >
   <i type="int" name="NPAR">     4</i>
   <i type="int" name="NSIM">     4</i>
   <i type="int" name="NBLK">    -1</i>
   <i type="logical" name="LPLANE"> T  </i>
   <i type="logical" name="LSCALAPACK"> T  </i>
   <i type="logical" name="LSCAAWARE"> F  </i>
   <i type="logical" name="LSCALU"> F  </i>
   <i type="logical" name="LASYNC"> F  </i>
   <i type="logical" name="LORBITALREAL"> F  </i>
  </separator>
  <separator name="miscellaneous" >
   <i type="int" name="IDIOT">     3</i>
   <i type="logical" name="LMUSIC"> F  </i>
   <v name="POMASS">     91.22400000    178.49000000     92.91000000    180.94800000</v>
   <v name="DARWINR">      0.00000000      0.00000000      0.00000000      0.00000000</v>
   <v name="DARWINV">      1.00000000      1.00000000      1.00000000      1.00000000</v>
   <i type="logical" name="LCORR"> T  </i>
  </separator>
  <i type="logical" name="GGA_COMPAT"> T  </i>
  <i type="logical" name="LBERRY"> F  </i>
  <i type="int" name="ICORELEVEL">     0</i>
  <i type="logical" name="LDAU"> F  </i>
  <i type="int" name="I_CONSTRAINED_M">     0</i>
  <separator name="electronic exchange-correlation" >
   <i type="string" name="GGA">--</i>
   <i type="int" name="VOSKOWN">     0</i>
   <i type="logical" name="LHFCALC"> F  </i>
   <i type="string" name="PRECFOCK"></i>
   <i type="logical" name="LSYMGRAD"> F  </i>
   <i type="logical" name="LHFONE"> F  </i>
   <i type="logical" name="LRHFCALC"> F  </i>
   <i type="logical" name="LTHOMAS"> F  </i>
   <i type="logical" name="LMODELHF"> F  </i>
   <i name="ENCUT4O">     -1.00000000</i>
   <i type="int" name="EXXOEP">     0</i>
   <i type="int" name="FOURORBIT">     0</i>
   <i name="AEXX">      0.00000000</i>
   <i name="HFALPHA">      0.00000000</i>
   <i name="MCALPHA">      0.00000000</i>
   <i name="ALDAX">      1.00000000</i>
   <i name="AGGAX">      1.00000000</i>
   <i name="ALDAC">      1.00000000</i>
   <i name="AGGAC">      1.00000000</i>
   <i type="int" name="NKREDX">     1</i>
   <i type="int" name="NKREDY">     1</i>
   <i type="int" name="NKREDZ">     1</i>
   <i type="logical" name="SHIFTRED"> F  </i>
   <i type="logical" name="ODDONLY"> F  </i>
   <i type="logical" name="EVENONLY"> F  </i>
   <i type="int" name="LMAXFOCK">     0</i>
   <i type="int" name="NMAXFOCKAE">     0</i>
   <i type="logical" name="LFOCKAEDFT"> F  </i>
   <i name="HFSCREEN">      0.00000000</i>
   <i name="HFSCREENC">      0.00000000</i>
   <i type="int" name="NBANDSGWLOW">     0</i>
  </separator>
  <separator name="vdW DFT" >
   <i type="logical" name="LUSE_VDW"> F  </i>
   <i name="Zab_VDW">     -0.84910000</i>
   <i name="PARAM1">      0.12340000</i>
   <i name="PARAM2">      1.00000000</i>
   <i name="PARAM3">      0.00000000</i>
  </separator>
  <separator name="model GW" >
   <i type="int" name="MODEL_GW">     0</i>
   <i name="MODEL_EPS0">     12.10432126</i>
   <i name="MODEL_ALPHA">      1.00000000</i>
  </separator>
  <separator name="linear response parameters" >
   <i type="logical" name="LEPSILON"> F  </i>
   <i type="logical" name="LRPA"> F  </i>
   <i type="logical" name="LNABLA"> F  </i>
   <i type="logical" name="LVEL"> F  </i>
   <i type="int" name="KINTER">     0</i>
   <i name="CSHIFT">      0.10000000</i>
   <i name="OMEGAMAX">     -1.00000000</i>
   <i name="DEG_THRESHOLD">      0.00200000</i>
  </separator>
  <separator name="orbital magnetization" >
   <i type="logical" name="NUCIND"> F  </i>
   <v name="MAGPOS">      0.00000000      0.00000000      0.00000000</v>
   <i type="logical" name="LNICSALL"> T  </i>
   <i type="logical" name="ORBITALMAG"> F  </i>
   <i type="logical" name="LMAGBLOCH"> F  </i>
   <i type="logical" name="LCHIMAG"> F  </i>
   <i type="logical" name="LGAUGE"> T  </i>
   <i type="int" name="MAGATOM">     0</i>
   <v name="MAGDIPOL">      0.00000000      0.00000000      0.00000000</v>
   <v name="AVECCONST">      0.00000000      0.00000000      0.00000000</v>
  </separator>
  <separator name="response functions" >
   <i type="logical" name="LADDER"> F  </i>
   <i type="logical" name="LFXC"> F  </i>
   <i type="logical" name="LHARTREE"> T  </i>
   <i type="int" name="IBSE">     0</i>
   <v type="int" name="KPOINT">    -1     0     0     0</v>
   <i type="logical" name="LTCTE"> F  </i>
   <i type="logical" name="LTETE"> F  </i>
   <i type="logical" name="LTRIPLET"> F  </i>
   <i type="logical" name="LFXCEPS"> F  </i>
   <i type="logical" name="LFXHEG"> F  </i>
   <i type="int" name="NATURALO">     0</i>
   <i type="logical" name="L2ORDER"> F  </i>
   <i type="logical" name="LUSEW"> F  </i>
   <i name="ENCUTGW">     -2.00000000</i>
   <i name="ENCUTGWSOFT">     -2.00000000</i>
   <i name="ENCUTLF">     -1.00000000</i>
   <i type="int" name="LMAXMP2">    -1</i>
   <i name="SCISSOR">      0.00000000</i>
   <i type="int" name="NOMEGA">     0</i>
   <i type="int" name="NOMEGAR">     0</i>
   <i type="int" name="NBANDSGW">    -1</i>
   <i type="int" name="NBANDSO">    -1</i>
   <i type="int" name="NBANDSV">    -1</i>
   <i type="int" name="NELM">    70</i>
   <i type="int" name="NELMHF">     1</i>
   <i type="int" name="DIM">     3</i>
   <i type="int" name="ANTIRES">     0</i>
   <i name="OMEGAMAX">    -30.00000000</i>
   <i name="OMEGAMIN">    -30.00000000</i>
   <i name="OMEGATL">   -200.00000000</i>
   <i type="int" name="OMEGAGRID">     0</i>
   <i name="CSHIFT">     -0.10000000</i>
   <i type="logical" name="SELFENERGY"> F  </i>
   <i type="logical" name="LSPECTRAL"> F  </i>
   <i type="logical" name="LSPECTRALGW"> F  </i>
   <i type="logical" name="LSINGLES"> F  </i>
   <i type="logical" name="LFERMIGW"> F  </i>
   <i type="logical" name="ODDONLYGW"> F  </i>
   <i type="logical" name="EVENONLYGW"> F  </i>
   <i type="int" name="NKREDLFX">     1</i>
   <i type="int" name="NKREDLFY">     1</i>
   <i type="int" name="NKREDLFZ">     1</i>
   <i type="int" name="MAXMEM">  1800</i>
   <i type="int" name="TELESCOPE">     0</i>
   <i type="int" name="TAUPAR">     1</i>
   <i type="int" name="OMEGAPAR">    -1</i>
   <i name="LAMBDA">      1.00000000</i>
  </separator>
  <separator name="External order field" >
   <i name="OFIELD_KAPPA">      0.00000000</i>
   <v name="OFIELD_K">      0.00000000      0.00000000      0.00000000</v>
   <i name="OFIELD_Q6_NEAR">      0.00000000</i>
   <i name="OFIELD_Q6_FAR">      0.00000000</i>
   <i name="OFIELD_A">      0.00000000</i>
  </separator>
 </parameters>
 <atominfo>
  <atoms>      36 </atoms>
  <types>       4 </types>
  <array name="atoms" >
   <dimension dim="1">ion</dimension>
   <field type="string">element</field>
   <field type="int">atomtype</field>
   <set>
    <rc><c>Zr</c><c>   1</c></rc>
    <rc><c>Zr</c><c>   1</c></rc>
    <rc><c>Zr</c><c>   1</c></rc>
    <rc><c>Zr</c><c>   1</c></rc>
    <rc><c>Zr</c><c>   1</c></rc>
    <rc><c>Zr</c><c>   1</c></rc>
    <rc><c>Zr</c><c>   1</c></rc>
    <rc><c>Zr</c><c>   1</c></rc>
    <rc><c>Zr</c><c>   1</c></rc>
    <rc><c>Zr</c><c>   1</c></rc>
    <rc><c>Hf</c><c>   2</c></rc>
    <rc><c>Hf</c><c>   2</c></rc>
    <rc><c>Hf</c><c>   2</c></rc>
    <rc><c>Hf</c><c>   2</c></rc>
    <rc><c>Hf</c><c>   2</c></rc>
    <rc><c>Hf</c><c>   2</c></rc>
    <rc><c>Hf</c><c>   2</c></rc>
    <rc><c>Hf</c><c>   2</c></rc>
    <rc><c>Nb</c><c>   3</c></rc>
    <rc><c>Nb</c><c>   3</c></rc>
    <rc><c>Nb</c><c>   3</c></rc>
    <rc><c>Nb</c><c>   3</c></rc>
    <rc><c>Nb</c><c>   3</c></rc>
    <rc><c>Nb</c><c>   3</c></rc>
    <rc><c>Nb</c><c>   3</c></rc>
    <rc><c>Nb</c><c>   3</c></rc>
    <rc><c>Nb</c><c>   3</c></rc>
    <rc><c>Nb</c><c>   3</c></rc>
    <rc><c>Nb</c><c>   3</c></rc>
    <rc><c>Ta</c><c>   4</c></rc>
    <rc><c>Ta</c><c>   4</c></rc>
    <rc><c>Ta</c><c>   4</c></rc>
    <rc><c>Ta</c><c>   4</c></rc>
    <rc><c>Ta</c><c>   4</c></rc>
    <rc><c>Ta</c><c>   4</c></rc>
    <rc><c>Ta</c><c>   4</c></rc>
   </set>
  </array>
  <array name="atomtypes" >
   <dimension dim="1">type</dimension>
   <field type="int">atomspertype</field>
   <field type="string">element</field>
   <field>mass</field>
   <field>valence</field>
   <field type="string">pseudopotential</field>
   <set>
    <rc><c>  10</c><c>Zr</c><c>     91.22400000</c><c>     12.00000000</c><c>  PAW_PBE Zr_sv 04Jan2005               </c></rc>
    <rc><c>   8</c><c>Hf</c><c>    178.49000000</c><c>      4.00000000</c><c>  PAW_PBE Hf 20Jan2003                  </c></rc>
    <rc><c>  11</c><c>Nb</c><c>     92.91000000</c><c>     13.00000000</c><c>  PAW_PBE Nb_sv 25May2007               </c></rc>
    <rc><c>   7</c><c>Ta</c><c>    180.94800000</c><c>      5.00000000</c><c>  PAW_PBE Ta 17Jan2003                  </c></rc>
   </set>
  </array>
 </atominfo>
 <structure name="initialpos" >
  <crystal>
   <varray name="basis" >
    <v>       6.92089603      -0.00331224       0.00851006 </v>
    <v>      -0.00517288      10.32961277       0.00350179 </v>
    <v>       0.01311427       0.00319751      10.15888786 </v>
   </varray>
   <i name="volume">    726.25927587 </i>
   <varray name="rec_basis" >
    <v>       0.14449023       0.00007242      -0.00018655 </v>
    <v>       0.00004637       0.09680908      -0.00003053 </v>
    <v>      -0.00012105      -0.00003343       0.09843614 </v>
   </varray>
  </crystal>
  <varray name="positions" >
   <v>       0.26434800       0.17982400       0.83138400 </v>
   <v>       0.74896300       0.17199900       0.82397100 </v>
   <v>       0.00990000       0.99853200       0.99874300 </v>
   <v>       0.22790800       0.17627800       0.50424400 </v>
   <v>       0.25918000       0.50401400       0.17447100 </v>
   <v>       0.49536800       0.98585700       0.99031900 </v>
   <v>       0.74122400       0.16337300       0.17182500 </v>
   <v>       0.47433300       0.00081400       0.34503900 </v>
   <v>       0.73801100       0.49464000       0.82576800 </v>
   <v>       0.49225200       0.67181200       0.65994100 </v>
   <v>       0.00202500       0.33954600       0.00721700 </v>
   <v>       0.99307100       0.65908800       0.99432100 </v>
   <v>       0.25607500       0.81317500       0.17519700 </v>
   <v>       0.77080300       0.16970600       0.50313200 </v>
   <v>       0.48802000       0.98887500       0.66590800 </v>
   <v>       0.74437700       0.83055000       0.17651800 </v>
   <v>       0.77503100       0.83922000       0.49651400 </v>
   <v>       0.22824500       0.50151800       0.49304600 </v>
   <v>       0.50948800       0.33819200       0.34392800 </v>
   <v>       0.25708100       0.49714200       0.82875400 </v>
   <v>       0.98847600       0.33429800       0.31577800 </v>
   <v>       0.00512100       0.34854700       0.67597300 </v>
   <v>       0.97631900       0.65934000       0.33012700 </v>
   <v>       0.22274600       0.82797500       0.49702900 </v>
   <v>       0.24392700       0.82354100       0.83337100 </v>
   <v>       0.49752000       0.34090700       0.01064000 </v>
   <v>       0.73516300       0.50070700       0.17186800 </v>
   <v>       0.75919100       0.82721900       0.82386100 </v>
   <v>       0.00460800       0.67165700       0.67601700 </v>
   <v>       0.50127300       0.66959900       0.98780400 </v>
   <v>       0.26122400       0.18046000       0.17121700 </v>
   <v>       0.02877500       0.00407800       0.32416400 </v>
   <v>       0.01972000       0.98493600       0.68087400 </v>
   <v>       0.76405500       0.49850500       0.49961900 </v>
   <v>       0.49954100       0.34350900       0.64177300 </v>
   <v>       0.51664500       0.66057200       0.34964200 </v>
  </varray>
 </structure>
 <calculation>
  <scstep>
   <time name="dav">    1.11    1.11</time>
   <time name="total">    1.18    1.51</time>
   <energy>
    <i name="alphaZ">   1728.98445354 </i>
    <i name="ewald"> -24399.88855552 </i>
    <i name="hartreedc">  -7741.32442775 </i>
    <i name="XCdc">    233.77569728 </i>
    <i name="pawpsdc">  25925.73151727 </i>
    <i name="pawaedc"> -24538.91918528 </i>
    <i name="eentropy">     -0.01199882 </i>
    <i name="bandstr">   -311.66113315 </i>
    <i name="atom">  31469.74120789 </i>
    <i name="e_fr_energy">   2366.42757546 </i>
    <i name="e_wo_entrp">   2366.43957428 </i>
    <i name="e_0_energy">   2366.43157507 </i>
   </energy>
  </scstep>
  <scstep>
   <time name="dav">    1.36    1.42</time>
   <time name="total">    1.37    1.59</time>
   <energy>
    <i name="e_fr_energy">    -37.60379924 </i>
    <i name="e_wo_entrp">    -37.60230708 </i>
    <i name="e_0_energy">    -37.60330186 </i>
   </energy>
  </scstep>
  <scstep>
   <time name="dav">    1.65    1.67</time>
   <time name="total">    1.67    1.73</time>
   <energy>
    <i name="e_fr_energy">   -333.48591343 </i>
    <i name="e_wo_entrp">   -333.48343922 </i>
    <i name="e_0_energy">   -333.48508869 </i>
   </energy>
  </scstep>
  <scstep>
   <time name="dav">    1.51    1.53</time>
   <time name="total">    1.52    1.60</time>
   <energy>
    <i name="e_fr_energy">   -367.55914316 </i>
    <i name="e_wo_entrp">   -367.57008262 </i>
    <i name="e_0_energy">   -367.56278965 </i>
   </energy>
  </scstep>
  <scstep>
   <time name="dav">    1.54    1.58</time>
   <time name="total">    1.58    1.66</time>
   <energy>
    <i name="e_fr_energy">   -371.07154004 </i>
    <i name="e_wo_entrp">   -371.08635418 </i>
    <i name="e_0_energy">   -371.07647809 </i>
   </energy>
  </scstep>
  <scstep>
   <time name="diag">    0.14    0.14</time>
   <time name="diis">    0.85    0.87</time>
   <time name="orth">    0.02    0.02</time>
   <time name="total">    1.09    1.16</time>
   <energy>
    <i name="e_fr_energy">   -360.73143582 </i>
    <i name="e_wo_entrp">   -360.75503311 </i>
    <i name="e_0_energy">   -360.73930158 </i>
   </energy>
  </scstep>
  <scstep>
   <time name="diag">    0.09    0.09</time>
   <time name="diis">    0.84    0.85</time>
   <time name="orth">    0.02    0.02</time>
   <time name="total">    1.02    1.10</time>
   <energy>
    <i name="e_fr_energy">   -363.85104083 </i>
    <i name="e_wo_entrp">   -363.84022860 </i>
    <i name="e_0_energy">   -363.84743676 </i>
   </energy>
  </scstep>
  <scstep>
   <time name="diag">    0.09    0.09</time>
   <time name="diis">    0.83    0.84</time>
   <time name="orth">    0.02    0.02</time>
   <time name="total">    1.01    1.05</time>
   <energy>
    <i name="e_fr_energy">   -356.84505277 </i>
    <i name="e_wo_entrp">   -356.87055783 </i>
    <i name="e_0_energy">   -356.85355445 </i>
   </energy>
  </scstep>
  <scstep>
   <time name="diag">    0.18    0.18</time>
   <time name="diis">    0.91    0.91</time>
   <time name="orth">    0.02    0.02</time>
   <time name="total">    1.17    1.24</time>
   <energy>
    <i name="e_fr_energy">   -356.59905194 </i>
    <i name="e_wo_entrp">   -356.62454726 </i>
    <i name="e_0_energy">   -356.60755038 </i>
   </energy>
  </scstep>
  <scstep>
   <time name="diag">    0.09    0.09</time>
   <time name="diis">    0.92    0.93</time>
   <time name="orth">    0.02    0.02</time>
   <time name="total">    1.10    1.16</time>
   <energy>
    <i name="e_fr_energy">   -356.56548473 </i>
    <i name="e_wo_entrp">   -356.58879540 </i>
    <i name="e_0_energy">   -356.57325495 </i>
   </energy>
  </scstep>
  <scstep>
   <time name="diag">    0.09    0.09</time>
   <time name="diis">    0.86    0.88</time>
   <time name="orth">    0.02    0.02</time>
   <time name="total">    1.06    1.14</time>
   <energy>
    <i name="e_fr_energy">   -356.51586783 </i>
    <i name="e_wo_entrp">   -356.54286240 </i>
    <i name="e_0_energy">   -356.52486602 </i>
   </energy>
  </scstep>
  <scstep>
   <time name="diag">    0.09    0.09</time>
   <time name="diis">    0.83    0.89</time>
   <time name="orth">    0.02    0.02</time>
   <time name="total">    1.01    1.10</time>
   <energy>
    <i name="e_fr_energy">   -356.50884277 </i>
    <i name="e_wo_entrp">   -356.53398875 </i>
    <i name="e_0_energy">   -356.51722477 </i>
   </energy>
  </scstep>
  <scstep>
   <time name="diag">    0.09    0.09</time>
   <time name="diis">    0.85    0.85</time>
   <time name="orth">    0.02    0.02</time>
   <time name="total">    1.04    1.08</time>
   <energy>
    <i name="e_fr_energy">   -356.50555413 </i>
    <i name="e_wo_entrp">   -356.53096488 </i>
    <i name="e_0_energy">   -356.51402438 </i>
   </energy>
  </scstep>
  <scstep>
   <time name="diag">    0.10    0.10</time>
   <time name="diis">    0.90    0.93</time>
   <time name="orth">    0.02    0.02</time>
   <time name="total">    1.08    1.15</time>
   <energy>
    <i name="e_fr_energy">   -356.50539694 </i>
    <i name="e_wo_entrp">   -356.53078729 </i>
    <i name="e_0_energy">   -356.51386039 </i>
   </energy>
  </scstep>
  <scstep>
   <time name="diag">    0.10    0.15</time>
   <time name="diis">    0.92    0.96</time>
   <time name="orth">    0.02    0.02</time>
   <time name="total">    1.11    1.25</time>
   <energy>
    <i name="e_fr_energy">   -356.50531785 </i>
    <i name="e_wo_entrp">   -356.53072312 </i>
    <i name="e_0_energy">   -356.51378627 </i>
   </energy>
  </scstep>
  <scstep>
   <time name="diag">    0.09    0.09</time>
   <time name="diis">    0.84    0.85</time>
   <time name="orth">    0.02    0.02</time>
   <time name="total">    1.01    1.06</time>
   <energy>
    <i name="e_fr_energy">   -356.50534572 </i>
    <i name="e_wo_entrp">   -356.53073414 </i>
    <i name="e_0_energy">   -356.51380853 </i>
   </energy>
  </scstep>
  <scstep>
   <time name="diag">    0.09    0.09</time>
   <time name="diis">    0.71    0.71</time>
   <time name="orth">    0.02    0.02</time>
   <time name="total">    0.88    0.93</time>
   <energy>
    <i name="e_fr_energy">   -356.50534631 </i>
    <i name="e_wo_entrp">   -356.53077155 </i>
    <i name="e_0_energy">   -356.51382139 </i>
   </energy>
  </scstep>
  <scstep>
   <time name="diag">    0.09    0.09</time>
   <time name="diis">    0.65    0.66</time>
   <time name="orth">    0.02    0.02</time>
   <time name="total">    0.90    1.01</time>
   <energy>
    <i name="e_fr_energy">   -356.50534214 </i>
    <i name="e_wo_entrp">   -356.53076818 </i>
    <i name="e_0_energy">   -356.51381749 </i>
   </energy>
  </scstep>
  <scstep>
   <time name="diag">    0.12    0.12</time>
   <time name="diis">    0.64    0.64</time>
   <time name="orth">    0.02    0.02</time>
   <time name="total">    0.95    1.00</time>
   <energy>
    <i name="e_fr_energy">   -356.50534769 </i>
    <i name="e_wo_entrp">   -356.53076761 </i>
    <i name="e_0_energy">   -356.51382100 </i>
   </energy>
  </scstep>
  <scstep>
   <time name="diag">    0.09    0.09</time>
   <time name="diis">    0.51    0.52</time>
   <time name="orth">    0.02    0.02</time>
   <time name="total">    0.65    0.70</time>
   <energy>
    <i name="alphaZ">   1728.98445354 </i>
    <i name="ewald"> -24399.88855552 </i>
    <i name="hartreedc">  -7453.89094385 </i>
    <i name="XCdc">    227.40327565 </i>
    <i name="pawpsdc">  38698.09411072 </i>
    <i name="pawaedc"> -37279.78656945 </i>
    <i name="eentropy">      0.02541764 </i>
    <i name="bandstr">  -3347.18774451 </i>
    <i name="atom">  31469.74120789 </i>
    <i name="e_fr_energy">   -356.50534789 </i>
    <i name="e_wo_entrp">   -356.53076553 </i>
    <i name="e_0_energy">   -356.51382044 </i>
   </energy>
  </scstep>
  <structure>
   <crystal>
    <varray name="basis" >
     <v>       6.92089603      -0.00331224       0.00851006 </v>
     <v>      -0.00517288      10.32961277       0.00350179 </v>
     <v>       0.01311427       0.00319751      10.15888786 </v>
    </varray>
    <i name="volume">    726.25927587 </i>
    <varray name="rec_basis" >
     <v>       0.14449023       0.00007242      -0.00018655 </v>
     <v>       0.00004637       0.09680908      -0.00003053 </v>
     <v>      -0.00012105      -0.00003343       0.09843614 </v>
    </varray>
   </crystal>
   <varray name="positions" >
    <v>       0.26434800       0.17982400       0.83138400 </v>
    <v>       0.74896300       0.17199900       0.82397100 </v>
    <v>       0.00990000       0.99853200       0.99874300 </v>
    <v>       0.22790800       0.17627800       0.50424400 </v>
    <v>       0.25918000       0.50401400       0.17447100 </v>
    <v>       0.49536800       0.98585700       0.99031900 </v>
    <v>       0.74122400       0.16337300       0.17182500 </v>
    <v>       0.47433300       0.00081400       0.34503900 </v>
    <v>       0.73801100       0.49464000       0.82576800 </v>
    <v>       0.49225200       0.67181200       0.65994100 </v>
    <v>       0.00202500       0.33954600       0.00721700 </v>
    <v>       0.99307100       0.65908800       0.99432100 </v>
    <v>       0.25607500       0.81317500       0.17519700 </v>
    <v>       0.77080300       0.16970600       0.50313200 </v>
    <v>       0.48802000       0.98887500       0.66590800 </v>
    <v>       0.74437700       0.83055000       0.17651800 </v>
    <v>       0.77503100       0.83922000       0.49651400 </v>
    <v>       0.22824500       0.50151800       0.49304600 </v>
    <v>       0.50948800       0.33819200       0.34392800 </v>
    <v>       0.25708100       0.49714200       0.82875400 </v>
    <v>       0.98847600       0.33429800       0.31577800 </v>
    <v>       0.00512100       0.34854700       0.67597300 </v>
    <v>       0.97631900       0.65934000       0.33012700 </v>
    <v>       0.22274600       0.82797500       0.49702900 </v>
    <v>       0.24392700       0.82354100       0.83337100 </v>
    <v>       0.49752000       0.34090700       0.01064000 </v>
    <v>       0.73516300       0.50070700       0.17186800 </v>
    <v>       0.75919100       0.82721900       0.82386100 </v>
    <v>       0.00460800       0.67165700       0.67601700 </v>
    <v>       0.50127300       0.66959900       0.98780400 </v>
    <v>       0.26122400       0.18046000       0.17121700 </v>
    <v>       0.02877500       0.00407800       0.32416400 </v>
    <v>       0.01972000       0.98493600       0.68087400 </v>
    <v>       0.76405500       0.49850500       0.49961900 </v>
    <v>       0.49954100       0.34350900       0.64177300 </v>
    <v>       0.51664500       0.66057200       0.34964200 </v>
   </varray>
  </structure>
  <varray name="forces" >
   <v>       0.00767151      -0.00524955      -0.00610518 </v>
   <v>      -0.00521631      -0.00388225      -0.01046701 </v>
   <v>      -0.00407988       0.00552178       0.01096443 </v>
   <v>       0.01309906       0.00051846      -0.01740856 </v>
   <v>       0.02996262      -0.02207515       0.01552075 </v>
   <v>       0.00064252       0.00708850       0.00676327 </v>
   <v>      -0.01215197       0.02457396       0.02624576 </v>
   <v>      -0.01053432      -0.09370647       0.00450071 </v>
   <v>      -0.01500062      -0.01209033      -0.00939025 </v>
   <v>       0.00531711      -0.02620817      -0.01154931 </v>
   <v>      -0.00680641      -0.00857664       0.02219083 </v>
   <v>       0.00092582      -0.00305746       0.00374975 </v>
   <v>       0.00207916       0.00246557      -0.00609000 </v>
   <v>       0.00913512      -0.01207040       0.00149467 </v>
   <v>      -0.00267515       0.01922718      -0.00325022 </v>
   <v>       0.00594146      -0.00621500       0.00378190 </v>
   <v>       0.00535751      -0.00675270      -0.00387023 </v>
   <v>       0.00445062       0.01013129       0.00148368 </v>
   <v>      -0.05759521      -0.04407894      -0.10900084 </v>
   <v>       0.00288757       0.00445822      -0.00977373 </v>
   <v>       0.05417086      -0.00207655      -0.01440909 </v>
   <v>       0.00864627      -0.00047923      -0.01996711 </v>
   <v>      -0.01436718      -0.02701940       0.00133203 </v>
   <v>      -0.00748124       0.00110011       0.00178731 </v>
   <v>      -0.01034689      -0.00290315      -0.00270438 </v>
   <v>       0.00080865      -0.00115461      -0.07785590 </v>
   <v>      -0.02052918      -0.01402345       0.02515637 </v>
   <v>       0.00363474       0.00135675      -0.00723826 </v>
   <v>       0.00366986      -0.01157115      -0.00703695 </v>
   <v>      -0.00092250      -0.00618133      -0.00007510 </v>
   <v>      -0.00422787       0.01021804       0.00500040 </v>
   <v>      -0.00482250       0.03075098      -0.00726380 </v>
   <v>      -0.00160164       0.01997883      -0.00061048 </v>
   <v>       0.00325674       0.01461601       0.00261517 </v>
   <v>      -0.00168142       0.02558943       0.16860447 </v>
   <v>       0.01838311       0.13177682       0.02287489 </v>
  </varray>
  <varray name="stress" >
   <v>      -0.56403405       0.00286062       0.20355028 </v>
   <v>       0.00286060      -0.34251601       0.21889526 </v>
   <v>       0.20355030       0.21889526      -0.29386508 </v>
  </varray>
  <energy>
   <i name="e_fr_energy">   -356.50534789 </i>
   <i name="e_wo_entrp">   -356.51382044 </i>
   <i name="e_0_energy">      0.02541764 </i>
  </energy>
  <time name="totalsc">   24.12   26.10</time>
 </calculation>
 <calculation>
  <scstep>
   <time name="dav">    1.15    1.16</time>
   <time name="total">    1.25    1.44</time>
   <energy>
    <i name="alphaZ">   1729.36274297 </i>
    <i name="ewald"> -24401.37068797 </i>
    <i name="hartreedc">  -7454.74502602 </i>
    <i name="XCdc">    227.48301129 </i>
    <i name="pawpsdc">  38698.33957928 </i>
    <i name="pawaedc"> -37280.02587995 </i>
    <i name="eentropy">      0.02548383 </i>
    <i name="bandstr">  -3345.31700657 </i>
    <i name="atom">  31469.74120789 </i>
    <i name="e_fr_energy">   -356.50657524 </i>
    <i name="e_wo_entrp">   -356.53205907 </i>
    <i name="e_0_energy">   -356.51506985 </i>
   </energy>
  </scstep>
  <scstep>
   <time name="diag">    0.11    0.13</time>
   <time name="diis">    0.80    0.81</time>
   <time name="orth">    0.02    0.02</time>
   <time name="total">    0.99    1.07</time>
   <energy>
    <i name="e_fr_energy">   -356.50675709 </i>
    <i name="e_wo_entrp">   -356.53218733 </i>
    <i name="e_0_energy">   -356.51523384 </i>
   </energy>
  </scstep>
  <scstep>
   <time name="diag">    0.09    0.09</time>
   <time name="diis">    0.82    0.83</time>
   <time name="orth">    0.02    0.02</time>
   <time name="total">    0.99    1.04</time>
   <energy>
    <i name="e_fr_energy">   -356.50671775 </i>
    <i name="e_wo_entrp">   -356.53218267 </i>
    <i name="e_0_energy">   -356.51520605 </i>
   </energy>
  </scstep>
  <scstep>
   <time name="diag">    0.09    0.09</time>
   <time name="diis">    0.68    0.69</time>
   <time name="orth">    0.02    0.02</time>
   <time name="total">    0.86    0.90</time>
   <energy>
    <i name="e_fr_energy">   -356.50670250 </i>
    <i name="e_wo_entrp">   -356.53214747 </i>
    <i name="e_0_energy">   -356.51518416 </i>
   </energy>
  </scstep>
  <scstep>
   <time name="diag">    0.09    0.09</time>
   <time name="diis">    0.44    0.44</time>
   <time name="orth">    0.02    0.02</time>
   <time name="total">    0.58    0.62</time>
   <energy>
    <i name="alphaZ">   1729.36274297 </i>
    <i name="ewald"> -24401.37068797 </i>
    <i name="hartreedc">  -7453.59376003 </i>
    <i name="XCdc">    227.42945786 </i>
    <i name="pawpsdc">  38709.78689685 </i>
    <i name="pawaedc"> -37291.50704497 </i>
    <i name="eentropy">      0.02546266 </i>
    <i name="bandstr">  -3346.38097719 </i>
    <i name="atom">  31469.74120789 </i>
    <i name="e_fr_energy">   -356.50670191 </i>
    <i name="e_wo_entrp">   -356.53216458 </i>
    <i name="e_0_energy">   -356.51518947 </i>
   </energy>
  </scstep>
  <structure>
   <crystal>
    <varray name="basis" >
     <v>       6.92018496      -0.00330808       0.00876619 </v>
     <v>      -0.00516683      10.32896815       0.00391347 </v>
     <v>       0.01348975       0.00360256      10.15834444 </v>
    </varray>
    <i name="volume">    726.10041029 </i>
    <varray name="rec_basis" >
     <v>       0.14450509       0.00007236      -0.00019192 </v>
     <v>       0.00004632       0.09681513      -0.00003440 </v>
     <v>      -0.00012472      -0.00003736       0.09844142 </v>
    </varray>
   </crystal>
   <varray name="positions" >
    <v>       0.26436405       0.17981665       0.83137529 </v>
    <v>       0.74895212       0.17199356       0.82395610 </v>
    <v>       0.00989144       0.99853973       0.99875862 </v>
    <v>       0.22793544       0.17627874       0.50421918 </v>
    <v>       0.25924259       0.50398308       0.17449307 </v>
    <v>       0.49536933       0.98586693       0.99032863 </v>
    <v>       0.74119854       0.16340741       0.17186240 </v>
    <v>       0.47431086       0.00068270       0.34504548 </v>
    <v>       0.73797964       0.49462305       0.82575465 </v>
    <v>       0.49226312       0.67177529       0.65992455 </v>
    <v>       0.00201070       0.33953397       0.00724863 </v>
    <v>       0.99307292       0.65908372       0.99432634 </v>
    <v>       0.25607937       0.81317846       0.17518832 </v>
    <v>       0.77082209       0.16968909       0.50313412 </v>
    <v>       0.48801443       0.98890194       0.66590336 </v>
    <v>       0.74438941       0.83054129       0.17652338 </v>
    <v>       0.77504221       0.83921054       0.49650848 </v>
    <v>       0.22825431       0.50153220       0.49304810 </v>
    <v>       0.50936781       0.33813025       0.34377283 </v>
    <v>       0.25708707       0.49714825       0.82874007 </v>
    <v>       0.98858932       0.33429513       0.31575738 </v>
    <v>       0.00513913       0.34854634       0.67594454 </v>
    <v>       0.97628892       0.65930213       0.33012894 </v>
    <v>       0.22273035       0.82797654       0.49703156 </v>
    <v>       0.24390537       0.82353693       0.83336717 </v>
    <v>       0.49752190       0.34090542       0.01052908 </v>
    <v>       0.73511999       0.50068733       0.17190388 </v>
    <v>       0.75919862       0.82722091       0.82385068 </v>
    <v>       0.00461568       0.67164079       0.67600697 </v>
    <v>       0.50127106       0.66959034       0.98780390 </v>
    <v>       0.26121516       0.18047431       0.17122413 </v>
    <v>       0.02876497       0.00412109       0.32415365 </v>
    <v>       0.01971667       0.98496399       0.68087312 </v>
    <v>       0.76406182       0.49852548       0.49962271 </v>
    <v>       0.49953706       0.34354478       0.64201319 </v>
    <v>       0.51668352       0.66075663       0.34967449 </v>
   </varray>
  </structure>
  <varray name="forces" >
   <v>       0.00538801      -0.00550232      -0.00436908 </v>
   <v>      -0.00361470      -0.00451480      -0.00853177 </v>
   <v>      -0.00444895       0.00650000       0.01075546 </v>
   <v>       0.01651290       0.00315087      -0.01746002 </v>
   <v>       0.02798256      -0.01894693       0.01370076 </v>
   <v>       0.00185947       0.00793116       0.00601064 </v>
   <v>      -0.01192232       0.02135186       0.02437828 </v>
   <v>      -0.00801434      -0.08670393       0.00508413 </v>
   <v>      -0.01031997      -0.01120963      -0.00764677 </v>
   <v>       0.00527361      -0.02579952      -0.01220472 </v>
   <v>      -0.00777698      -0.00842743       0.02040450 </v>
   <v>      -0.00047520      -0.00394166       0.00440417 </v>
   <v>      -0.00079769       0.00186073      -0.00701858 </v>
   <v>       0.00448383      -0.00783934       0.00021812 </v>
   <v>      -0.00169003       0.01827815      -0.00311758 </v>
   <v>       0.00718597      -0.00408406       0.00188936 </v>
   <v>       0.00786668      -0.00460057      -0.00101651 </v>
   <v>       0.00860271       0.00701317       0.00074722 </v>
   <v>      -0.05238501      -0.04146141      -0.09786182 </v>
   <v>       0.00244557       0.00306627      -0.00872685 </v>
   <v>       0.05031897      -0.00258294      -0.01173329 </v>
   <v>       0.00752595      -0.00188674      -0.01940470 </v>
   <v>      -0.01216579      -0.02513482       0.00229299 </v>
   <v>      -0.00783766      -0.00014447       0.00235236 </v>
   <v>      -0.00872276      -0.00193401      -0.00110145 </v>
   <v>       0.00128725      -0.00123092      -0.07454093 </v>
   <v>      -0.02018654      -0.01372668       0.02254801 </v>
   <v>       0.00291317       0.00250934      -0.00518635 </v>
   <v>       0.00164492      -0.01133949      -0.00729576 </v>
   <v>       0.00025976      -0.00442020      -0.00035560 </v>
   <v>      -0.00175689       0.00734380       0.00303144 </v>
   <v>      -0.00644872       0.02961821      -0.00708481 </v>
   <v>      -0.00184524       0.01958242      -0.00201899 </v>
   <v>      -0.00097173       0.00906692       0.00109231 </v>
   <v>      -0.00320554       0.02603126       0.15311269 </v>
   <v>       0.01303472       0.12212768       0.02465314 </v>
  </varray>
  <varray name="stress" >
   <v>      -0.32410560       0.00074398       0.20025165 </v>
   <v>       0.00074400      -0.14083668       0.20126576 </v>
   <v>       0.20025164       0.20126580      -0.07372108 </v>
  </varray>
  <energy>
   <i name="e_fr_energy">   -356.50670191 </i>
   <i name="e_wo_entrp">   -356.51518947 </i>
   <i name="e_0_energy">      0.02546266 </i>
  </energy>
  <time name="totalsc">    6.36    6.91</time>
 </calculation>
 <calculation>
  <scstep>
   <time name="dav">    1.14    1.15</time>
   <time name="total">    1.21    1.40</time>
   <energy>
    <i name="alphaZ">   1730.49834958 </i>
    <i name="ewald"> -24405.78448501 </i>
    <i name="hartreedc">  -7456.16983651 </i>
    <i name="XCdc">    227.66972142 </i>
    <i name="pawpsdc">  38709.07555239 </i>
    <i name="pawaedc"> -37290.79111517 </i>
    <i name="eentropy">      0.02560585 </i>
    <i name="bandstr">  -3340.77403634 </i>
    <i name="atom">  31469.74120789 </i>
    <i name="e_fr_energy">   -356.50903591 </i>
    <i name="e_wo_entrp">   -356.53464176 </i>
    <i name="e_0_energy">   -356.51757119 </i>
   </energy>
  </scstep>
  <scstep>
   <time name="diag">    0.10    0.10</time>
   <time name="diis">    0.82    0.83</time>
   <time name="orth">    0.02    0.02</time>
   <time name="total">    1.00    1.04</time>
   <energy>
    <i name="e_fr_energy">   -356.51049211 </i>
    <i name="e_wo_entrp">   -356.53594921 </i>
    <i name="e_0_energy">   -356.51897781 </i>
   </energy>
  </scstep>
  <scstep>
   <time name="diag">    0.09    0.09</time>
   <time name="diis">    0.82    0.83</time>
   <time name="orth">    0.02    0.02</time>
   <time name="total">    1.00    1.04</time>
   <energy>
    <i name="e_fr_energy">   -356.51011307 </i>
    <i name="e_wo_entrp">   -356.53566418 </i>
    <i name="e_0_energy">   -356.51863011 </i>
   </energy>
  </scstep>
  <scstep>
   <time name="diag">    0.09    0.09</time>
   <time name="diis">    0.90    1.01</time>
   <time name="orth">    0.02    0.02</time>
   <time name="total">    1.10    1.28</time>
   <energy>
    <i name="e_fr_energy">   -356.50997600 </i>
    <i name="e_wo_entrp">   -356.53547902 </i>
    <i name="e_0_energy">   -356.51847701 </i>
   </energy>
  </scstep>
  <scstep>
   <time name="diag">    0.10    0.10</time>
   <time name="diis">    0.85    0.87</time>
   <time name="orth">    0.02    0.02</time>
   <time name="total">    1.03    1.09</time>
   <energy>
    <i name="e_fr_energy">   -356.50997028 </i>
    <i name="e_wo_entrp">   -356.53552354 </i>
    <i name="e_0_energy">   -356.51848803 </i>
   </energy>
  </scstep>
  <scstep>
   <time name="diag">    0.14    0.14</time>
   <time name="diis">    0.74    0.74</time>
   <time name="orth">    0.02    0.02</time>
   <time name="total">    0.96    1.01</time>
   <energy>
    <i name="e_fr_energy">   -356.50997363 </i>
    <i name="e_wo_entrp">   -356.53547720 </i>
    <i name="e_0_energy">   -356.51847482 </i>
   </energy>
  </scstep>
  <scstep>
   <time name="diag">    0.09    0.09</time>
   <time name="diis">    0.53    0.54</time>
   <time name="orth">    0.02    0.02</time>
   <time name="total">    0.67    0.74</time>
   <energy>
    <i name="alphaZ">   1730.49834958 </i>
    <i name="ewald"> -24405.78448501 </i>
    <i name="hartreedc">  -7452.85417752 </i>
    <i name="XCdc">    227.51588706 </i>
    <i name="pawpsdc">  38739.99496221 </i>
    <i name="pawaedc"> -37321.73255544 </i>
    <i name="eentropy">      0.02553448 </i>
    <i name="bandstr">  -3343.91470416 </i>
    <i name="atom">  31469.74120789 </i>
    <i name="e_fr_energy">   -356.50998091 </i>
    <i name="e_wo_entrp">   -356.53551539 </i>
    <i name="e_0_energy">   -356.51849240 </i>
   </energy>
  </scstep>
  <structure>
   <crystal>
    <varray name="basis" >
     <v>       6.91805178      -0.00329562       0.00953460 </v>
     <v>      -0.00514869      10.32703429       0.00514848 </v>
     <v>       0.01461621       0.00481770      10.15671418 </v>
    </varray>
    <i name="volume">    725.62392072 </i>
    <varray name="rec_basis" >
     <v>       0.14454969       0.00007217      -0.00020805 </v>
     <v>       0.00004619       0.09683327      -0.00004600 </v>
     <v>      -0.00013572      -0.00004915       0.09845726 </v>
    </varray>
   </crystal>
   <varray name="positions" >
    <v>       0.26441222       0.17979461       0.83134916 </v>
    <v>       0.74891946       0.17197725       0.82391140 </v>
    <v>       0.00986577       0.99856292       0.99880550 </v>
    <v>       0.22801777       0.17628097       0.50414470 </v>
    <v>       0.25943038       0.50389033       0.17455928 </v>
    <v>       0.49537333       0.98589672       0.99035752 </v>
    <v>       0.74112216       0.16351065       0.17197461 </v>
    <v>       0.47424443       0.00028877       0.34506492 </v>
    <v>       0.73788557       0.49457222       0.82571462 </v>
    <v>       0.49229650       0.67166515       0.65987520 </v>
    <v>       0.00196778       0.33949787       0.00734353 </v>
    <v>       0.99307869       0.65907086       0.99434237 </v>
    <v>       0.25609247       0.81318884       0.17516227 </v>
    <v>       0.77087935       0.16963837       0.50314048 </v>
    <v>       0.48799774       0.98898276       0.66588946 </v>
    <v>       0.74442663       0.83051518       0.17653952 </v>
    <v>       0.77507583       0.83918218       0.49649192 </v>
    <v>       0.22828226       0.50157479       0.49305440 </v>
    <v>       0.50900721       0.33794501       0.34330733 </v>
    <v>       0.25710528       0.49716701       0.82869827 </v>
    <v>       0.98892931       0.33428653       0.31569550 </v>
    <v>       0.00519355       0.34854438       0.67585915 </v>
    <v>       0.97619869       0.65918852       0.33013475 </v>
    <v>       0.22268340       0.82798114       0.49703924 </v>
    <v>       0.24384046       0.82352471       0.83335567 </v>
    <v>       0.49752762       0.34090068       0.01019631 </v>
    <v>       0.73499093       0.50062830       0.17201154 </v>
    <v>       0.75922149       0.82722663       0.82381972 </v>
    <v>       0.00463873       0.67159217       0.67597690 </v>
    <v>       0.50126526       0.66956435       0.98780359 </v>
    <v>       0.26118862       0.18051725       0.17124551 </v>
    <v>       0.02873487       0.00425035       0.32412257 </v>
    <v>       0.01970669       0.98504797       0.68087049 </v>
    <v>       0.76408228       0.49858692       0.49963385 </v>
    <v>       0.49952518       0.34365209       0.64273380 </v>
    <v>       0.51679908       0.66131057       0.34977195 </v>
   </varray>
  </structure>
  <varray name="forces" >
   <v>      -0.00164383      -0.00551808       0.00000513 </v>
   <v>       0.00187131      -0.00498622      -0.00486623 </v>
   <v>      -0.00462659       0.00541567       0.01052954 </v>
   <v>       0.02660432       0.00985159      -0.01709416 </v>
   <v>       0.02388144      -0.00497637       0.00597217 </v>
   <v>       0.00392837       0.00582808       0.00476371 </v>
   <v>      -0.01213383       0.01230550       0.02037058 </v>
   <v>      -0.00229811      -0.07178639       0.00493611 </v>
   <v>       0.00317416      -0.00625581      -0.00026029 </v>
   <v>       0.00620668      -0.02629885      -0.01319996 </v>
   <v>      -0.00926934      -0.00448886       0.01507107 </v>
   <v>      -0.00351336      -0.00787905       0.00678096 </v>
   <v>      -0.00847029      -0.00164177      -0.01116171 </v>
   <v>      -0.00901845       0.00461654      -0.00342821 </v>
   <v>       0.00101828       0.01485523      -0.00113672 </v>
   <v>       0.01004619      -0.00086729      -0.00436986 </v>
   <v>       0.01590152       0.00024863       0.00639425 </v>
   <v>       0.02218483      -0.00025821      -0.00185924 </v>
   <v>      -0.03616271      -0.03422368      -0.06637006 </v>
   <v>      -0.00116684       0.00029791      -0.00554680 </v>
   <v>       0.03848612      -0.00388098      -0.00400422 </v>
   <v>       0.00610015      -0.00244262      -0.01750651 </v>
   <v>      -0.00630782      -0.02071853       0.00444191 </v>
   <v>      -0.01203776      -0.00371430       0.00383817 </v>
   <v>      -0.00266897       0.00161485       0.00300588 </v>
   <v>       0.00207229      -0.00096014      -0.06665713 </v>
   <v>      -0.01900533      -0.01144994       0.01533949 </v>
   <v>      -0.00027033       0.00555106       0.00039173 </v>
   <v>      -0.00340478      -0.01086569      -0.00848946 </v>
   <v>       0.00243233      -0.00019981       0.00028859 </v>
   <v>       0.00488847      -0.00077852      -0.00293020 </v>
   <v>      -0.01011634       0.02603943      -0.00747220 </v>
   <v>      -0.00221001       0.01710066      -0.00490528 </v>
   <v>      -0.01417584      -0.00525902      -0.00398029 </v>
   <v>      -0.00711613       0.03027622       0.11484054 </v>
   <v>      -0.00317979       0.09544879       0.02826870 </v>
  </varray>
  <varray name="stress" >
   <v>       0.47431651       0.00230267       0.13074877 </v>
   <v>       0.00230268       0.51131962       0.08573470 </v>
   <v>       0.13074875       0.08573469       0.60862816 </v>
  </varray>
  <energy>
   <i name="e_fr_energy">   -356.50998091 </i>
   <i name="e_wo_entrp">   -356.51849240 </i>
   <i name="e_0_energy">      0.02553448 </i>
  </energy>
  <time name="totalsc">    8.67    9.46</time>
 </calculation>
 <calculation>
  <scstep>
   <time name="dav">    1.17    1.18</time>
   <time name="total">    1.24    1.44</time>
   <energy>
    <i name="alphaZ">   1732.77289005 </i>
    <i name="ewald"> -24414.46522504 </i>
    <i name="hartreedc">  -7458.16492618 </i>
    <i name="XCdc">    227.99931720 </i>
    <i name="pawpsdc">  38739.21506078 </i>
    <i name="pawaedc"> -37320.91409916 </i>
    <i name="eentropy">      0.02570868 </i>
    <i name="bandstr">  -3332.71937800 </i>
    <i name="atom">  31469.74120789 </i>
    <i name="e_fr_energy">   -356.50944377 </i>
    <i name="e_wo_entrp">   -356.53515245 </i>
    <i name="e_0_energy">   -356.51801333 </i>
   </energy>
  </scstep>
  <scstep>
   <time name="diag">    0.13    0.14</time>
   <time name="diis">    0.80    0.81</time>
   <time name="orth">    0.02    0.02</time>
   <time name="total">    1.03    1.09</time>
   <energy>
    <i name="e_fr_energy">   -356.51514163 </i>
    <i name="e_wo_entrp">   -356.54053346 </i>
    <i name="e_0_energy">   -356.52360558 </i>
   </energy>
  </scstep>
  <scstep>
   <time name="diag">    0.09    0.10</time>
   <time name="diis">    0.76    0.90</time>
   <time name="orth">    0.02    0.02</time>
   <time name="total">    0.94    1.13</time>
   <energy>
    <i name="e_fr_energy">   -356.51359907 </i>
    <i name="e_wo_entrp">   -356.53920018 </i>
    <i name="e_0_energy">   -356.52213277 </i>
   </energy>
  </scstep>
  <scstep>
   <time name="diag">    0.11    0.11</time>
   <time name="diis">    0.85    0.86</time>
   <time name="orth">    0.02    0.02</time>
   <time name="total">    1.05    1.09</time>
   <energy>
    <i name="e_fr_energy">   -356.51303673 </i>
    <i name="e_wo_entrp">   -356.53854717 </i>
    <i name="e_0_energy">   -356.52154021 </i>
   </energy>
  </scstep>
  <scstep>
   <time name="diag">    0.09    0.09</time>
   <time name="diis">    0.79    0.95</time>
   <time name="orth">    0.02    0.02</time>
   <time name="total">    0.97    1.16</time>
   <energy>
    <i name="e_fr_energy">   -356.51298077 </i>
    <i name="e_wo_entrp">   -356.53858506 </i>
    <i name="e_0_energy">   -356.52151553 </i>
   </energy>
  </scstep>
  <scstep>
   <time name="diag">    0.09    0.09</time>
   <time name="diis">    0.85    0.87</time>
   <time name="orth">    0.02    0.02</time>
   <time name="total">    1.03    1.08</time>
   <energy>
    <i name="e_fr_energy">   -356.51298389 </i>
    <i name="e_wo_entrp">   -356.53849127 </i>
    <i name="e_0_energy">   -356.52148635 </i>
   </energy>
  </scstep>
  <scstep>
   <time name="diag">    0.09    0.09</time>
   <time name="diis">    0.76    0.76</time>
   <time name="orth">    0.02    0.02</time>
   <time name="total">    0.93    1.01</time>
   <energy>
    <i name="e_fr_energy">   -356.51300189 </i>
    <i name="e_wo_entrp">   -356.53857479 </i>
    <i name="e_0_energy">   -356.52152619 </i>
   </energy>
  </scstep>
  <scstep>
   <time name="diag">    0.09    0.09</time>
   <time name="diis">    0.63    0.63</time>
   <time name="orth">    0.02    0.02</time>
   <time name="total">    0.80    0.85</time>
   <energy>
    <i name="e_fr_energy">   -356.51302135 </i>
    <i name="e_wo_entrp">   -356.53857814 </i>
    <i name="e_0_energy">   -356.52154028 </i>
   </energy>
  </scstep>
  <scstep>
   <time name="diag">    0.09    0.09</time>
   <time name="diis">    0.52    0.52</time>
   <time name="orth">    0.02    0.02</time>
   <time name="total">    0.69    0.75</time>
   <energy>
    <i name="e_fr_energy">   -356.51303225 </i>
    <i name="e_wo_entrp">   -356.53858723 </i>
    <i name="e_0_energy">   -356.52155058 </i>
   </energy>
  </scstep>
  <scstep>
   <time name="diag">    0.09    0.09</time>
   <time name="diis">    0.46    0.46</time>
   <time name="orth">    0.02    0.02</time>
   <time name="total">    0.60    0.64</time>
   <energy>
    <i name="alphaZ">   1732.77289005 </i>
    <i name="ewald"> -24414.46522504 </i>
    <i name="hartreedc">  -7451.69966802 </i>
    <i name="XCdc">    227.69816574 </i>
    <i name="pawpsdc">  38803.02809613 </i>
    <i name="pawaedc"> -37384.55767683 </i>
    <i name="eentropy">      0.02554354 </i>
    <i name="bandstr">  -3339.05637427 </i>
    <i name="atom">  31469.74120789 </i>
    <i name="e_fr_energy">   -356.51304080 </i>
    <i name="e_wo_entrp">   -356.53858434 </i>
    <i name="e_0_energy">   -356.52155532 </i>
   </energy>
  </scstep>
  <structure>
   <crystal>
    <varray name="basis" >
     <v>       6.91378541      -0.00327070       0.01107141 </v>
     <v>      -0.00511241      10.32316657       0.00761851 </v>
     <v>       0.01686913       0.00724799      10.15345367 </v>
    </varray>
    <i name="volume">    724.67142372 </i>
    <varray name="rec_basis" >
     <v>       0.14463898       0.00007181      -0.00024036 </v>
     <v>       0.00004594       0.09686958      -0.00006923 </v>
     <v>      -0.00015775      -0.00007276       0.09848897 </v>
    </varray>
   </crystal>
   <varray name="positions" >
    <v>       0.26450859       0.17975052       0.83129690 </v>
    <v>       0.74885415       0.17194462       0.82382198 </v>
    <v>       0.00981440       0.99860929       0.99889927 </v>
    <v>       0.22818251       0.17628546       0.50399570 </v>
    <v>       0.25980606       0.50370476       0.17469172 </v>
    <v>       0.49538132       0.98595630       0.99041531 </v>
    <v>       0.74096930       0.16371713       0.17219904 </v>
    <v>       0.47411154      -0.00049924       0.34510393 </v>
    <v>       0.73769737       0.49447053       0.82563456 </v>
    <v>       0.49236328       0.67144484       0.65977651 </v>
    <v>       0.00188189       0.33942564       0.00753337 </v>
    <v>       0.99309022       0.65904514       0.99437443 </v>
    <v>       0.25611869       0.81320960       0.17511017 </v>
    <v>       0.77099391       0.16953691       0.50315320 </v>
    <v>       0.48796434       0.98914444       0.66586162 </v>
    <v>       0.74450111       0.83046292       0.17657181 </v>
    <v>       0.77514311       0.83912543       0.49645880 </v>
    <v>       0.22833816       0.50165999       0.49306699 </v>
    <v>       0.50828596       0.33757457       0.34237627 </v>
    <v>       0.25714173       0.49720455       0.82861466 </v>
    <v>       0.98960952       0.33426935       0.31557168 </v>
    <v>       0.00530244       0.34854046       0.67568834 </v>
    <v>       0.97601815       0.65896126       0.33014642 </v>
    <v>       0.22258947       0.82799036       0.49705460 </v>
    <v>       0.24371062       0.82350026       0.83333268 </v>
    <v>       0.49753917       0.34089129       0.00953066 </v>
    <v>       0.73473270       0.50051020       0.17222692 </v>
    <v>       0.75926725       0.82723808       0.82375779 </v>
    <v>       0.00468485       0.67149492       0.67591674 </v>
    <v>       0.50125364       0.66951237       0.98780299 </v>
    <v>       0.26113552       0.18060313       0.17128826 </v>
    <v>       0.02867466       0.00450893       0.32406040 </v>
    <v>       0.01968672       0.98521596       0.68086520 </v>
    <v>       0.76412320       0.49870983       0.49965611 </v>
    <v>       0.49950119       0.34386658       0.64417523 </v>
    <v>       0.51703024       0.66241862       0.34996675 </v>
   </varray>
  </structure>
  <varray name="forces" >
   <v>      -0.01669584      -0.00731980       0.00936808 </v>
   <v>       0.01400113      -0.00716083       0.00327390 </v>
   <v>      -0.00507975       0.00415635       0.00756987 </v>
   <v>       0.04597689       0.02324685      -0.01656164 </v>
   <v>       0.01326141       0.02059467      -0.00838418 </v>
   <v>       0.00864659       0.00284054      -0.00055120 </v>
   <v>      -0.01258846      -0.00501718       0.01164971 </v>
   <v>       0.00979006      -0.03768150       0.00595535 </v>
   <v>       0.03278524       0.00387579       0.01342310 </v>
   <v>       0.00735522      -0.02460230      -0.01529863 </v>
   <v>      -0.01317547       0.00212914       0.00281918 </v>
   <v>      -0.00965249      -0.01469521       0.01077807 </v>
   <v>      -0.02503970      -0.00833987      -0.01895535 </v>
   <v>      -0.03449359       0.02828770      -0.01017487 </v>
   <v>       0.00580021       0.00679340       0.00120278 </v>
   <v>       0.01759928       0.00542384      -0.01656944 </v>
   <v>       0.03192900       0.00948875       0.02080443 </v>
   <v>       0.04698622      -0.01449849      -0.00496800 </v>
   <v>      -0.00369270      -0.01984329      -0.00538917 </v>
   <v>      -0.00823981      -0.00564243       0.00160290 </v>
   <v>       0.01126849      -0.00559213       0.01071553 </v>
   <v>       0.00070743      -0.00517128      -0.01357412 </v>
   <v>       0.00704037      -0.00948333       0.00921168 </v>
   <v>      -0.01912101      -0.01115930       0.00881711 </v>
   <v>       0.00903619       0.00827561       0.01023057 </v>
   <v>       0.00369875      -0.00188888      -0.04627353 </v>
   <v>      -0.01403720      -0.00644354      -0.00075663 </v>
   <v>      -0.00572843       0.01083329       0.01074612 </v>
   <v>      -0.01447477      -0.00746479      -0.01038570 </v>
   <v>       0.00744648       0.00938027      -0.00006368 </v>
   <v>       0.01897119      -0.01795897      -0.01597121 </v>
   <v>      -0.01855293       0.01715222      -0.00754519 </v>
   <v>      -0.00213472       0.01180393      -0.01209837 </v>
   <v>      -0.03722519      -0.03317592      -0.01273686 </v>
   <v>      -0.01531014       0.03720392       0.04181432 </v>
   <v>      -0.03705795       0.04165274       0.03627505 </v>
  </varray>
  <varray name="stress" >
   <v>       2.42277092       0.00353685      -0.02560692 </v>
   <v>       0.00353685       2.08792301      -0.16194416 </v>
   <v>      -0.02560692      -0.16194421       2.30666494 </v>
  </varray>
  <energy>
   <i name="e_fr_energy">   -356.51304080 </i>
   <i name="e_wo_entrp">   -356.52155532 </i>
   <i name="e_0_energy">      0.02554354 </i>
  </energy>
  <time name="totalsc">   11.09   12.17</time>
 </calculation>
 <calculation>
  <scstep>
   <time name="dav">    1.14    1.14</time>
   <time name="total">    1.22    1.40</time>
   <energy>
    <i name="alphaZ">   1731.06923384 </i>
    <i name="ewald"> -24406.33134050 </i>
    <i name="hartreedc">  -7449.43854329 </i>
    <i name="XCdc">    227.34122556 </i>
    <i name="pawpsdc">  38803.48184415 </i>
    <i name="pawaedc"> -37384.96829636 </i>
    <i name="eentropy">      0.02552739 </i>
    <i name="bandstr">  -3347.43755374 </i>
    <i name="atom">  31469.74120789 </i>
    <i name="e_fr_energy">   -356.51669507 </i>
    <i name="e_wo_entrp">   -356.54222246 </i>
    <i name="e_0_energy">   -356.52520420 </i>
   </energy>
  </scstep>
  <scstep>
   <time name="diag">    0.11    0.11</time>
   <time name="diis">    0.79    0.79</time>
   <time name="orth">    0.02    0.02</time>
   <time name="total">    0.98    1.03</time>
   <energy>
    <i name="e_fr_energy">   -356.51577535 </i>
    <i name="e_wo_entrp">   -356.54147452 </i>
    <i name="e_0_energy">   -356.52434174 </i>
   </energy>
  </scstep>
  <scstep>
   <time name="diag">    0.09    0.09</time>
   <time name="diis">    0.77    0.91</time>
   <time name="orth">    0.02    0.02</time>
   <time name="total">    0.94    1.12</time>
   <energy>
    <i name="e_fr_energy">   -356.51518263 </i>
    <i name="e_wo_entrp">   -356.54093863 </i>
    <i name="e_0_energy">   -356.52376796 </i>
   </energy>
  </scstep>
  <scstep>
   <time name="diag">    0.09    0.09</time>
   <time name="diis">    0.85    0.86</time>
   <time name="orth">    0.02    0.02</time>
   <time name="total">    1.02    1.07</time>
   <energy>
    <i name="e_fr_energy">   -356.51475045 </i>
    <i name="e_wo_entrp">   -356.54043768 </i>
    <i name="e_0_energy">   -356.52331286 </i>
   </energy>
  </scstep>
  <scstep>
   <time name="diag">    0.09    0.09</time>
   <time name="diis">    0.85    0.86</time>
   <time name="orth">    0.02    0.02</time>
   <time name="total">    1.03    1.07</time>
   <energy>
    <i name="e_fr_energy">   -356.51467101 </i>
    <i name="e_wo_entrp">   -356.54036006 </i>
    <i name="e_0_energy">   -356.52323403 </i>
   </energy>
  </scstep>
  <scstep>
   <time name="diag">    0.09    0.09</time>
   <time name="diis">    0.74    0.75</time>
   <time name="orth">    0.02    0.02</time>
   <time name="total">    0.91    0.96</time>
   <energy>
    <i name="e_fr_energy">   -356.51465976 </i>
    <i name="e_wo_entrp">   -356.54040624 </i>
    <i name="e_0_energy">   -356.52324192 </i>
   </energy>
  </scstep>
  <scstep>
   <time name="diag">    0.09    0.09</time>
   <time name="diis">    0.57    0.58</time>
   <time name="orth">    0.02    0.02</time>
   <time name="total">    0.71    0.74</time>
   <energy>
    <i name="alphaZ">   1731.06923384 </i>
    <i name="ewald"> -24406.33134050 </i>
    <i name="hartreedc">  -7454.74564060 </i>
    <i name="XCdc">    227.58157885 </i>
    <i name="pawpsdc">  38757.23047282 </i>
    <i name="pawaedc"> -37338.51710386 </i>
    <i name="eentropy">      0.02569181 </i>
    <i name="bandstr">  -3342.56875220 </i>
    <i name="atom">  31469.74120789 </i>
    <i name="e_fr_energy">   -356.51465194 </i>
    <i name="e_wo_entrp">   -356.54034375 </i>
    <i name="e_0_energy">   -356.52321588 </i>
   </energy>
  </scstep>
  <structure>
   <crystal>
    <varray name="basis" >
     <v>       6.91600160      -0.00326287       0.01134171 </v>
     <v>      -0.00510086      10.32633228       0.00779673 </v>
     <v>       0.01726579       0.00742304      10.15707628 </v>
    </varray>
    <i name="volume">    725.38461933 </i>
    <varray name="rec_basis" >
     <v>       0.14459265       0.00007161      -0.00024584 </v>
     <v>       0.00004580       0.09683988      -0.00007085 </v>
     <v>      -0.00016149      -0.00007442       0.09845386 </v>
    </varray>
   </crystal>
   <varray name="positions" >
    <v>       0.26449235       0.17973170       0.83130014 </v>
    <v>       0.74887074       0.17192827       0.82380927 </v>
    <v>       0.00979377       0.99862409       0.99892826 </v>
    <v>       0.22831075       0.17631894       0.50394306 </v>
    <v>       0.25990678       0.50369760       0.17470543 </v>
    <v>       0.49540095       0.98597185       0.99042571 </v>
    <v>       0.74091324       0.16375015       0.17225922 </v>
    <v>       0.47410615      -0.00070498       0.34512004 </v>
    <v>       0.73772936       0.49445623       0.82563807 </v>
    <v>       0.49239167       0.67136764       0.65973558 </v>
    <v>       0.00183764       0.33941458       0.00757427 </v>
    <v>       0.99307222       0.65901954       0.99439604 </v>
    <v>       0.25607148       0.81320195       0.17507313 </v>
    <v>       0.77094408       0.16955682       0.50314123 </v>
    <v>       0.48796999       0.98918534       0.66585790 </v>
    <v>       0.74455243       0.83046041       0.17655444 </v>
    <v>       0.77522289       0.83912771       0.49648191 </v>
    <v>       0.22844728       0.50165626       0.49306226 </v>
    <v>       0.50813826       0.33747491       0.34218795 </v>
    <v>       0.25713157       0.49720393       0.82860073 </v>
    <v>       0.98976512       0.33425818       0.31556287 </v>
    <v>       0.00532511       0.34853248       0.67563585 </v>
    <v>       0.97599778       0.65890386       0.33016182 </v>
    <v>       0.22253120       0.82797649       0.49707020 </v>
    <v>       0.24370428       0.82350711       0.83334276 </v>
    <v>       0.49754935       0.34088690       0.00933556 </v>
    <v>       0.73465319       0.50047823       0.17226770 </v>
    <v>       0.75926414       0.82725547       0.82376107 </v>
    <v>       0.00466356       0.67146559       0.67589032 </v>
    <v>       0.50126697       0.66951543       0.98780275 </v>
    <v>       0.26116493       0.18059467       0.17127379 </v>
    <v>       0.02862421       0.00458315       0.32403760 </v>
    <v>       0.01967844       0.98526512       0.68084693 </v>
    <v>       0.76405330       0.49868720       0.49964240 </v>
    <v>       0.49946431       0.34396021       0.64451454 </v>
    <v>       0.51699752       0.66269197       0.35005619 </v>
   </varray>
  </structure>
  <varray name="forces" >
   <v>      -0.01960101      -0.00667046       0.00866158 </v>
   <v>       0.01563631      -0.00578344       0.00194712 </v>
   <v>      -0.00359897       0.00347046       0.00606711 </v>
   <v>       0.04520826       0.02495037      -0.01476008 </v>
   <v>       0.01322584       0.02342646      -0.00891784 </v>
   <v>       0.00854775       0.00011729      -0.00266127 </v>
   <v>      -0.01323067      -0.00638887       0.01127305 </v>
   <v>       0.00745777      -0.03215633       0.00490920 </v>
   <v>       0.03598533       0.00575473       0.01360016 </v>
   <v>       0.00754280      -0.02251728      -0.01344942 </v>
   <v>      -0.01135735       0.00256212       0.00277951 </v>
   <v>      -0.01012892      -0.01484757       0.00844208 </v>
   <v>      -0.02652448      -0.01008944      -0.01807646 </v>
   <v>      -0.03534885       0.03257869      -0.00850618 </v>
   <v>       0.00376242       0.00227688       0.00358761 </v>
   <v>       0.01778848       0.00359811      -0.01397200 </v>
   <v>       0.03688472       0.01048076       0.02165526 </v>
   <v>       0.04474350      -0.01754672      -0.00452667 </v>
   <v>       0.00290180      -0.01585955       0.00189061 </v>
   <v>      -0.01033074      -0.00669280       0.00112404 </v>
   <v>       0.00600027      -0.00471152       0.00963892 </v>
   <v>       0.00074942      -0.00345093      -0.01516279 </v>
   <v>       0.00504025      -0.01033810       0.01124189 </v>
   <v>      -0.02582977      -0.01095244       0.00990480 </v>
   <v>       0.00729470       0.00865722       0.00846895 </v>
   <v>       0.00258588      -0.00164307      -0.04057883 </v>
   <v>      -0.01578237      -0.00469832       0.00005509 </v>
   <v>      -0.00321405       0.01022660       0.00874573 </v>
   <v>      -0.01347684      -0.00376015      -0.00811081 </v>
   <v>       0.00783539       0.01257340      -0.00353745 </v>
   <v>       0.02065568      -0.01794573      -0.01576821 </v>
   <v>      -0.01359059       0.01555658      -0.00685068 </v>
   <v>       0.00169562       0.00605370      -0.01061431 </v>
   <v>      -0.03802645      -0.03640299      -0.01407219 </v>
   <v>      -0.01455329       0.03895711       0.02846869 </v>
   <v>      -0.03694785       0.03121522       0.03710381 </v>
  </varray>
  <varray name="stress" >
   <v>       1.39684708       0.00895405      -0.03544407 </v>
   <v>       0.00895410       0.99409357      -0.16123278 </v>
   <v>      -0.03544407      -0.16123279       1.20628174 </v>
  </varray>
  <energy>
   <i name="e_fr_energy">   -356.51465194 </i>
   <i name="e_wo_entrp">   -356.52321588 </i>
   <i name="e_0_energy">      0.02569181 </i>
  </energy>
  <time name="totalsc">    8.58    9.32</time>
 </calculation>
 <calculation>
  <scstep>
   <time name="dav">    1.22    1.23</time>
   <time name="total">    1.30    1.47</time>
   <energy>
    <i name="alphaZ">   1727.42946586 </i>
    <i name="ewald"> -24388.90532564 </i>
    <i name="hartreedc">  -7449.80582188 </i>
    <i name="XCdc">    226.81287829 </i>
    <i name="pawpsdc">  38759.00377257 </i>
    <i name="pawaedc"> -37340.33259553 </i>
    <i name="eentropy">      0.02562544 </i>
    <i name="bandstr">  -3360.49385336 </i>
    <i name="atom">  31469.74120789 </i>
    <i name="e_fr_energy">   -356.52464636 </i>
    <i name="e_wo_entrp">   -356.55027180 </i>
    <i name="e_0_energy">   -356.53318818 </i>
   </energy>
  </scstep>
  <scstep>
   <time name="diag">    0.09    0.09</time>
   <time name="diis">    0.76    0.76</time>
   <time name="orth">    0.02    0.02</time>
   <time name="total">    0.93    0.97</time>
   <energy>
    <i name="e_fr_energy">   -356.52034985 </i>
    <i name="e_wo_entrp">   -356.54630356 </i>
    <i name="e_0_energy">   -356.52900109 </i>
   </energy>
  </scstep>
  <scstep>
   <time name="diag">    0.09    0.09</time>
   <time name="diis">    0.83    0.89</time>
   <time name="orth">    0.02    0.03</time>
   <time name="total">    1.00    1.13</time>
   <energy>
    <i name="e_fr_energy">   -356.51761820 </i>
    <i name="e_wo_entrp">   -356.54377513 </i>
    <i name="e_0_energy">   -356.52633717 </i>
   </energy>
  </scstep>
  <scstep>
   <time name="diag">    0.10    0.12</time>
   <time name="diis">    0.91    0.92</time>
   <time name="orth">    0.02    0.02</time>
   <time name="total">    1.11    1.20</time>
   <energy>
    <i name="e_fr_energy">   -356.51574384 </i>
    <i name="e_wo_entrp">   -356.54170572 </i>
    <i name="e_0_energy">   -356.52439780 </i>
   </energy>
  </scstep>
  <scstep>
   <time name="diag">    0.09    0.09</time>
   <time name="diis">    0.87    0.88</time>
   <time name="orth">    0.02    0.02</time>
   <time name="total">    1.04    1.09</time>
   <energy>
    <i name="e_fr_energy">   -356.51543088 </i>
    <i name="e_wo_entrp">   -356.54141889 </i>
    <i name="e_0_energy">   -356.52409355 </i>
   </energy>
  </scstep>
  <scstep>
   <time name="diag">    0.09    0.09</time>
   <time name="diis">    0.86    0.87</time>
   <time name="orth">    0.02    0.02</time>
   <time name="total">    1.04    1.11</time>
   <energy>
    <i name="e_fr_energy">   -356.51543560 </i>
    <i name="e_wo_entrp">   -356.54153259 </i>
    <i name="e_0_energy">   -356.52413460 </i>
   </energy>
  </scstep>
  <scstep>
   <time name="diag">    0.09    0.10</time>
   <time name="diis">    0.75    0.76</time>
   <time name="orth">    0.02    0.02</time>
   <time name="total">    0.93    0.99</time>
   <energy>
    <i name="e_fr_energy">   -356.51544185 </i>
    <i name="e_wo_entrp">   -356.54143034 </i>
    <i name="e_0_energy">   -356.52410468 </i>
   </energy>
  </scstep>
  <scstep>
   <time name="diag">    0.09    0.09</time>
   <time name="diis">    0.71    0.72</time>
   <time name="orth">    0.02    0.02</time>
   <time name="total">    0.89    0.94</time>
   <energy>
    <i name="e_fr_energy">   -356.51544568 </i>
    <i name="e_wo_entrp">   -356.54146235 </i>
    <i name="e_0_energy">   -356.52411790 </i>
   </energy>
  </scstep>
  <scstep>
   <time name="diag">    0.15    0.15</time>
   <time name="diis">    0.52    0.53</time>
   <time name="orth">    0.02    0.02</time>
   <time name="total">    0.74    0.82</time>
   <energy>
    <i name="alphaZ">   1727.42946586 </i>
    <i name="ewald"> -24388.90532564 </i>
    <i name="hartreedc">  -7460.66665746 </i>
    <i name="XCdc">    227.30620193 </i>
    <i name="pawpsdc">  38662.05296957 </i>
    <i name="pawaedc"> -37243.46210794 </i>
    <i name="eentropy">      0.02602442 </i>
    <i name="bandstr">  -3350.03722698 </i>
    <i name="atom">  31469.74120789 </i>
    <i name="e_fr_energy">   -356.51544835 </i>
    <i name="e_wo_entrp">   -356.54147277 </i>
    <i name="e_0_energy">   -356.52412315 </i>
   </energy>
  </scstep>
  <structure>
   <crystal>
    <varray name="basis" >
     <v>       6.92074616      -0.00324612       0.01192038 </v>
     <v>      -0.00507613      10.33310965       0.00817826 </v>
     <v>       0.01811496       0.00779779      10.16483180 </v>
    </varray>
    <i name="volume">    726.91303584 </i>
    <varray name="rec_basis" >
     <v>       0.14449357       0.00007119      -0.00025756 </v>
     <v>       0.00004552       0.09677637      -0.00007432 </v>
     <v>      -0.00016949      -0.00007795       0.09837877 </v>
    </varray>
   </crystal>
   <varray name="positions" >
    <v>       0.26445758       0.17969140       0.83130708 </v>
    <v>       0.74890625       0.17189327       0.82378206 </v>
    <v>       0.00974962       0.99865578       0.99899029 </v>
    <v>       0.22858519       0.17639061       0.50383040 </v>
    <v>       0.26012233       0.50368227       0.17473477 </v>
    <v>       0.49544298       0.98600512       0.99044798 </v>
    <v>       0.74079324       0.16382082       0.17238801 </v>
    <v>       0.47409461      -0.00114530       0.34515452 </v>
    <v>       0.73779783       0.49442563       0.82564558 </v>
    <v>       0.49245242       0.67120242       0.65964800 </v>
    <v>       0.00174293       0.33939091       0.00766179 </v>
    <v>       0.99303369       0.65896477       0.99444229 </v>
    <v>       0.25597043       0.81318559       0.17499385 </v>
    <v>       0.77083743       0.16959944       0.50311561 </v>
    <v>       0.48798208       0.98927288       0.66584994 </v>
    <v>       0.74466229       0.83045502       0.17651725 </v>
    <v>       0.77539363       0.83913258       0.49653138 </v>
    <v>       0.22868083       0.50164827       0.49305214 </v>
    <v>       0.50782218       0.33726164       0.34178494 </v>
    <v>       0.25710982       0.49720260       0.82857093 </v>
    <v>       0.99009812       0.33423428       0.31554400 </v>
    <v>       0.00537364       0.34851540       0.67552353 </v>
    <v>       0.97595419       0.65878101       0.33019477 </v>
    <v>       0.22240649       0.82794682       0.49710358 </v>
    <v>       0.24369072       0.82352176       0.83336434 </v>
    <v>       0.49757116       0.34087751       0.00891801 </v>
    <v>       0.73448302       0.50040981       0.17235497 </v>
    <v>       0.75925746       0.82729267       0.82376810 </v>
    <v>       0.00461801       0.67140281       0.67583377 </v>
    <v>       0.50129549       0.66952196       0.98780226 </v>
    <v>       0.26122786       0.18057657       0.17124282 </v>
    <v>       0.02851626       0.00474199       0.32398880 </v>
    <v>       0.01966070       0.98537031       0.68080783 </v>
    <v>       0.76390370       0.49863877       0.49961307 </v>
    <v>       0.49938535       0.34416058       0.64524069 </v>
    <v>       0.51692748       0.66327700       0.35024762 </v>
   </varray>
  </structure>
  <varray name="forces" >
   <v>      -0.02376848      -0.00308966       0.00650210 </v>
   <v>       0.01695540      -0.00130312      -0.00140438 </v>
   <v>      -0.00060915      -0.00034783       0.00341829 </v>
   <v>       0.04253899       0.02935947      -0.01347112 </v>
   <v>       0.01206204       0.02861127      -0.01000779 </v>
   <v>       0.00846233      -0.00797871      -0.00666296 </v>
   <v>      -0.01344969      -0.00763771       0.01101047 </v>
   <v>       0.00183964      -0.02005137       0.00262273 </v>
   <v>       0.03997562       0.00922457       0.01533255 </v>
   <v>       0.00731014      -0.01907951      -0.00900290 </v>
   <v>      -0.00796069       0.00494954       0.00517935 </v>
   <v>      -0.01123123      -0.01525083       0.00406735 </v>
   <v>      -0.02936052      -0.01440189      -0.01520618 </v>
   <v>      -0.03708746       0.04202311      -0.01018630 </v>
   <v>      -0.00064037      -0.00911539       0.00764310 </v>
   <v>       0.01749165      -0.00160799      -0.00754219 </v>
   <v>       0.04682977       0.01085008       0.02176082 </v>
   <v>       0.04209473      -0.02403423      -0.00785153 </v>
   <v>       0.01838311      -0.00448674       0.02053968 </v>
   <v>      -0.01166530      -0.00986778       0.00094040 </v>
   <v>      -0.00734480      -0.00302904       0.00829924 </v>
   <v>       0.00103704       0.00129747      -0.01469837 </v>
   <v>       0.00143054      -0.00983806       0.01281161 </v>
   <v>      -0.03757544      -0.01076744       0.00897325 </v>
   <v>       0.00415896       0.00862741       0.00676829 </v>
   <v>       0.00052212       0.00075339      -0.02196995 </v>
   <v>      -0.01659596      -0.00047887      -0.00051205 </v>
   <v>       0.00208215       0.00798749       0.00738524 </v>
   <v>      -0.01098373       0.00433202      -0.00306612 </v>
   <v>       0.00813439       0.01840070      -0.01012718 </v>
[...]
       <r>    7.6275    1.0000 </r>
       <r>    7.6665    1.0001 </r>
       <r>    7.6887    1.0002 </r>
       <r>    7.7120    1.0005 </r>
       <r>    7.7742    1.0033 </r>
       <r>    7.7933    1.0053 </r>
       <r>    7.8294    1.0115 </r>
       <r>    7.8657    1.0213 </r>
       <r>    7.8964    1.0304 </r>
       <r>    7.9366    1.0349 </r>
       <r>    7.9437    1.0335 </r>
       <r>    7.9771    1.0108 </r>
       <r>    8.0067    0.9596 </r>
       <r>    8.0530    0.8040 </r>
       <r>    8.0772    0.6879 </r>
       <r>    8.1239    0.4305 </r>
       <r>    8.1564    0.2591 </r>
       <r>    8.1986    0.0890 </r>
       <r>    8.2259    0.0201 </r>
       <r>    8.2559   -0.0208 </r>
       <r>    8.3053   -0.0348 </r>
       <r>    8.3250   -0.0309 </r>
       <r>    8.3373   -0.0274 </r>
       <r>    8.3853   -0.0135 </r>
       <r>    8.4072   -0.0088 </r>
       <r>    8.4731   -0.0017 </r>
       <r>    8.5051   -0.0007 </r>
       <r>    8.5185   -0.0004 </r>
       <r>    8.5458   -0.0002 </r>
       <r>    8.5784   -0.0000 </r>
       <r>    8.6234   -0.0000 </r>
       <r>    8.6919   -0.0000 </r>
       <r>    8.7469   -0.0000 </r>
       <r>    8.8158   -0.0000 </r>
       <r>    8.9100   -0.0000 </r>
       <r>    8.9999   -0.0000 </r>
       <r>    9.0433   -0.0000 </r>
       <r>    9.2161   -0.0000 </r>
       <r>    9.3552   -0.0000 </r>
       <r>    9.3876   -0.0000 </r>
       <r>    9.9496   -0.0000 </r>
       <r>   10.0280   -0.0000 </r>
       <r>   10.0766   -0.0000 </r>
       <r>   10.1592   -0.0000 </r>
       <r>   10.2172   -0.0000 </r>
       <r>   10.2740   -0.0000 </r>
       <r>   10.3166   -0.0000 </r>
       <r>   10.4139   -0.0000 </r>
       <r>   10.4552   -0.0000 </r>
      </set>
     </set>
    </set>
   </array>
  </eigenvalues>
  <separator name="orbital magnetization" >
   <v name="MAGDIPOLOUT">      0.00000000      0.00000000      0.00000000</v>
  </separator>
  <dos>
   <i name="efermi">      8.11152229 </i>
   <total>
    <array>
     <dimension dim="1">gridpoints</dimension>
     <dimension dim="2">spin</dimension>
     <field>energy</field>
     <field>total</field>
     <field>integrated</field>
     <set>
      <set comment="spin 1">
       <r>   -49.0245     0.0000     0.0000 </r>
       <r>   -48.8168     0.0000     0.0000 </r>
       <r>   -48.6090     0.0000     0.0000 </r>
       <r>   -48.4013     0.0000     0.0000 </r>
       <r>   -48.1935     0.0000     0.0000 </r>
       <r>   -47.9858     0.0000     0.0000 </r>
       <r>   -47.7781     0.0000     0.0000 </r>
       <r>   -47.5703    -0.0000    -0.0000 </r>
       <r>   -47.3626    -0.0000    -0.0000 </r>
       <r>   -47.1548    -0.0000    -0.0000 </r>
       <r>   -46.9471    -0.0000    -0.0000 </r>
       <r>   -46.7394    -0.0000    -0.0000 </r>
       <r>   -46.5316    -0.0682    -0.0142 </r>
       <r>   -46.3239    -1.6188    -0.3505 </r>
       <r>   -46.1161    38.9251     7.7358 </r>
       <r>   -45.9084    58.8843    19.9685 </r>
       <r>   -45.7007    10.4644    22.1424 </r>
       <r>   -45.4929    -0.6705    22.0031 </r>
       <r>   -45.2852    -0.0148    22.0000 </r>
       <r>   -45.0774    -0.0000    22.0000 </r>
       <r>   -44.8697    -0.0000    22.0000 </r>
       <r>   -44.6619     0.0000    22.0000 </r>
       <r>   -44.4542     0.0000    22.0000 </r>
       <r>   -44.2465     0.0000    22.0000 </r>
       <r>   -44.0387     0.0000    22.0000 </r>
       <r>   -43.8310     0.0000    22.0000 </r>
       <r>   -43.6232     0.0000    22.0000 </r>
       <r>   -43.4155     0.0000    22.0000 </r>
       <r>   -43.2078     0.0000    22.0000 </r>
       <r>   -43.0000     0.0000    22.0000 </r>
       <r>   -42.7923     0.0000    22.0000 </r>
       <r>   -42.5845     0.0000    22.0000 </r>
       <r>   -42.3768     0.0000    22.0000 </r>
       <r>   -42.1691     0.0000    22.0000 </r>
       <r>   -41.9613     0.0000    22.0000 </r>
       <r>   -41.7536     0.0000    22.0000 </r>
       <r>   -41.5458     0.0000    22.0000 </r>
       <r>   -41.3381    -0.0000    22.0000 </r>
       <r>   -41.1304    -0.0000    22.0000 </r>
       <r>   -40.9226    -0.0000    22.0000 </r>
       <r>   -40.7149    -0.0000    22.0000 </r>
       <r>   -40.5071    -0.0132    21.9973 </r>
       <r>   -40.2994    -1.3960    21.7073 </r>
       <r>   -40.0917    20.9885    26.0674 </r>
       <r>   -39.8839    67.6312    40.1172 </r>
       <r>   -39.6762     9.8739    42.1684 </r>
       <r>   -39.4684    -0.8042    42.0013 </r>
       <r>   -39.2607    -0.0064    42.0000 </r>
       <r>   -39.0530    -0.0000    42.0000 </r>
       <r>   -38.8452    -0.0000    42.0000 </r>
       <r>   -38.6375     0.0000    42.0000 </r>
       <r>   -38.4297     0.0000    42.0000 </r>
       <r>   -38.2220     0.0000    42.0000 </r>
       <r>   -38.0142     0.0000    42.0000 </r>
       <r>   -37.8065     0.0000    42.0000 </r>
       <r>   -37.5988     0.0000    42.0000 </r>
       <r>   -37.3910     0.0000    42.0000 </r>
       <r>   -37.1833     0.0000    42.0000 </r>
       <r>   -36.9755     0.0000    42.0000 </r>
       <r>   -36.7678     0.0000    42.0000 </r>
       <r>   -36.5601     0.0000    42.0000 </r>
       <r>   -36.3523     0.0000    42.0000 </r>
       <r>   -36.1446     0.0000    42.0000 </r>
       <r>   -35.9368     0.0000    42.0000 </r>
       <r>   -35.7291     0.0000    42.0000 </r>
       <r>   -35.5214     0.0000    42.0000 </r>
       <r>   -35.3136     0.0000    42.0000 </r>
       <r>   -35.1059     0.0000    42.0000 </r>
       <r>   -34.8981     0.0000    42.0000 </r>
       <r>   -34.6904     0.0000    42.0000 </r>
       <r>   -34.4827     0.0000    42.0000 </r>
       <r>   -34.2749     0.0000    42.0000 </r>
       <r>   -34.0672     0.0000    42.0000 </r>
       <r>   -33.8594     0.0000    42.0000 </r>
       <r>   -33.6517     0.0000    42.0000 </r>
       <r>   -33.4440     0.0000    42.0000 </r>
       <r>   -33.2362     0.0000    42.0000 </r>
       <r>   -33.0285     0.0000    42.0000 </r>
       <r>   -32.8207     0.0000    42.0000 </r>
       <r>   -32.6130     0.0000    42.0000 </r>
       <r>   -32.4052     0.0000    42.0000 </r>
       <r>   -32.1975     0.0000    42.0000 </r>
       <r>   -31.9898     0.0000    42.0000 </r>
       <r>   -31.7820     0.0000    42.0000 </r>
       <r>   -31.5743     0.0000    42.0000 </r>
       <r>   -31.3665     0.0000    42.0000 </r>
       <r>   -31.1588     0.0000    42.0000 </r>
       <r>   -30.9511     0.0000    42.0000 </r>
       <r>   -30.7433     0.0000    42.0000 </r>
       <r>   -30.5356     0.0000    42.0000 </r>
       <r>   -30.3278     0.0000    42.0000 </r>
       <r>   -30.1201     0.0000    42.0000 </r>
       <r>   -29.9124     0.0000    42.0000 </r>
       <r>   -29.7046     0.0000    42.0000 </r>
       <r>   -29.4969     0.0000    42.0000 </r>
       <r>   -29.2891     0.0000    42.0000 </r>
       <r>   -29.0814     0.0000    42.0000 </r>
       <r>   -28.8737     0.0000    42.0000 </r>
       <r>   -28.6659     0.0000    42.0000 </r>
       <r>   -28.4582     0.0000    42.0000 </r>
       <r>   -28.2504     0.0000    42.0000 </r>
       <r>   -28.0427     0.0000    42.0000 </r>
       <r>   -27.8350     0.0000    42.0000 </r>
       <r>   -27.6272     0.0000    42.0000 </r>
       <r>   -27.4195     0.0000    42.0000 </r>
       <r>   -27.2117     0.0000    42.0000 </r>
       <r>   -27.0040     0.0000    42.0000 </r>
       <r>   -26.7963     0.0000    42.0000 </r>
       <r>   -26.5885     0.0000    42.0000 </r>
       <r>   -26.3808     0.0000    42.0000 </r>
       <r>   -26.1730     0.0000    42.0000 </r>
       <r>   -25.9653     0.0000    42.0000 </r>
       <r>   -25.7575     0.0000    42.0000 </r>
       <r>   -25.5498     0.0000    42.0000 </r>
       <r>   -25.3421     0.0000    42.0000 </r>
       <r>   -25.1343     0.0000    42.0000 </r>
       <r>   -24.9266     0.0000    42.0000 </r>
       <r>   -24.7188     0.0000    42.0000 </r>
       <r>   -24.5111     0.0000    42.0000 </r>
       <r>   -24.3034     0.0000    42.0000 </r>
       <r>   -24.0956     0.0000    42.0000 </r>
       <r>   -23.8879    -0.0000    42.0000 </r>
       <r>   -23.6801    -0.0000    42.0000 </r>
       <r>   -23.4724    -0.0000    42.0000 </r>
       <r>   -23.2647    -0.0000    42.0000 </r>
       <r>   -23.0569    -0.0006    41.9999 </r>
       <r>   -22.8492    -0.3409    41.9291 </r>
       <r>   -22.6414     2.3938    42.4263 </r>
       <r>   -22.4337    48.3080    52.4619 </r>
       <r>   -22.2260    86.2728    70.3842 </r>
       <r>   -22.0182   112.6601    93.7883 </r>
       <r>   -21.8105    58.9844   106.0418 </r>
       <r>   -21.6027    10.2792   108.1772 </r>
       <r>   -21.3950    -0.8487   108.0009 </r>
       <r>   -21.1873    -0.0043   108.0000 </r>
       <r>   -20.9795    -0.0000   108.0000 </r>
       <r>   -20.7718    -0.0000   108.0000 </r>
       <r>   -20.5640     0.0000   108.0000 </r>
       <r>   -20.3563     0.0000   108.0000 </r>
       <r>   -20.1486     0.0000   108.0000 </r>
       <r>   -19.9408     0.0000   108.0000 </r>
       <r>   -19.7331    -0.0000   108.0000 </r>
       <r>   -19.5253    -0.0000   108.0000 </r>
       <r>   -19.3176    -0.0000   108.0000 </r>
       <r>   -19.1098    -0.0000   108.0000 </r>
       <r>   -18.9021    -0.0023   107.9995 </r>
       <r>   -18.6944    -0.6104   107.8727 </r>
       <r>   -18.4866     6.6053   109.2449 </r>
       <r>   -18.2789    54.8568   120.6409 </r>
       <r>   -18.0711    95.1242   140.4020 </r>
       <r>   -17.8634   118.4047   164.9995 </r>
       <r>   -17.6557    15.8090   168.2837 </r>
       <r>   -17.4479    -1.3568   168.0018 </r>
       <r>   -17.2402    -0.0088   168.0000 </r>
       <r>   -17.0324    -0.0000   168.0000 </r>
       <r>   -16.8247    -0.0000   168.0000 </r>
       <r>   -16.6170     0.0000   168.0000 </r>
       <r>   -16.4092     0.0000   168.0000 </r>
       <r>   -16.2015     0.0000   168.0000 </r>
       <r>   -15.9937     0.0000   168.0000 </r>
       <r>   -15.7860     0.0000   168.0000 </r>
       <r>   -15.5783     0.0000   168.0000 </r>
       <r>   -15.3705     0.0000   168.0000 </r>
       <r>   -15.1628     0.0000   168.0000 </r>
       <r>   -14.9550     0.0000   168.0000 </r>
       <r>   -14.7473     0.0000   168.0000 </r>
       <r>   -14.5396     0.0000   168.0000 </r>
       <r>   -14.3318     0.0000   168.0000 </r>
       <r>   -14.1241     0.0000   168.0000 </r>
       <r>   -13.9163     0.0000   168.0000 </r>
       <r>   -13.7086     0.0000   168.0000 </r>
       <r>   -13.5009     0.0000   168.0000 </r>
       <r>   -13.2931     0.0000   168.0000 </r>
       <r>   -13.0854     0.0000   168.0000 </r>
       <r>   -12.8776     0.0000   168.0000 </r>
       <r>   -12.6699     0.0000   168.0000 </r>
       <r>   -12.4621     0.0000   168.0000 </r>
       <r>   -12.2544     0.0000   168.0000 </r>
       <r>   -12.0467     0.0000   168.0000 </r>
       <r>   -11.8389     0.0000   168.0000 </r>
       <r>   -11.6312     0.0000   168.0000 </r>
       <r>   -11.4234     0.0000   168.0000 </r>
       <r>   -11.2157     0.0000   168.0000 </r>
       <r>   -11.0080     0.0000   168.0000 </r>
       <r>   -10.8002     0.0000   168.0000 </r>
       <r>   -10.5925     0.0000   168.0000 </r>
       <r>   -10.3847     0.0000   168.0000 </r>
       <r>   -10.1770     0.0000   168.0000 </r>
       <r>    -9.9693     0.0000   168.0000 </r>
       <r>    -9.7615     0.0000   168.0000 </r>
       <r>    -9.5538     0.0000   168.0000 </r>
       <r>    -9.3460     0.0000   168.0000 </r>
       <r>    -9.1383     0.0000   168.0000 </r>
       <r>    -8.9306     0.0000   168.0000 </r>
       <r>    -8.7228     0.0000   168.0000 </r>
       <r>    -8.5151     0.0000   168.0000 </r>
       <r>    -8.3073     0.0000   168.0000 </r>
       <r>    -8.0996     0.0000   168.0000 </r>
       <r>    -7.8919     0.0000   168.0000 </r>
       <r>    -7.6841     0.0000   168.0000 </r>
       <r>    -7.4764     0.0000   168.0000 </r>
       <r>    -7.2686     0.0000   168.0000 </r>
       <r>    -7.0609     0.0000   168.0000 </r>
       <r>    -6.8532     0.0000   168.0000 </r>
       <r>    -6.6454     0.0000   168.0000 </r>
       <r>    -6.4377     0.0000   168.0000 </r>
       <r>    -6.2299     0.0000   168.0000 </r>
       <r>    -6.0222     0.0000   168.0000 </r>
       <r>    -5.8144     0.0000   168.0000 </r>
       <r>    -5.6067     0.0000   168.0000 </r>
       <r>    -5.3990     0.0000   168.0000 </r>
       <r>    -5.1912     0.0000   168.0000 </r>
       <r>    -4.9835     0.0000   168.0000 </r>
       <r>    -4.7757     0.0000   168.0000 </r>
       <r>    -4.5680     0.0000   168.0000 </r>
       <r>    -4.3603     0.0000   168.0000 </r>
       <r>    -4.1525     0.0000   168.0000 </r>
       <r>    -3.9448     0.0000   168.0000 </r>
       <r>    -3.7370     0.0000   168.0000 </r>
       <r>    -3.5293     0.0000   168.0000 </r>
       <r>    -3.3216     0.0000   168.0000 </r>
       <r>    -3.1138     0.0000   168.0000 </r>
       <r>    -2.9061     0.0000   168.0000 </r>
       <r>    -2.6983     0.0000   168.0000 </r>
       <r>    -2.4906     0.0000   168.0000 </r>
       <r>    -2.2829     0.0000   168.0000 </r>
       <r>    -2.0751     0.0000   168.0000 </r>
       <r>    -1.8674     0.0000   168.0000 </r>
       <r>    -1.6596     0.0000   168.0000 </r>
       <r>    -1.4519     0.0000   168.0000 </r>
       <r>    -1.2442     0.0000   168.0000 </r>
       <r>    -1.0364     0.0000   168.0000 </r>
       <r>    -0.8287     0.0000   168.0000 </r>
       <r>    -0.6209     0.0000   168.0000 </r>
       <r>    -0.4132     0.0000   168.0000 </r>
       <r>    -0.2055     0.0000   168.0000 </r>
       <r>     0.0023     0.0000   168.0000 </r>
       <r>     0.2100    -0.0000   168.0000 </r>
       <r>     0.4178    -0.0000   168.0000 </r>
       <r>     0.6255    -0.0000   168.0000 </r>
       <r>     0.8333    -0.0000   168.0000 </r>
       <r>     1.0410    -0.0000   168.0000 </r>
       <r>     1.2487    -0.0014   167.9997 </r>
       <r>     1.4565    -0.0007   167.9996 </r>
       <r>     1.6642     0.2989   168.0617 </r>
       <r>     1.8720     1.2255   168.3162 </r>
       <r>     2.0797     1.6887   168.6670 </r>
       <r>     2.2874     2.0224   169.0872 </r>
       <r>     2.4952     3.8249   169.8818 </r>
       <r>     2.7029     3.4728   170.6032 </r>
       <r>     2.9107     2.6721   171.1583 </r>
       <r>     3.1184     4.6984   172.1344 </r>
       <r>     3.3261     4.0962   172.9853 </r>
       <r>     3.5339     5.1689   174.0591 </r>
       <r>     3.7416     7.6867   175.6559 </r>
       <r>     3.9494     8.6858   177.4603 </r>
       <r>     4.1571     8.2802   179.1805 </r>
       <r>     4.3648     9.9866   181.2551 </r>
       <r>     4.5726    14.4189   184.2505 </r>
       <r>     4.7803    21.5024   188.7174 </r>
       <r>     4.9881    22.7482   193.4431 </r>
       <r>     5.1958    29.6827   199.6094 </r>
       <r>     5.4035    34.8262   206.8442 </r>
       <r>     5.6113    41.6000   215.4862 </r>
       <r>     5.8190    43.7573   224.5764 </r>
       <r>     6.0268    37.8847   232.4466 </r>
       <r>     6.2345    34.0351   239.5171 </r>
       <r>     6.4422    33.0858   246.3903 </r>
       <r>     6.6500    16.5256   249.8234 </r>
       <r>     6.8577    46.2014   259.4213 </r>
       <r>     7.0655    64.8769   272.8988 </r>
       <r>     7.2732    57.0333   284.7470 </r>
       <r>     7.4810    54.4370   296.0557 </r>
       <r>     7.6887    52.3789   306.9370 </r>
       <r>     7.8964    56.6469   318.7048 </r>
       <r>     8.1042    52.6876   329.6502 </r>
       <r>     8.3119    50.0292   340.0433 </r>
       <r>     8.5197    53.2269   351.1007 </r>
       <r>     8.7274    44.7097   360.3887 </r>
       <r>     8.9351    30.1272   366.6474 </r>
       <r>     9.1429    26.1725   372.0844 </r>
       <r>     9.3506    20.1680   376.2742 </r>
       <r>     9.5584    13.9378   379.1696 </r>
       <r>     9.7661    14.8786   382.2605 </r>
       <r>     9.9738    27.3075   387.9334 </r>
       <r>    10.1816    30.1358   394.1938 </r>
       <r>    10.3893    21.1282   398.5830 </r>
       <r>    10.5971     7.2255   400.0840 </r>
       <r>    10.8048    -0.3943   400.0021 </r>
       <r>    11.0125    -0.0100   400.0000 </r>
       <r>    11.2203    -0.0000   400.0000 </r>
       <r>    11.4280    -0.0000   400.0000 </r>
       <r>    11.6358     0.0000   400.0000 </r>
       <r>    11.8435     0.0000   400.0000 </r>
       <r>    12.0512     0.0000   400.0000 </r>
       <r>    12.2590     0.0000   400.0000 </r>
       <r>    12.4667     0.0000   400.0000 </r>
       <r>    12.6745     0.0000   400.0000 </r>
       <r>    12.8822     0.0000   400.0000 </r>
       <r>    13.0899     0.0000   400.0000 </r>
       <r>    13.2977     0.0000   400.0000 </r>
      </set>
     </set>
    </array>
   </total>
  </dos>
 </calculation>
 <structure name="finalpos" >
  <crystal>
   <varray name="basis" >
    <v>       6.91772239      -0.00022533       0.01245326 </v>
    <v>      -0.00057083      10.32196901       0.00774183 </v>
    <v>       0.01888406       0.00736828      10.16887258 </v>
   </varray>
   <i name="volume">    726.10060270 </i>
   <varray name="rec_basis" >
    <v>       0.14455673       0.00000820      -0.00026845 </v>
    <v>       0.00000328       0.09688079      -0.00007021 </v>
    <v>      -0.00017703      -0.00007377       0.09833970 </v>
   </varray>
  </crystal>
  <varray name="positions" >
   <v>       0.26288838       0.17952784       0.83134503 </v>
   <v>       0.74955151       0.17191938       0.82344384 </v>
   <v>       0.00940609       0.99883570       0.99930074 </v>
   <v>       0.23188258       0.17748531       0.50297279 </v>
   <v>       0.26100180       0.50446390       0.17444117 </v>
   <v>       0.49664151       0.98570142       0.99045668 </v>
   <v>       0.73895726       0.16324234       0.17292467 </v>
   <v>       0.47403123      -0.00350902       0.34513227 </v>
   <v>       0.74010436       0.49461267       0.82612122 </v>
   <v>       0.49319257       0.67022751       0.65969777 </v>
   <v>       0.00150089       0.33892015       0.00882404 </v>
   <v>       0.99244405       0.65867693       0.99436479 </v>
   <v>       0.25336031       0.81292959       0.17435814 </v>
   <v>       0.76864576       0.17076894       0.50301755 </v>
   <v>       0.48757475       0.98895494       0.66623786 </v>
   <v>       0.74659425       0.82976284       0.17683034 </v>
   <v>       0.77719797       0.83965918       0.49703029 </v>
   <v>       0.23023637       0.50069143       0.49276852 </v>
   <v>       0.50833084       0.33700512       0.34024117 </v>
   <v>       0.25604766       0.49690551       0.82866350 </v>
   <v>       0.99003912       0.33375359       0.31535203 </v>
   <v>       0.00534785       0.34825954       0.67382660 </v>
   <v>       0.97610225       0.65762565       0.33098335 </v>
   <v>       0.22045981       0.82743075       0.49742702 </v>
   <v>       0.24393794       0.82369469       0.83370415 </v>
   <v>       0.49751612       0.34093148       0.00705508 </v>
   <v>       0.73326385       0.50098834       0.17260252 </v>
   <v>       0.75981943       0.82779776       0.82373819 </v>
   <v>       0.00417733       0.67106688       0.67579798 </v>
   <v>       0.50219314       0.67037220       0.98745090 </v>
   <v>       0.26352260       0.17980089       0.17067214 </v>
   <v>       0.02847744       0.00608392       0.32387182 </v>
   <v>       0.02108473       0.98599319       0.68033378 </v>
   <v>       0.76155340       0.49746958       0.49885683 </v>
   <v>       0.49852219       0.34641032       0.64846107 </v>
   <v>       0.51439966       0.66554454       0.35169119 </v>
  </varray>
 </structure>
</modeling>
