<?xml version="1.0" encoding="ISO-8859-1"?>
<modeling>
 <generator>
  <i name="program" type="string">vasp </i>
  <i name="version" type="string">5.4.1  </i>
  <i name="subversion" type="string">05Feb16 (build Jan 29 2020 16:04:39) complex                          parallel </i>
  <i name="platform" type="string">IFC91_ompi </i>
  <i name="date" type="string">2020 06 15 </i>
  <i name="time" type="string">04:18:05 </i>
 </generator>
 <incar>
  <i type="string" name="SYSTEM"> automatically generated by mexm</i>
  <i type="int" name="ISTART">     0</i>
  <i type="string" name="PREC">accurate               ! avoid wrap aro</i>
  <i type="string" name="ALGO"> Fast                   ! blocked Davids</i>
  <i type="int" name="ISPIN">     1</i>
  <i type="int" name="ICHARG">     2</i>
  <i type="int" name="NELM">    70</i>
  <i type="int" name="IBRION">     2</i>
  <i name="EDIFF">      0.00001000</i>
  <i name="EDIFFG">     -0.01000000</i>
  <i type="int" name="NSW">   300</i>
  <i type="int" name="ISIF">     3</i>
  <i type="int" name="ISYM">     1</i>
  <i name="ENCUT">    300.00000000</i>
  <i name="POTIM">      0.15000000</i>
  <i type="string" name="LREAL"> Auto                  ! unpublished met</i>
  <i type="int" name="ISMEAR">     1</i>
  <i name="SIGMA">      0.15000000</i>
  <i type="logical" name="LWAVE"> F  </i>
  <i type="logical" name="LCHARG"> F  </i>
  <i type="logical" name="LVTOT"> F  </i>
  <v type="int" name="KPOINT_BSE">    -1     0     0     0</v>
  <i type="int" name="NELM">    70</i>
 </incar>
 <kpoints>
  <generation param="Gamma">
   <v type="int" name="divisions">       3        3        3 </v>
   <v name="usershift">      0.00000000       0.00000000       0.00000000 </v>
   <v name="genvec1">      0.33333333      -0.00000000       0.00000000 </v>
   <v name="genvec2">      0.00000000       0.33333333      -0.00000000 </v>
   <v name="genvec3">      0.00000000      -0.00000000       0.33333333 </v>
   <v name="shift">      0.00000000       0.00000000       0.00000000 </v>
  </generation>
  <varray name="kpointlist" >
   <v>       0.00000000       0.00000000       0.00000000 </v>
   <v>       0.33333333      -0.00000000      -0.00000000 </v>
   <v>       0.00000000       0.33333333       0.00000000 </v>
   <v>       0.33333333       0.33333333      -0.00000000 </v>
   <v>      -0.33333333       0.33333333       0.00000000 </v>
   <v>       0.00000000      -0.00000000       0.33333333 </v>
   <v>       0.33333333      -0.00000000       0.33333333 </v>
   <v>      -0.33333333       0.00000000       0.33333333 </v>
   <v>      -0.00000000       0.33333333       0.33333333 </v>
   <v>       0.33333333       0.33333333       0.33333333 </v>
   <v>      -0.33333333       0.33333333       0.33333333 </v>
   <v>       0.00000000      -0.33333333       0.33333333 </v>
   <v>       0.33333333      -0.33333333       0.33333333 </v>
   <v>      -0.33333333      -0.33333333       0.33333333 </v>
  </varray>
  <varray name="weights" >
   <v>       0.03703704 </v>
   <v>       0.07407407 </v>
   <v>       0.07407407 </v>
   <v>       0.07407407 </v>
   <v>       0.07407407 </v>
   <v>       0.07407407 </v>
   <v>       0.07407407 </v>
   <v>       0.07407407 </v>
   <v>       0.07407407 </v>
   <v>       0.07407407 </v>
   <v>       0.07407407 </v>
   <v>       0.07407407 </v>
   <v>       0.07407407 </v>
   <v>       0.07407407 </v>
  </varray>
 </kpoints>
 <parameters>
  <separator name="general" >
   <i type="string" name="SYSTEM">automatically generated by mexm</i>
   <i type="logical" name="LCOMPAT"> F  </i>
  </separator>
  <separator name="electronic" >
   <i type="string" name="PREC">accura</i>
   <i name="ENMAX">    300.00000000</i>
   <i name="ENAUG">    461.25700000</i>
   <i name="EDIFF">      0.00001000</i>
   <i type="int" name="IALGO">    68</i>
   <i type="int" name="IWAVPR">    11</i>
   <i type="int" name="NBANDS">   196</i>
   <i name="NELECT">    328.00000000</i>
   <i type="int" name="TURBO">     0</i>
   <i type="int" name="IRESTART">     0</i>
   <i type="int" name="NREBOOT">     0</i>
   <i type="int" name="NMIN">     0</i>
   <i name="EREF">      0.00000000</i>
   <separator name="electronic smearing" >
    <i type="int" name="ISMEAR">     1</i>
    <i name="SIGMA">      0.15000000</i>
    <i name="KSPACING">      0.50000000</i>
    <i type="logical" name="KGAMMA"> T  </i>
   </separator>
   <separator name="electronic projectors" >
    <i type="logical" name="LREAL"> T  </i>
    <v name="ROPT">     -0.00025000     -0.00025000     -0.00025000     -0.00025000</v>
    <i type="int" name="LMAXPAW">  -100</i>
    <i type="int" name="LMAXMIX">     2</i>
    <i type="logical" name="NLSPLINE"> F  </i>
   </separator>
   <separator name="electronic startup" >
    <i type="int" name="ISTART">     0</i>
    <i type="int" name="ICHARG">     2</i>
    <i type="int" name="INIWAV">     1</i>
   </separator>
   <separator name="electronic spin" >
    <i type="int" name="ISPIN">     1</i>
    <i type="logical" name="LNONCOLLINEAR"> F  </i>
    <v name="MAGMOM">      1.00000000      1.00000000      1.00000000      1.00000000      1.00000000      1.00000000      1.00000000      1.00000000      1.00000000      1.00000000      1.00000000      1.00000000      1.00000000      1.00000000      1.00000000      1.00000000      1.00000000      1.00000000      1.00000000      1.00000000
      1.00000000      1.00000000      1.00000000      1.00000000      1.00000000      1.00000000      1.00000000      1.00000000      1.00000000      1.00000000      1.00000000      1.00000000      1.00000000      1.00000000      1.00000000      1.00000000</v>
    <i name="NUPDOWN">     -1.00000000</i>
    <i type="logical" name="LSORBIT"> F  </i>
    <v name="SAXIS">      0.00000000      0.00000000      1.00000000</v>
    <i type="logical" name="LSPIRAL"> F  </i>
    <v name="QSPIRAL">      0.00000000      0.00000000      0.00000000</v>
    <i type="logical" name="LZEROZ"> F  </i>
   </separator>
   <separator name="electronic exchange-correlation" >
    <i type="logical" name="LASPH"> F  </i>
    <i type="logical" name="LMETAGGA"> F  </i>
   </separator>
   <separator name="electronic convergence" >
    <i type="int" name="NELM">    70</i>
    <i type="int" name="NELMDL">    -5</i>
    <i type="int" name="NELMIN">     2</i>
    <i name="ENINI">    300.00000000</i>
    <separator name="electronic convergence detail" >
     <i type="logical" name="LDIAG"> T  </i>
     <i type="logical" name="LSUBROT"> F  </i>
     <i name="WEIMIN">      0.00100000</i>
     <i name="EBREAK">      0.00000001</i>
     <i name="DEPER">      0.30000000</i>
     <i type="int" name="NRMM">     4</i>
     <i name="TIME">      0.40000000</i>
    </separator>
   </separator>
   <separator name="electronic mixer" >
    <i name="AMIX">      0.40000000</i>
    <i name="BMIX">      1.00000000</i>
    <i name="AMIN">      0.10000000</i>
    <i name="AMIX_MAG">      1.60000000</i>
    <i name="BMIX_MAG">      1.00000000</i>
    <separator name="electronic mixer details" >
     <i type="int" name="IMIX">     4</i>
     <i type="logical" name="MIXFIRST"> F  </i>
     <i type="int" name="MAXMIX">   -45</i>
     <i name="WC">    100.00000000</i>
     <i type="int" name="INIMIX">     1</i>
     <i type="int" name="MIXPRE">     1</i>
     <i type="int" name="MREMOVE">     5</i>
    </separator>
   </separator>
   <separator name="electronic dipolcorrection" >
    <i type="logical" name="LDIPOL"> F  </i>
    <i type="logical" name="LMONO"> F  </i>
    <i type="int" name="IDIPOL">     0</i>
    <i name="EPSILON">      1.00000000</i>
    <v name="DIPOL">   -100.00000000   -100.00000000   -100.00000000</v>
    <i name="EFIELD">      0.00000000</i>
   </separator>
  </separator>
  <separator name="grids" >
   <i type="int" name="NGX">    40</i>
   <i type="int" name="NGY">    60</i>
   <i type="int" name="NGZ">    60</i>
   <i type="int" name="NGXF">    80</i>
   <i type="int" name="NGYF">   120</i>
   <i type="int" name="NGZF">   120</i>
   <i type="logical" name="ADDGRID"> F  </i>
  </separator>
  <separator name="ionic" >
   <i type="int" name="NSW">   300</i>
   <i type="int" name="IBRION">     2</i>
   <i type="int" name="ISIF">     3</i>
   <i name="PSTRESS">      0.00000000</i>
   <i name="EDIFFG">     -0.01000000</i>
   <i type="int" name="NFREE">     1</i>
   <i name="POTIM">      0.15000000</i>
   <i name="SMASS">     -3.00000000</i>
   <i name="SCALEE">      1.00000000</i>
  </separator>
  <separator name="ionic md" >
   <i name="TEBEG">      0.00010000</i>
   <i name="TEEND">      0.00010000</i>
   <i type="int" name="NBLOCK">     1</i>
   <i type="int" name="KBLOCK">   300</i>
   <i type="int" name="NPACO">   256</i>
   <i name="APACO">     16.00000000</i>
  </separator>
  <separator name="symmetry" >
   <i type="int" name="ISYM">     1</i>
   <i name="SYMPREC">      0.00001000</i>
  </separator>
  <separator name="dos" >
   <i type="logical" name="LORBIT"> F  </i>
   <v name="RWIGS">     -1.00000000     -1.00000000     -1.00000000     -1.00000000</v>
   <i type="int" name="NEDOS">   301</i>
   <i name="EMIN">     10.00000000</i>
   <i name="EMAX">    -10.00000000</i>
   <i name="EFERMI">      0.00000000</i>
  </separator>
  <separator name="writing" >
   <i type="int" name="NWRITE">     2</i>
   <i type="logical" name="LWAVE"> F  </i>
   <i type="logical" name="LCHARG"> F  </i>
   <i type="logical" name="LPARD"> F  </i>
   <i type="logical" name="LVTOT"> F  </i>
   <i type="logical" name="LVHAR"> F  </i>
   <i type="logical" name="LELF"> F  </i>
   <i type="logical" name="LOPTICS"> F  </i>
   <v name="STM">      0.00000000      0.00000000      0.00000000      0.00000000      0.00000000      0.00000000      0.00000000</v>
  </separator>
  <separator name="performance" >
   <i type="int" name="NPAR">     4</i>
   <i type="int" name="NSIM">     4</i>
   <i type="int" name="NBLK">    -1</i>
   <i type="logical" name="LPLANE"> T  </i>
   <i type="logical" name="LSCALAPACK"> T  </i>
   <i type="logical" name="LSCAAWARE"> F  </i>
   <i type="logical" name="LSCALU"> F  </i>
   <i type="logical" name="LASYNC"> F  </i>
   <i type="logical" name="LORBITALREAL"> F  </i>
  </separator>
  <separator name="miscellaneous" >
   <i type="int" name="IDIOT">     3</i>
   <i type="logical" name="LMUSIC"> F  </i>
   <v name="POMASS">    178.49000000     91.22400000     92.91000000    180.94800000</v>
   <v name="DARWINR">      0.00000000      0.00000000      0.00000000      0.00000000</v>
   <v name="DARWINV">      1.00000000      1.00000000      1.00000000      1.00000000</v>
   <i type="logical" name="LCORR"> T  </i>
  </separator>
  <i type="logical" name="GGA_COMPAT"> T  </i>
  <i type="logical" name="LBERRY"> F  </i>
  <i type="int" name="ICORELEVEL">     0</i>
  <i type="logical" name="LDAU"> F  </i>
  <i type="int" name="I_CONSTRAINED_M">     0</i>
  <separator name="electronic exchange-correlation" >
   <i type="string" name="GGA">--</i>
   <i type="int" name="VOSKOWN">     0</i>
   <i type="logical" name="LHFCALC"> F  </i>
   <i type="string" name="PRECFOCK"></i>
   <i type="logical" name="LSYMGRAD"> F  </i>
   <i type="logical" name="LHFONE"> F  </i>
   <i type="logical" name="LRHFCALC"> F  </i>
   <i type="logical" name="LTHOMAS"> F  </i>
   <i type="logical" name="LMODELHF"> F  </i>
   <i name="ENCUT4O">     -1.00000000</i>
   <i type="int" name="EXXOEP">     0</i>
   <i type="int" name="FOURORBIT">     0</i>
   <i name="AEXX">      0.00000000</i>
   <i name="HFALPHA">      0.00000000</i>
   <i name="MCALPHA">      0.00000000</i>
   <i name="ALDAX">      1.00000000</i>
   <i name="AGGAX">      1.00000000</i>
   <i name="ALDAC">      1.00000000</i>
   <i name="AGGAC">      1.00000000</i>
   <i type="int" name="NKREDX">     1</i>
   <i type="int" name="NKREDY">     1</i>
   <i type="int" name="NKREDZ">     1</i>
   <i type="logical" name="SHIFTRED"> F  </i>
   <i type="logical" name="ODDONLY"> F  </i>
   <i type="logical" name="EVENONLY"> F  </i>
   <i type="int" name="LMAXFOCK">     0</i>
   <i type="int" name="NMAXFOCKAE">     0</i>
   <i type="logical" name="LFOCKAEDFT"> F  </i>
   <i name="HFSCREEN">      0.00000000</i>
   <i name="HFSCREENC">      0.00000000</i>
   <i type="int" name="NBANDSGWLOW">     0</i>
  </separator>
  <separator name="vdW DFT" >
   <i type="logical" name="LUSE_VDW"> F  </i>
   <i name="Zab_VDW">     -0.84910000</i>
   <i name="PARAM1">      0.12340000</i>
   <i name="PARAM2">      1.00000000</i>
   <i name="PARAM3">      0.00000000</i>
  </separator>
  <separator name="model GW" >
   <i type="int" name="MODEL_GW">     0</i>
   <i name="MODEL_EPS0">     12.18916551</i>
   <i name="MODEL_ALPHA">      1.00000000</i>
  </separator>
  <separator name="linear response parameters" >
   <i type="logical" name="LEPSILON"> F  </i>
   <i type="logical" name="LRPA"> F  </i>
   <i type="logical" name="LNABLA"> F  </i>
   <i type="logical" name="LVEL"> F  </i>
   <i type="int" name="KINTER">     0</i>
   <i name="CSHIFT">      0.10000000</i>
   <i name="OMEGAMAX">     -1.00000000</i>
   <i name="DEG_THRESHOLD">      0.00200000</i>
  </separator>
  <separator name="orbital magnetization" >
   <i type="logical" name="NUCIND"> F  </i>
   <v name="MAGPOS">      0.00000000      0.00000000      0.00000000</v>
   <i type="logical" name="LNICSALL"> T  </i>
   <i type="logical" name="ORBITALMAG"> F  </i>
   <i type="logical" name="LMAGBLOCH"> F  </i>
   <i type="logical" name="LCHIMAG"> F  </i>
   <i type="logical" name="LGAUGE"> T  </i>
   <i type="int" name="MAGATOM">     0</i>
   <v name="MAGDIPOL">      0.00000000      0.00000000      0.00000000</v>
   <v name="AVECCONST">      0.00000000      0.00000000      0.00000000</v>
  </separator>
  <separator name="response functions" >
   <i type="logical" name="LADDER"> F  </i>
   <i type="logical" name="LFXC"> F  </i>
   <i type="logical" name="LHARTREE"> T  </i>
   <i type="int" name="IBSE">     0</i>
   <v type="int" name="KPOINT">    -1     0     0     0</v>
   <i type="logical" name="LTCTE"> F  </i>
   <i type="logical" name="LTETE"> F  </i>
   <i type="logical" name="LTRIPLET"> F  </i>
   <i type="logical" name="LFXCEPS"> F  </i>
   <i type="logical" name="LFXHEG"> F  </i>
   <i type="int" name="NATURALO">     0</i>
   <i type="logical" name="L2ORDER"> F  </i>
   <i type="logical" name="LUSEW"> F  </i>
   <i name="ENCUTGW">     -2.00000000</i>
   <i name="ENCUTGWSOFT">     -2.00000000</i>
   <i name="ENCUTLF">     -1.00000000</i>
   <i type="int" name="LMAXMP2">    -1</i>
   <i name="SCISSOR">      0.00000000</i>
   <i type="int" name="NOMEGA">     0</i>
   <i type="int" name="NOMEGAR">     0</i>
   <i type="int" name="NBANDSGW">    -1</i>
   <i type="int" name="NBANDSO">    -1</i>
   <i type="int" name="NBANDSV">    -1</i>
   <i type="int" name="NELM">    70</i>
   <i type="int" name="NELMHF">     1</i>
   <i type="int" name="DIM">     3</i>
   <i type="int" name="ANTIRES">     0</i>
   <i name="OMEGAMAX">    -30.00000000</i>
   <i name="OMEGAMIN">    -30.00000000</i>
   <i name="OMEGATL">   -200.00000000</i>
   <i type="int" name="OMEGAGRID">     0</i>
   <i name="CSHIFT">     -0.10000000</i>
   <i type="logical" name="SELFENERGY"> F  </i>
   <i type="logical" name="LSPECTRAL"> F  </i>
   <i type="logical" name="LSPECTRALGW"> F  </i>
   <i type="logical" name="LSINGLES"> F  </i>
   <i type="logical" name="LFERMIGW"> F  </i>
   <i type="logical" name="ODDONLYGW"> F  </i>
   <i type="logical" name="EVENONLYGW"> F  </i>
   <i type="int" name="NKREDLFX">     1</i>
   <i type="int" name="NKREDLFY">     1</i>
   <i type="int" name="NKREDLFZ">     1</i>
   <i type="int" name="MAXMEM">  1800</i>
   <i type="int" name="TELESCOPE">     0</i>
   <i type="int" name="TAUPAR">     1</i>
   <i type="int" name="OMEGAPAR">    -1</i>
   <i name="LAMBDA">      1.00000000</i>
  </separator>
  <separator name="External order field" >
   <i name="OFIELD_KAPPA">      0.00000000</i>
   <v name="OFIELD_K">      0.00000000      0.00000000      0.00000000</v>
   <i name="OFIELD_Q6_NEAR">      0.00000000</i>
   <i name="OFIELD_Q6_FAR">      0.00000000</i>
   <i name="OFIELD_A">      0.00000000</i>
  </separator>
 </parameters>
 <atominfo>
  <atoms>      36 </atoms>
  <types>       4 </types>
  <array name="atoms" >
   <dimension dim="1">ion</dimension>
   <field type="string">element</field>
   <field type="int">atomtype</field>
   <set>
    <rc><c>Hf</c><c>   1</c></rc>
    <rc><c>Hf</c><c>   1</c></rc>
    <rc><c>Hf</c><c>   1</c></rc>
    <rc><c>Hf</c><c>   1</c></rc>
    <rc><c>Hf</c><c>   1</c></rc>
    <rc><c>Hf</c><c>   1</c></rc>
    <rc><c>Hf</c><c>   1</c></rc>
    <rc><c>Hf</c><c>   1</c></rc>
    <rc><c>Hf</c><c>   1</c></rc>
    <rc><c>Zr</c><c>   2</c></rc>
    <rc><c>Zr</c><c>   2</c></rc>
    <rc><c>Zr</c><c>   2</c></rc>
    <rc><c>Zr</c><c>   2</c></rc>
    <rc><c>Zr</c><c>   2</c></rc>
    <rc><c>Zr</c><c>   2</c></rc>
    <rc><c>Zr</c><c>   2</c></rc>
    <rc><c>Zr</c><c>   2</c></rc>
    <rc><c>Zr</c><c>   2</c></rc>
    <rc><c>Zr</c><c>   2</c></rc>
    <rc><c>Zr</c><c>   2</c></rc>
    <rc><c>Nb</c><c>   3</c></rc>
    <rc><c>Nb</c><c>   3</c></rc>
    <rc><c>Nb</c><c>   3</c></rc>
    <rc><c>Nb</c><c>   3</c></rc>
    <rc><c>Nb</c><c>   3</c></rc>
    <rc><c>Nb</c><c>   3</c></rc>
    <rc><c>Nb</c><c>   3</c></rc>
    <rc><c>Nb</c><c>   3</c></rc>
    <rc><c>Nb</c><c>   3</c></rc>
    <rc><c>Nb</c><c>   3</c></rc>
    <rc><c>Ta</c><c>   4</c></rc>
    <rc><c>Ta</c><c>   4</c></rc>
    <rc><c>Ta</c><c>   4</c></rc>
    <rc><c>Ta</c><c>   4</c></rc>
    <rc><c>Ta</c><c>   4</c></rc>
    <rc><c>Ta</c><c>   4</c></rc>
   </set>
  </array>
  <array name="atomtypes" >
   <dimension dim="1">type</dimension>
   <field type="int">atomspertype</field>
   <field type="string">element</field>
   <field>mass</field>
   <field>valence</field>
   <field type="string">pseudopotential</field>
   <set>
    <rc><c>   9</c><c>Hf</c><c>    178.49000000</c><c>      4.00000000</c><c>  PAW_PBE Hf 20Jan2003                  </c></rc>
    <rc><c>  11</c><c>Zr</c><c>     91.22400000</c><c>     12.00000000</c><c>  PAW_PBE Zr_sv 04Jan2005               </c></rc>
    <rc><c>  10</c><c>Nb</c><c>     92.91000000</c><c>     13.00000000</c><c>  PAW_PBE Nb_sv 25May2007               </c></rc>
    <rc><c>   6</c><c>Ta</c><c>    180.94800000</c><c>      5.00000000</c><c>  PAW_PBE Ta 17Jan2003                  </c></rc>
   </set>
  </array>
 </atominfo>
 <structure name="initialpos" >
  <crystal>
   <varray name="basis" >
    <v>       6.94105379       0.01011130      -0.01102417 </v>
    <v>       0.01455589      10.31113108       0.01137834 </v>
    <v>      -0.01563336       0.01104412      10.21870767 </v>
   </varray>
   <i name="volume">    731.34993073 </i>
   <varray name="rec_basis" >
    <v>       0.14407099      -0.00020362       0.00022063 </v>
    <v>      -0.00014145       0.09698289      -0.00010503 </v>
    <v>       0.00015558      -0.00010821       0.09786009 </v>
   </varray>
  </crystal>
  <varray name="positions" >
   <v>       0.99329900       0.34775200       0.01121600 </v>
   <v>       0.99427800       0.66085100       0.98850600 </v>
   <v>       0.25027500       0.82095700       0.16930600 </v>
   <v>       0.48008200       0.99832600       0.66566600 </v>
   <v>       0.75172600       0.82487700       0.18079700 </v>
   <v>       0.77079500       0.83994300       0.49913900 </v>
   <v>       0.24158000       0.49518500       0.48892700 </v>
   <v>       0.00971200       0.66577900       0.67446400 </v>
   <v>       0.75364800       0.49562100       0.49300900 </v>
   <v>       0.26629300       0.17531200       0.16560400 </v>
   <v>       0.99269000       0.99447800       0.99166000 </v>
   <v>       0.76508900       0.16722300       0.50059500 </v>
   <v>       0.25022000       0.17810100       0.83467400 </v>
   <v>       0.75252900       0.17427700       0.82517200 </v>
   <v>       0.25973000       0.50814100       0.17571400 </v>
   <v>       0.51600800       0.98120600       0.98799800 </v>
   <v>       0.73771900       0.17083600       0.17157600 </v>
   <v>       0.47087000       0.99715200       0.34996300 </v>
   <v>       0.73634700       0.48533600       0.82037400 </v>
   <v>       0.49038500       0.67103000       0.66557800 </v>
   <v>       0.23187700       0.17629700       0.50457900 </v>
   <v>       0.50846000       0.34075600       0.34194100 </v>
   <v>       0.26535100       0.48844500       0.83135400 </v>
   <v>       0.98942900       0.33739800       0.32077100 </v>
   <v>       0.01097300       0.33845800       0.66140800 </v>
   <v>       0.98744400       0.66134300       0.34019200 </v>
   <v>       0.22326700       0.82912000       0.49551900 </v>
   <v>       0.25224800       0.82978000       0.84499100 </v>
   <v>       0.50463800       0.35226300       0.00016000 </v>
   <v>       0.75369600       0.83263000       0.81913600 </v>
   <v>       0.73644700       0.51011000       0.17660400 </v>
   <v>       0.50598800       0.66800800       0.99005300 </v>
   <v>       0.02742300       0.00512200       0.33896500 </v>
   <v>       0.02326200       0.98770600       0.67373500 </v>
   <v>       0.48656600       0.32515000       0.65202300 </v>
   <v>       0.50966100       0.66503300       0.34863500 </v>
  </varray>
 </structure>
 <calculation>
  <scstep>
   <time name="dav">    1.24    1.25</time>
   <time name="total">    1.31    1.67</time>
   <energy>
    <i name="alphaZ">   1692.05225426 </i>
    <i name="ewald"> -23997.21542783 </i>
    <i name="hartreedc">  -7776.79346401 </i>
    <i name="XCdc">    240.72634789 </i>
    <i name="pawpsdc">  25630.28267656 </i>
    <i name="pawaedc"> -24259.43879658 </i>
    <i name="eentropy">      0.01392204 </i>
    <i name="bandstr">   -326.39738939 </i>
    <i name="atom">  31144.04451113 </i>
    <i name="e_fr_energy">   2347.27463407 </i>
    <i name="e_wo_entrp">   2347.26071202 </i>
    <i name="e_0_energy">   2347.26999339 </i>
   </energy>
  </scstep>
  <scstep>
   <time name="dav">    1.18    1.19</time>
   <time name="total">    1.18    1.40</time>
   <energy>
    <i name="e_fr_energy">    -28.98720089 </i>
    <i name="e_wo_entrp">    -28.99750001 </i>
    <i name="e_0_energy">    -28.99063393 </i>
   </energy>
  </scstep>
  <scstep>
   <time name="dav">    1.51    1.60</time>
   <time name="total">    1.52    1.66</time>
   <energy>
    <i name="e_fr_energy">   -327.01512732 </i>
    <i name="e_wo_entrp">   -327.02588358 </i>
    <i name="e_0_energy">   -327.01871274 </i>
   </energy>
  </scstep>
  <scstep>
   <time name="dav">    1.63    1.66</time>
   <time name="total">    1.64    1.69</time>
   <energy>
    <i name="e_fr_energy">   -363.38351640 </i>
    <i name="e_wo_entrp">   -363.40265400 </i>
    <i name="e_0_energy">   -363.38989560 </i>
   </energy>
  </scstep>
  <scstep>
   <time name="dav">    1.57    1.58</time>
   <time name="total">    1.62    1.69</time>
   <energy>
    <i name="e_fr_energy">   -367.14606524 </i>
    <i name="e_wo_entrp">   -367.16384515 </i>
    <i name="e_0_energy">   -367.15199188 </i>
   </energy>
  </scstep>
  <scstep>
   <time name="diag">    0.11    0.11</time>
   <time name="diis">    0.83    0.83</time>
   <time name="orth">    0.02    0.02</time>
   <time name="total">    1.04    1.11</time>
   <energy>
    <i name="e_fr_energy">   -357.74759300 </i>
    <i name="e_wo_entrp">   -357.74562072 </i>
    <i name="e_0_energy">   -357.74693557 </i>
   </energy>
  </scstep>
  <scstep>
   <time name="diag">    0.11    0.12</time>
   <time name="diis">    0.88    0.88</time>
   <time name="orth">    0.02    0.02</time>
   <time name="total">    1.06    1.16</time>
   <energy>
    <i name="e_fr_energy">   -363.86837271 </i>
    <i name="e_wo_entrp">   -363.85983833 </i>
    <i name="e_0_energy">   -363.86552792 </i>
   </energy>
  </scstep>
  <scstep>
   <time name="diag">    0.12    0.12</time>
   <time name="diis">    0.86    0.87</time>
   <time name="orth">    0.02    0.02</time>
   <time name="total">    1.07    1.15</time>
   <energy>
    <i name="e_fr_energy">   -353.26079883 </i>
    <i name="e_wo_entrp">   -353.27311229 </i>
    <i name="e_0_energy">   -353.26490332 </i>
   </energy>
  </scstep>
  <scstep>
   <time name="diag">    0.09    0.09</time>
   <time name="diis">    0.87    0.87</time>
   <time name="orth">    0.02    0.02</time>
   <time name="total">    1.05    1.11</time>
   <energy>
    <i name="e_fr_energy">   -352.81536427 </i>
    <i name="e_wo_entrp">   -352.81977193 </i>
    <i name="e_0_energy">   -352.81683349 </i>
   </energy>
  </scstep>
  <scstep>
   <time name="diag">    0.15    0.15</time>
   <time name="diis">    0.90    0.92</time>
   <time name="orth">    0.01    0.01</time>
   <time name="total">    1.15    1.23</time>
   <energy>
    <i name="e_fr_energy">   -352.81866736 </i>
    <i name="e_wo_entrp">   -352.82163411 </i>
    <i name="e_0_energy">   -352.81965628 </i>
   </energy>
  </scstep>
  <scstep>
   <time name="diag">    0.09    0.09</time>
   <time name="diis">    0.81    0.82</time>
   <time name="orth">    0.02    0.02</time>
   <time name="total">    0.98    1.03</time>
   <energy>
    <i name="e_fr_energy">   -352.77508167 </i>
    <i name="e_wo_entrp">   -352.77993524 </i>
    <i name="e_0_energy">   -352.77669952 </i>
   </energy>
  </scstep>
  <scstep>
   <time name="diag">    0.09    0.09</time>
   <time name="diis">    0.83    0.83</time>
   <time name="orth">    0.01    0.01</time>
   <time name="total">    1.00    1.05</time>
   <energy>
    <i name="e_fr_energy">   -352.76028250 </i>
    <i name="e_wo_entrp">   -352.76500803 </i>
    <i name="e_0_energy">   -352.76185768 </i>
   </energy>
  </scstep>
  <scstep>
   <time name="diag">    0.09    0.09</time>
   <time name="diis">    0.91    0.91</time>
   <time name="orth">    0.02    0.02</time>
   <time name="total">    1.08    1.13</time>
   <energy>
    <i name="e_fr_energy">   -352.75545671 </i>
    <i name="e_wo_entrp">   -352.75966403 </i>
    <i name="e_0_energy">   -352.75685915 </i>
   </energy>
  </scstep>
  <scstep>
   <time name="diag">    0.09    0.09</time>
   <time name="diis">    0.84    0.85</time>
   <time name="orth">    0.01    0.01</time>
   <time name="total">    1.02    1.07</time>
   <energy>
    <i name="e_fr_energy">   -352.75517329 </i>
    <i name="e_wo_entrp">   -352.75983782 </i>
    <i name="e_0_energy">   -352.75672814 </i>
   </energy>
  </scstep>
  <scstep>
   <time name="diag">    0.09    0.09</time>
   <time name="diis">    0.88    0.89</time>
   <time name="orth">    0.02    0.02</time>
   <time name="total">    1.05    1.11</time>
   <energy>
    <i name="e_fr_energy">   -352.75525948 </i>
    <i name="e_wo_entrp">   -352.75953016 </i>
    <i name="e_0_energy">   -352.75668304 </i>
   </energy>
  </scstep>
  <scstep>
   <time name="diag">    0.09    0.09</time>
   <time name="diis">    0.83    0.83</time>
   <time name="orth">    0.01    0.01</time>
   <time name="total">    0.99    1.04</time>
   <energy>
    <i name="e_fr_energy">   -352.75535366 </i>
    <i name="e_wo_entrp">   -352.75978958 </i>
    <i name="e_0_energy">   -352.75683230 </i>
   </energy>
  </scstep>
  <scstep>
   <time name="diag">    0.09    0.09</time>
   <time name="diis">    0.78    0.79</time>
   <time name="orth">    0.03    0.03</time>
   <time name="total">    0.98    1.03</time>
   <energy>
    <i name="e_fr_energy">   -352.75537290 </i>
    <i name="e_wo_entrp">   -352.75972035 </i>
    <i name="e_0_energy">   -352.75682205 </i>
   </energy>
  </scstep>
  <scstep>
   <time name="diag">    0.09    0.09</time>
   <time name="diis">    0.66    0.66</time>
   <time name="orth">    0.01    0.01</time>
   <time name="total">    0.83    0.88</time>
   <energy>
    <i name="e_fr_energy">   -352.75537282 </i>
    <i name="e_wo_entrp">   -352.75978314 </i>
    <i name="e_0_energy">   -352.75684293 </i>
   </energy>
  </scstep>
  <scstep>
   <time name="diag">    0.09    0.09</time>
   <time name="diis">    0.61    0.62</time>
   <time name="orth">    0.02    0.02</time>
   <time name="total">    0.89    0.94</time>
   <energy>
    <i name="e_fr_energy">   -352.75538265 </i>
    <i name="e_wo_entrp">   -352.75980644 </i>
    <i name="e_0_energy">   -352.75685725 </i>
   </energy>
  </scstep>
  <scstep>
   <time name="diag">    0.09    0.09</time>
   <time name="diis">    0.53    0.55</time>
   <time name="orth">    0.01    0.01</time>
   <time name="total">    0.66    0.76</time>
   <energy>
    <i name="alphaZ">   1692.05225426 </i>
    <i name="ewald"> -23997.21542783 </i>
    <i name="hartreedc">  -7494.99147378 </i>
    <i name="XCdc">    234.68980782 </i>
    <i name="pawpsdc">  38740.40499109 </i>
    <i name="pawaedc"> -37338.48445660 </i>
    <i name="eentropy">      0.00441228 </i>
    <i name="bandstr">  -3333.26000430 </i>
    <i name="atom">  31144.04451113 </i>
    <i name="e_fr_energy">   -352.75538594 </i>
    <i name="e_wo_entrp">   -352.75979822 </i>
    <i name="e_0_energy">   -352.75685670 </i>
   </energy>
  </scstep>
  <structure>
   <crystal>
    <varray name="basis" >
     <v>       6.94105379       0.01011130      -0.01102417 </v>
     <v>       0.01455589      10.31113108       0.01137834 </v>
     <v>      -0.01563336       0.01104412      10.21870767 </v>
    </varray>
    <i name="volume">    731.34993073 </i>
    <varray name="rec_basis" >
     <v>       0.14407099      -0.00020362       0.00022063 </v>
     <v>      -0.00014145       0.09698289      -0.00010503 </v>
     <v>       0.00015558      -0.00010821       0.09786009 </v>
    </varray>
   </crystal>
   <varray name="positions" >
    <v>       0.99329900       0.34775200       0.01121600 </v>
    <v>       0.99427800       0.66085100       0.98850600 </v>
    <v>       0.25027500       0.82095700       0.16930600 </v>
    <v>       0.48008200       0.99832600       0.66566600 </v>
    <v>       0.75172600       0.82487700       0.18079700 </v>
    <v>       0.77079500       0.83994300       0.49913900 </v>
    <v>       0.24158000       0.49518500       0.48892700 </v>
    <v>       0.00971200       0.66577900       0.67446400 </v>
    <v>       0.75364800       0.49562100       0.49300900 </v>
    <v>       0.26629300       0.17531200       0.16560400 </v>
    <v>       0.99269000       0.99447800       0.99166000 </v>
    <v>       0.76508900       0.16722300       0.50059500 </v>
    <v>       0.25022000       0.17810100       0.83467400 </v>
    <v>       0.75252900       0.17427700       0.82517200 </v>
    <v>       0.25973000       0.50814100       0.17571400 </v>
    <v>       0.51600800       0.98120600       0.98799800 </v>
    <v>       0.73771900       0.17083600       0.17157600 </v>
    <v>       0.47087000       0.99715200       0.34996300 </v>
    <v>       0.73634700       0.48533600       0.82037400 </v>
    <v>       0.49038500       0.67103000       0.66557800 </v>
    <v>       0.23187700       0.17629700       0.50457900 </v>
    <v>       0.50846000       0.34075600       0.34194100 </v>
    <v>       0.26535100       0.48844500       0.83135400 </v>
    <v>       0.98942900       0.33739800       0.32077100 </v>
    <v>       0.01097300       0.33845800       0.66140800 </v>
    <v>       0.98744400       0.66134300       0.34019200 </v>
    <v>       0.22326700       0.82912000       0.49551900 </v>
    <v>       0.25224800       0.82978000       0.84499100 </v>
    <v>       0.50463800       0.35226300       0.00016000 </v>
    <v>       0.75369600       0.83263000       0.81913600 </v>
    <v>       0.73644700       0.51011000       0.17660400 </v>
    <v>       0.50598800       0.66800800       0.99005300 </v>
    <v>       0.02742300       0.00512200       0.33896500 </v>
    <v>       0.02326200       0.98770600       0.67373500 </v>
    <v>       0.48656600       0.32515000       0.65202300 </v>
    <v>       0.50966100       0.66503300       0.34863500 </v>
   </varray>
  </structure>
  <varray name="forces" >
   <v>       0.01325682       0.00234491       0.01673788 </v>
   <v>       0.01334093       0.00591186       0.01247900 </v>
   <v>       0.00387972      -0.02070149       0.01773781 </v>
   <v>      -0.01325382      -0.00395568       0.01502347 </v>
   <v>       0.02400325      -0.01329889       0.01302358 </v>
   <v>      -0.01648615       0.04191448       0.02104581 </v>
   <v>       0.01076579       0.00902314       0.08489822 </v>
   <v>       0.21821884       0.16628012       0.20364617 </v>
   <v>       0.12051162      -0.04926238       0.31672712 </v>
   <v>       0.00372181      -0.00174244       0.01601322 </v>
   <v>      -0.00190296       0.00208635      -0.00219535 </v>
   <v>      -0.00576563      -0.02817523      -0.01747221 </v>
   <v>       0.00623995      -0.00598582      -0.02154963 </v>
   <v>       0.00193936       0.00764210      -0.01783783 </v>
   <v>       0.00241445       0.01202610       0.02319346 </v>
   <v>       0.00478911      -0.00002016      -0.00265859 </v>
   <v>      -0.00219623       0.00851942       0.03943101 </v>
   <v>       0.00699649       0.01136880      -0.03265512 </v>
   <v>       0.02265153       0.04256987       0.08178283 </v>
   <v>      -0.20133129       0.18005450       0.13115991 </v>
   <v>      -0.02374559       0.01576290       0.01936096 </v>
   <v>      -0.31545652      -0.34219892      -0.24296458 </v>
   <v>       0.00186472       0.03273214      -0.03129300 </v>
   <v>       0.19671288      -0.22737483      -0.36743320 </v>
   <v>       0.40177548      -0.19090044       0.32186989 </v>
   <v>       0.24447512       0.33035536      -0.39456337 </v>
   <v>      -0.02100104      -0.01633508       0.01804818 </v>
   <v>       0.01573836      -0.02641479      -0.03246020 </v>
   <v>      -0.04400926      -0.00111413      -0.02199768 </v>
   <v>      -0.00957264      -0.03563485      -0.03011682 </v>
   <v>       0.04198441      -0.04717719       0.04147999 </v>
   <v>      -0.03855034       0.00779441      -0.00133079 </v>
   <v>       0.00218460      -0.01967556      -0.00526949 </v>
   <v>       0.01827595       0.00295764      -0.00570534 </v>
   <v>      -0.33613498      -0.28473978       0.12049504 </v>
   <v>      -0.34633472       0.43536355      -0.28665033 </v>
  </varray>
  <varray name="stress" >
   <v>       8.25466524       0.12908495       0.67140696 </v>
   <v>       0.12908492       6.90815855      -0.50195592 </v>
   <v>       0.67140700      -0.50195599       6.40498262 </v>
  </varray>
  <energy>
   <i name="e_fr_energy">   -352.75538594 </i>
   <i name="e_wo_entrp">   -352.75685670 </i>
   <i name="e_0_energy">      0.00441228 </i>
  </energy>
  <time name="totalsc">   23.81   25.74</time>
 </calculation>
 <calculation>
  <scstep>
   <time name="dav">    1.26    1.27</time>
   <time name="total">    1.33    1.55</time>
   <energy>
    <i name="alphaZ">   1685.37291682 </i>
    <i name="ewald"> -23961.45473531 </i>
    <i name="hartreedc">  -7489.16843778 </i>
    <i name="XCdc">    233.27234480 </i>
    <i name="pawpsdc">  38740.69948740 </i>
    <i name="pawaedc"> -37338.77171064 </i>
    <i name="eentropy">      0.00407475 </i>
    <i name="bandstr">  -3366.82552565 </i>
    <i name="atom">  31144.04451113 </i>
    <i name="e_fr_energy">   -352.82707448 </i>
    <i name="e_wo_entrp">   -352.83114923 </i>
    <i name="e_0_energy">   -352.82843273 </i>
   </energy>
  </scstep>
  <scstep>
   <time name="diag">    0.09    0.09</time>
   <time name="diis">    0.78    0.79</time>
   <time name="orth">    0.01    0.01</time>
   <time name="total">    0.99    1.03</time>
   <energy>
    <i name="e_fr_energy">   -352.80882272 </i>
    <i name="e_wo_entrp">   -352.81339596 </i>
    <i name="e_0_energy">   -352.81034713 </i>
   </energy>
  </scstep>
  <scstep>
   <time name="diag">    0.10    0.10</time>
   <time name="diis">    0.88    0.89</time>
   <time name="orth">    0.01    0.01</time>
   <time name="total">    1.06    1.12</time>
   <energy>
    <i name="e_fr_energy">   -352.80105899 </i>
    <i name="e_wo_entrp">   -352.80671751 </i>
    <i name="e_0_energy">   -352.80294516 </i>
   </energy>
  </scstep>
  <scstep>
   <time name="diag">    0.09    0.09</time>
   <time name="diis">    0.84    0.85</time>
   <time name="orth">    0.01    0.01</time>
   <time name="total">    1.02    1.07</time>
   <energy>
    <i name="e_fr_energy">   -352.79362213 </i>
    <i name="e_wo_entrp">   -352.79841962 </i>
    <i name="e_0_energy">   -352.79522130 </i>
   </energy>
  </scstep>
  <scstep>
   <time name="diag">    0.09    0.09</time>
   <time name="diis">    0.88    0.88</time>
   <time name="orth">    0.01    0.01</time>
   <time name="total">    1.05    1.10</time>
   <energy>
    <i name="e_fr_energy">   -352.79236415 </i>
    <i name="e_wo_entrp">   -352.79749422 </i>
    <i name="e_0_energy">   -352.79407417 </i>
   </energy>
  </scstep>
  <scstep>
   <time name="diag">    0.09    0.09</time>
   <time name="diis">    0.86    0.87</time>
   <time name="orth">    0.01    0.01</time>
   <time name="total">    1.03    1.08</time>
   <energy>
    <i name="e_fr_energy">   -352.79234182 </i>
    <i name="e_wo_entrp">   -352.79748614 </i>
    <i name="e_0_energy">   -352.79405659 </i>
   </energy>
  </scstep>
  <scstep>
   <time name="diag">    0.09    0.09</time>
   <time name="diis">    0.83    0.84</time>
   <time name="orth">    0.04    0.04</time>
   <time name="total">    1.03    1.08</time>
   <energy>
    <i name="e_fr_energy">   -352.79235697 </i>
    <i name="e_wo_entrp">   -352.79736457 </i>
    <i name="e_0_energy">   -352.79402617 </i>
   </energy>
  </scstep>
  <scstep>
   <time name="diag">    0.09    0.09</time>
   <time name="diis">    0.77    0.77</time>
   <time name="orth">    0.02    0.02</time>
   <time name="total">    0.95    1.00</time>
   <energy>
    <i name="e_fr_energy">   -352.79238027 </i>
    <i name="e_wo_entrp">   -352.79745712 </i>
    <i name="e_0_energy">   -352.79407256 </i>
   </energy>
  </scstep>
  <scstep>
   <time name="diag">    0.09    0.09</time>
   <time name="diis">    0.64    0.66</time>
   <time name="orth">    0.02    0.02</time>
   <time name="total">    0.81    0.89</time>
   <energy>
    <i name="e_fr_energy">   -352.79239601 </i>
    <i name="e_wo_entrp">   -352.79747417 </i>
    <i name="e_0_energy">   -352.79408873 </i>
   </energy>
  </scstep>
  <scstep>
   <time name="diag">    0.09    0.09</time>
   <time name="diis">    0.58    0.59</time>
   <time name="orth">    0.01    0.01</time>
   <time name="total">    0.75    0.80</time>
   <energy>
    <i name="e_fr_energy">   -352.79241146 </i>
    <i name="e_wo_entrp">   -352.79746777 </i>
    <i name="e_0_energy">   -352.79409690 </i>
   </energy>
  </scstep>
  <scstep>
   <time name="diag">    0.16    0.16</time>
   <time name="diis">    0.57    0.57</time>
   <time name="orth">    0.01    0.01</time>
   <time name="total">    0.79    0.87</time>
   <energy>
    <i name="alphaZ">   1685.37291682 </i>
    <i name="ewald"> -23961.45473531 </i>
    <i name="hartreedc">  -7509.63940027 </i>
    <i name="XCdc">    234.20797185 </i>
    <i name="pawpsdc">  38553.70763203 </i>
    <i name="pawaedc"> -37152.01603463 </i>
    <i name="eentropy">      0.00508867 </i>
    <i name="bandstr">  -3347.02036263 </i>
    <i name="atom">  31144.04451113 </i>
    <i name="e_fr_energy">   -352.79241235 </i>
    <i name="e_wo_entrp">   -352.79750101 </i>
    <i name="e_0_energy">   -352.79410857 </i>
   </energy>
  </scstep>
  <structure>
   <crystal>
    <varray name="basis" >
     <v>       6.95156719       0.01028956      -0.01018284 </v>
     <v>       0.01482360      10.32420211       0.01044369 </v>
     <v>      -0.01439772       0.01011645      10.23071571 </v>
    </varray>
    <i name="volume">    734.24835927 </i>
    <varray name="rec_basis" >
     <v>       0.14385306      -0.00020675       0.00020265 </v>
     <v>      -0.00014351       0.09686009      -0.00009598 </v>
     <v>       0.00014333      -0.00009908       0.09774517 </v>
    </varray>
   </crystal>
   <varray name="positions" >
    <v>       0.99332669       0.34775524       0.01123973 </v>
    <v>       0.99430584       0.66085925       0.98852369 </v>
    <v>       0.25028321       0.82092791       0.16933116 </v>
    <v>       0.48005442       0.99832045       0.66568725 </v>
    <v>       0.75177613       0.82485826       0.18081552 </v>
    <v>       0.77076057       0.84000183       0.49916870 </v>
    <v>       0.24160269       0.49519751       0.48904725 </v>
    <v>       0.01016717       0.66601164       0.67475266 </v>
    <v>       0.75390044       0.49555113       0.49345793 </v>
    <v>       0.26630082       0.17530952       0.16562669 </v>
    <v>       0.99268602       0.99448094       0.99165688 </v>
    <v>       0.76507701       0.16718349       0.50057029 </v>
    <v>       0.25023296       0.17809262       0.83464350 </v>
    <v>       0.75253296       0.17428775       0.82514673 </v>
    <v>       0.25973507       0.50815784       0.17574684 </v>
    <v>       0.51601798       0.98120597       0.98799425 </v>
    <v>       0.73771452       0.17084790       0.17163183 </v>
    <v>       0.47088445       0.99716799       0.34991675 </v>
    <v>       0.73639437       0.48539558       0.82048981 </v>
    <v>       0.48996509       0.67128294       0.66576303 </v>
    <v>       0.23182750       0.17631914       0.50460634 </v>
    <v>       0.50780247       0.34027670       0.34159671 </v>
    <v>       0.26535469       0.48849099       0.83130963 </v>
    <v>       0.98983866       0.33707901       0.32025140 </v>
    <v>       0.01181234       0.33818874       0.66186507 </v>
    <v>       0.98795152       0.66180679       0.33963321 </v>
    <v>       0.22322332       0.82909709       0.49554454 </v>
    <v>       0.25228079       0.82974294       0.84494510 </v>
    <v>       0.50454617       0.35226156       0.00012875 </v>
    <v>       0.75367605       0.83258005       0.81909338 </v>
    <v>       0.73653481       0.51004363       0.17666292 </v>
    <v>       0.50590759       0.66801902       0.99005102 </v>
    <v>       0.02742760       0.00509439       0.33895757 </v>
    <v>       0.02330008       0.98771012       0.67372696 </v>
    <v>       0.48586635       0.32475084       0.65219335 </v>
    <v>       0.50893666       0.66564523       0.34822755 </v>
   </varray>
  </structure>
  <varray name="forces" >
   <v>       0.01039643       0.00596827       0.01906244 </v>
   <v>       0.01016749       0.00378808       0.01580393 </v>
   <v>       0.00176441      -0.01377671       0.00497545 </v>
   <v>      -0.01532443      -0.00377995       0.01137471 </v>
   <v>       0.02167862      -0.01356184       0.01387096 </v>
   <v>      -0.00138330       0.02939756       0.01577020 </v>
   <v>       0.00142775       0.00314778       0.06036423 </v>
   <v>       0.20144242       0.15577127       0.18996170 </v>
   <v>       0.09526294      -0.04589002       0.23889246 </v>
   <v>       0.00144449      -0.00450145       0.00683263 </v>
   <v>      -0.00785707      -0.00657855      -0.01597207 </v>
   <v>       0.00178696      -0.01325838      -0.02046978 </v>
   <v>       0.00177309      -0.01625041      -0.01046769 </v>
   <v>       0.00305478       0.00885089      -0.01653573 </v>
   <v>       0.00958851       0.00997233       0.02338410 </v>
   <v>       0.01125195      -0.01053658      -0.00904159 </v>
   <v>      -0.00125059       0.00947233       0.03913606 </v>
   <v>       0.00100356       0.00500001      -0.02389408 </v>
   <v>       0.01253903       0.03201405       0.06225605 </v>
   <v>      -0.18061300       0.16143895       0.11761692 </v>
   <v>      -0.02694465       0.00777208       0.00983517 </v>
   <v>      -0.27028653      -0.29240410      -0.19598242 </v>
   <v>       0.01179510       0.02732473      -0.01950128 </v>
   <v>       0.16748192      -0.19136665      -0.32520106 </v>
   <v>       0.37919075      -0.16914123       0.29712335 </v>
   <v>       0.21662272       0.29161672      -0.35016750 </v>
   <v>      -0.03851117      -0.00634987       0.00065586 </v>
   <v>       0.01417665      -0.01122987      -0.01533021 </v>
   <v>      -0.03457435       0.01945131      -0.01775816 </v>
   <v>      -0.00703185      -0.02770104      -0.03029838 </v>
   <v>       0.02317984      -0.03783424       0.05373112 </v>
   <v>      -0.03335047       0.00145280      -0.00027483 </v>
   <v>       0.01134256      -0.02648818       0.01348125 </v>
   <v>       0.02058414      -0.00704714      -0.00766481 </v>
   <v>      -0.31004040      -0.25588185       0.10182587 </v>
   <v>      -0.30178827       0.38113894      -0.23739486 </v>
  </varray>
  <varray name="stress" >
   <v>       3.12696816       0.10561870       0.53743009 </v>
   <v>       0.10561868       1.70490167      -0.39250856 </v>
   <v>       0.53743002      -0.39250855       1.11992626 </v>
  </varray>
  <energy>
   <i name="e_fr_energy">   -352.79241235 </i>
   <i name="e_wo_entrp">   -352.79410857 </i>
   <i name="e_0_energy">      0.00508867 </i>
  </energy>
  <time name="totalsc">   12.54   13.46</time>
 </calculation>
 <calculation>
  <scstep>
   <time name="dav">    1.24    1.28</time>
   <time name="total">    1.33    1.58</time>
   <energy>
    <i name="alphaZ">   1670.02118611 </i>
    <i name="ewald"> -23878.17023579 </i>
    <i name="hartreedc">  -7496.71200948 </i>
    <i name="XCdc">    230.93237201 </i>
    <i name="pawpsdc">  38554.06317944 </i>
    <i name="pawaedc"> -37152.45073561 </i>
    <i name="eentropy">      0.00422675 </i>
    <i name="bandstr">  -3424.74858071 </i>
    <i name="atom">  31144.04451113 </i>
    <i name="e_fr_energy">   -353.01608614 </i>
    <i name="e_wo_entrp">   -353.02031289 </i>
    <i name="e_0_energy">   -353.01749506 </i>
   </energy>
  </scstep>
  <scstep>
   <time name="diag">    0.09    0.09</time>
   <time name="diis">    0.82    0.83</time>
   <time name="orth">    0.02    0.02</time>
   <time name="total">    0.99    1.04</time>
   <energy>
    <i name="e_fr_energy">   -352.91903683 </i>
    <i name="e_wo_entrp">   -352.92445789 </i>
    <i name="e_0_energy">   -352.92084385 </i>
   </energy>
  </scstep>
  <scstep>
   <time name="diag">    0.09    0.09</time>
   <time name="diis">    0.83    0.84</time>
   <time name="orth">    0.02    0.02</time>
   <time name="total">    1.01    1.16</time>
   <energy>
    <i name="e_fr_energy">   -352.87338336 </i>
    <i name="e_wo_entrp">   -352.88108025 </i>
    <i name="e_0_energy">   -352.87594899 </i>
   </energy>
  </scstep>
  <scstep>
   <time name="diag">    0.09    0.09</time>
   <time name="diis">    0.84    0.85</time>
   <time name="orth">    0.01    0.01</time>
   <time name="total">    1.02    1.10</time>
   <energy>
    <i name="e_fr_energy">   -352.83407308 </i>
    <i name="e_wo_entrp">   -352.84032399 </i>
    <i name="e_0_energy">   -352.83615672 </i>
   </energy>
  </scstep>
  <scstep>
   <time name="diag">    0.09    0.09</time>
   <time name="diis">    0.82    0.83</time>
   <time name="orth">    0.01    0.01</time>
   <time name="total">    1.00    1.05</time>
   <energy>
    <i name="e_fr_energy">   -352.82681435 </i>
    <i name="e_wo_entrp">   -352.83342212 </i>
    <i name="e_0_energy">   -352.82901694 </i>
   </energy>
  </scstep>
  <scstep>
   <time name="diag">    0.09    0.09</time>
   <time name="diis">    0.85    0.86</time>
   <time name="orth">    0.01    0.01</time>
   <time name="total">    1.02    1.08</time>
   <energy>
    <i name="e_fr_energy">   -352.82688702 </i>
    <i name="e_wo_entrp">   -352.83364408 </i>
    <i name="e_0_energy">   -352.82913937 </i>
   </energy>
  </scstep>
  <scstep>
   <time name="diag">    0.09    0.09</time>
   <time name="diis">    0.94    0.95</time>
   <time name="orth">    0.01    0.01</time>
   <time name="total">    1.11    1.17</time>
   <energy>
    <i name="e_fr_energy">   -352.82707391 </i>
    <i name="e_wo_entrp">   -352.83348649 </i>
    <i name="e_0_energy">   -352.82921143 </i>
   </energy>
  </scstep>
  <scstep>
   <time name="diag">    0.09    0.10</time>
   <time name="diis">    0.95    0.96</time>
   <time name="orth">    0.02    0.02</time>
   <time name="total">    1.13    1.19</time>
   <energy>
    <i name="e_fr_energy">   -352.82729432 </i>
    <i name="e_wo_entrp">   -352.83388515 </i>
    <i name="e_0_energy">   -352.82949126 </i>
   </energy>
  </scstep>
  <scstep>
   <time name="diag">    0.09    0.09</time>
   <time name="diis">    0.87    0.88</time>
   <time name="orth">    0.02    0.02</time>
   <time name="total">    1.04    1.10</time>
   <energy>
    <i name="e_fr_energy">   -352.82741481 </i>
    <i name="e_wo_entrp">   -352.83399607 </i>
    <i name="e_0_energy">   -352.82960856 </i>
   </energy>
  </scstep>
  <scstep>
   <time name="diag">    0.11    0.11</time>
   <time name="diis">    0.80    0.81</time>
   <time name="orth">    0.01    0.01</time>
   <time name="total">    0.99    1.04</time>
   <energy>
    <i name="e_fr_energy">   -352.82755711 </i>
    <i name="e_wo_entrp">   -352.83409868 </i>
    <i name="e_0_energy">   -352.82973764 </i>
   </energy>
  </scstep>
  <scstep>
   <time name="diag">    0.09    0.09</time>
   <time name="diis">    0.77    0.78</time>
   <time name="orth">    0.02    0.02</time>
   <time name="total">    0.94    0.99</time>
   <energy>
    <i name="e_fr_energy">   -352.82762072 </i>
    <i name="e_wo_entrp">   -352.83423697 </i>
    <i name="e_0_energy">   -352.82982614 </i>
   </energy>
  </scstep>
  <scstep>
   <time name="diag">    0.09    0.09</time>
   <time name="diis">    0.64    0.65</time>
   <time name="orth">    0.02    0.02</time>
   <time name="total">    0.81    0.87</time>
   <energy>
    <i name="e_fr_energy">   -352.82761741 </i>
    <i name="e_wo_entrp">   -352.83418534 </i>
    <i name="e_0_energy">   -352.82980672 </i>
   </energy>
  </scstep>
  <scstep>
   <time name="diag">    0.09    0.09</time>
   <time name="diis">    0.56    0.56</time>
   <time name="orth">    0.01    0.01</time>
   <time name="total">    0.70    0.74</time>
   <energy>
    <i name="alphaZ">   1670.02118611 </i>
    <i name="ewald"> -23878.17023579 </i>
    <i name="hartreedc">  -7543.69066760 </i>
    <i name="XCdc">    233.07909483 </i>
    <i name="pawpsdc">  38131.71845845 </i>
    <i name="pawaedc"> -36731.08018858 </i>
    <i name="eentropy">      0.00658545 </i>
    <i name="bandstr">  -3378.75636092 </i>
    <i name="atom">  31144.04451113 </i>
    <i name="e_fr_energy">   -352.82761691 </i>
    <i name="e_wo_entrp">   -352.83420235 </i>
    <i name="e_0_energy">   -352.82981206 </i>
   </energy>
  </scstep>
  <structure>
   <crystal>
    <varray name="basis" >
     <v>       6.97594420       0.01070288      -0.00823209 </v>
     <v>       0.01544432      10.35450940       0.00827657 </v>
     <v>      -0.01153269       0.00796551      10.25855829 </v>
    </varray>
    <i name="volume">    740.99796411 </i>
    <varray name="rec_basis" >
     <v>       0.14335029      -0.00021394       0.00016132 </v>
     <v>      -0.00014826       0.09657656      -0.00007516 </v>
     <v>       0.00011515      -0.00007809       0.09747977 </v>
    </varray>
   </crystal>
   <varray name="positions" >
    <v>       0.99339078       0.34776274       0.01129469 </v>
    <v>       0.99437028       0.66087836       0.98856467 </v>
    <v>       0.25030220       0.82086054       0.16938943 </v>
    <v>       0.47999057       0.99830761       0.66573648 </v>
    <v>       0.75189218       0.82481488       0.18085840 </v>
    <v>       0.77068084       0.84013808       0.49923752 </v>
    <v>       0.24165518       0.49522652       0.48932575 </v>
    <v>       0.01122082       0.66655040       0.67542113 </v>
    <v>       0.75448468       0.49538940       0.49449757 </v>
    <v>       0.26631890       0.17530379       0.16567924 </v>
    <v>       0.99267680       0.99448773       0.99164967 </v>
    <v>       0.76504925       0.16709199       0.50051304 </v>
    <v>       0.25026298       0.17807320       0.83457287 </v>
    <v>       0.75254215       0.17431264       0.82508820 </v>
    <v>       0.25974680       0.50819684       0.17582288 </v>
    <v>       0.51604108       0.98120589       0.98798555 </v>
    <v>       0.73770413       0.17087548       0.17176113 </v>
    <v>       0.47091792       0.99720502       0.34980963 </v>
    <v>       0.73650397       0.48553358       0.82075804 </v>
    <v>       0.48899284       0.67186873       0.66619168 </v>
    <v>       0.23171290       0.17637043       0.50466968 </v>
    <v>       0.50628037       0.33916672       0.34079939 </v>
    <v>       0.26536325       0.48859747       0.83120689 </v>
    <v>       0.99078735       0.33634019       0.31904789 </v>
    <v>       0.01375536       0.33756527       0.66292340 </v>
    <v>       0.98912672       0.66288067       0.33833909 </v>
    <v>       0.22312217       0.82904404       0.49560369 </v>
    <v>       0.25235673       0.82965711       0.84483879 </v>
    <v>       0.50433358       0.35225822       0.00005638 </v>
    <v>       0.75362988       0.83246436       0.81899467 </v>
    <v>       0.73673810       0.50988995       0.17679933 </v>
    <v>       0.50572143       0.66804455       0.99004644 </v>
    <v>       0.02743824       0.00503044       0.33894036 </v>
    <v>       0.02338825       0.98771967       0.67370832 </v>
    <v>       0.48424650       0.32382656       0.65258791 </v>
    <v>       0.50725981       0.66706292       0.34728420 </v>
   </varray>
  </structure>
  <varray name="forces" >
   <v>       0.00360110       0.01186449       0.02069045 </v>
   <v>       0.00256494       0.00002068       0.02321791 </v>
   <v>      -0.00486870       0.00412955      -0.02266753 </v>
   <v>      -0.01946092      -0.00624397       0.00371995 </v>
   <v>       0.01748658      -0.01352933       0.01718529 </v>
   <v>       0.03194163       0.00301591       0.00309788 </v>
   <v>      -0.01786159      -0.00887424       0.01016093 </v>
   <v>       0.16310963       0.13511529       0.16089399 </v>
   <v>       0.04273095      -0.03994067       0.07460001 </v>
   <v>      -0.00440777      -0.01173896      -0.01436917 </v>
   <v>      -0.01950340      -0.02923900      -0.05028107 </v>
   <v>       0.02004450       0.02064723      -0.02678348 </v>
   <v>      -0.00845825      -0.04187079       0.01558164 </v>
   <v>       0.00640756       0.01120411      -0.01516557 </v>
   <v>       0.02585833       0.00660277       0.02495703 </v>
   <v>       0.02446460      -0.03582110      -0.02713644 </v>
   <v>       0.00136717       0.01174923       0.03874723 </v>
   <v>      -0.01370221      -0.01021125      -0.00301965 </v>
   <v>      -0.01193438       0.00949869       0.01933841 </v>
   <v>      -0.13458584       0.12120990       0.09144180 </v>
   <v>      -0.03573588      -0.01254085      -0.01125342 </v>
   <v>      -0.17290106      -0.18688817      -0.09300652 </v>
   <v>       0.03511371       0.01434734       0.00654194 </v>
   <v>       0.10268410      -0.11395147      -0.23078138 </v>
   <v>       0.33182378      -0.12052992       0.24261703 </v>
   <v>       0.15885127       0.20936936      -0.25416799 </v>
   <v>      -0.07566111       0.01597383      -0.03978059 </v>
   <v>       0.01099214       0.02431418       0.02183029 </v>
   <v>      -0.01556406       0.06667646      -0.01119757 </v>
   <v>      -0.00159184      -0.00971920      -0.02901850 </v>
   <v>      -0.01742475      -0.01635323       0.07667608 </v>
   <v>      -0.02089757      -0.01213342      -0.00242350 </v>
   <v>       0.03040841      -0.04204689       0.05824175 </v>
   <v>       0.02368725      -0.03035643      -0.01200730 </v>
   <v>      -0.25086680      -0.18969289       0.05955646 </v>
   <v>      -0.20771151       0.26594279      -0.12603640 </v>
  </varray>
  <varray name="stress" >
   <v>      -8.78002869       0.05910872       0.21195717 </v>
   <v>       0.05910875     -10.33043428      -0.16338523 </v>
   <v>       0.21195720      -0.16338525     -11.02491787 </v>
  </varray>
  <energy>
   <i name="e_fr_energy">   -352.82761691 </i>
   <i name="e_wo_entrp">   -352.82981206 </i>
   <i name="e_0_energy">      0.00658545 </i>
  </energy>
  <time name="totalsc">   14.75   15.92</time>
 </calculation>
 <calculation>
  <scstep>
   <time name="dav">    1.02    1.03</time>
   <time name="total">    1.09    1.30</time>
   <energy>
    <i name="alphaZ">   1673.08085003 </i>
    <i name="ewald"> -23886.55454181 </i>
    <i name="hartreedc">  -7554.19947116 </i>
    <i name="XCdc">    233.75960201 </i>
    <i name="pawpsdc">  38130.72611497 </i>
    <i name="pawaedc"> -36730.13910449 </i>
    <i name="eentropy">      0.00634219 </i>
    <i name="bandstr">  -3363.57960288 </i>
    <i name="atom">  31144.04451113 </i>
    <i name="e_fr_energy">   -352.85530000 </i>
    <i name="e_wo_entrp">   -352.86164220 </i>
    <i name="e_0_energy">   -352.85741407 </i>
   </energy>
  </scstep>
  <scstep>
   <time name="diag">    0.16    0.16</time>
   <time name="diis">    0.75    0.75</time>
   <time name="orth">    0.01    0.01</time>
   <time name="total">    0.98    1.05</time>
   <energy>
    <i name="e_fr_energy">   -352.86406378 </i>
    <i name="e_wo_entrp">   -352.87074113 </i>
    <i name="e_0_energy">   -352.86628956 </i>
   </energy>
  </scstep>
  <scstep>
   <time name="diag">    0.09    0.09</time>
   <time name="diis">    0.87    0.88</time>
   <time name="orth">    0.01    0.01</time>
   <time name="total">    1.04    1.11</time>
   <energy>
    <i name="e_fr_energy">   -352.86044690 </i>
    <i name="e_wo_entrp">   -352.86663471 </i>
    <i name="e_0_energy">   -352.86250950 </i>
   </energy>
  </scstep>
  <scstep>
   <time name="diag">    0.09    0.09</time>
   <time name="diis">    0.84    0.84</time>
   <time name="orth">    0.01    0.01</time>
   <time name="total">    1.02    1.09</time>
   <energy>
    <i name="e_fr_energy">   -352.85838324 </i>
    <i name="e_wo_entrp">   -352.86488717 </i>
    <i name="e_0_energy">   -352.86055122 </i>
   </energy>
  </scstep>
  <scstep>
   <time name="diag">    0.09    0.09</time>
   <time name="diis">    0.84    0.85</time>
   <time name="orth">    0.01    0.01</time>
   <time name="total">    1.01    1.06</time>
   <energy>
    <i name="e_fr_energy">   -352.85810880 </i>
    <i name="e_wo_entrp">   -352.86448089 </i>
    <i name="e_0_energy">   -352.86023283 </i>
   </energy>
  </scstep>
  <scstep>
   <time name="diag">    0.09    0.09</time>
   <time name="diis">    0.91    0.91</time>
   <time name="orth">    0.01    0.01</time>
   <time name="total">    1.08    1.13</time>
   <energy>
    <i name="e_fr_energy">   -352.85808956 </i>
    <i name="e_wo_entrp">   -352.86455161 </i>
    <i name="e_0_energy">   -352.86024357 </i>
   </energy>
  </scstep>
  <scstep>
   <time name="diag">    0.09    0.09</time>
   <time name="diis">    0.79    0.80</time>
   <time name="orth">    0.01    0.01</time>
   <time name="total">    0.96    1.02</time>
   <energy>
    <i name="e_fr_energy">   -352.85810335 </i>
    <i name="e_wo_entrp">   -352.86453334 </i>
    <i name="e_0_energy">   -352.86024668 </i>
   </energy>
  </scstep>
  <scstep>
   <time name="diag">    0.09    0.09</time>
   <time name="diis">    0.71    0.72</time>
   <time name="orth">    0.01    0.01</time>
   <time name="total">    0.88    0.93</time>
   <energy>
    <i name="e_fr_energy">   -352.85812172 </i>
    <i name="e_wo_entrp">   -352.86457982 </i>
    <i name="e_0_energy">   -352.86027442 </i>
   </energy>
  </scstep>
  <scstep>
   <time name="diag">    0.09    0.09</time>
   <time name="diis">    0.58    0.58</time>
   <time name="orth">    0.01    0.01</time>
   <time name="total">    0.75    0.80</time>
   <energy>
    <i name="e_fr_energy">   -352.85814056 </i>
    <i name="e_wo_entrp">   -352.86458656 </i>
    <i name="e_0_energy">   -352.86028922 </i>
   </energy>
  </scstep>
  <scstep>
   <time name="diag">    0.09    0.09</time>
   <time name="diis">    0.48    0.49</time>
   <time name="orth">    0.02    0.02</time>
   <time name="total">    0.65    0.74</time>
   <energy>
    <i name="e_fr_energy">   -352.85815473 </i>
    <i name="e_wo_entrp">   -352.86460537 </i>
    <i name="e_0_energy">   -352.86030494 </i>
   </energy>
  </scstep>
  <scstep>
   <time name="diag">    0.09    0.09</time>
   <time name="diis">    0.42    0.42</time>
   <time name="orth">    0.01    0.01</time>
   <time name="total">    0.58    0.65</time>
   <energy>
    <i name="alphaZ">   1673.08085003 </i>
    <i name="ewald"> -23886.55454181 </i>
    <i name="hartreedc">  -7545.37454776 </i>
    <i name="XCdc">    233.34866878 </i>
    <i name="pawpsdc">  38218.49623205 </i>
    <i name="pawaedc"> -36817.85203898 </i>
    <i name="eentropy">      0.00645577 </i>
    <i name="bandstr">  -3372.05375213 </i>
    <i name="atom">  31144.04451113 </i>
    <i name="e_fr_energy">   -352.85816291 </i>
    <i name="e_wo_entrp">   -352.86461869 </i>
    <i name="e_0_energy">   -352.86031484 </i>
   </energy>
  </scstep>
  <structure>
   <crystal>
    <varray name="basis" >
     <v>       6.97415936       0.01088953      -0.00732805 </v>
     <v>       0.01572835      10.34730710       0.00726673 </v>
     <v>      -0.01020919       0.00696440      10.24954425 </v>
    </varray>
    <i name="volume">    739.64285642 </i>
    <varray name="rec_basis" >
     <v>       0.14338695      -0.00021805       0.00014297 </v>
     <v>      -0.00015097       0.09664378      -0.00006582 </v>
     <v>       0.00010262      -0.00006867       0.09756546 </v>
    </varray>
   </crystal>
   <varray name="positions" >
    <v>       0.99341839       0.34777959       0.01133815 </v>
    <v>       0.99439619       0.66088467       0.98860663 </v>
    <v>       0.25029963       0.82084338       0.16938087 </v>
    <v>       0.47993449       0.99829583       0.66575726 </v>
    <v>       0.75196200       0.82478411       0.18089362 </v>
    <v>       0.77071208       0.84018662       0.49926407 </v>
    <v>       0.24164031       0.49522535       0.48943003 </v>
    <v>       0.01186176       0.66689163       0.67583878 </v>
    <v>       0.75475434       0.49528752       0.49493192 </v>
    <v>       0.26631692       0.17528768       0.16567897 </v>
    <v>       0.99263861       0.99445457       0.99158570 </v>
    <v>       0.76507611       0.16708686       0.50046135 </v>
    <v>       0.25025779       0.17801598       0.83456868 </v>
    <v>       0.75255667       0.17433444       0.82505032 </v>
    <v>       0.25979727       0.50821765       0.17587857 </v>
    <v>       0.51609280       0.98116237       0.98794951 </v>
    <v>       0.73770319       0.17089880       0.17185123 </v>
    <v>       0.47090431       0.99720485       0.34977059 </v>
    <v>       0.73651857       0.48559063       0.82087017 </v>
    <v>       0.48842974       0.67220922       0.66644486 </v>
    <v>       0.23161075       0.17637221       0.50467676 </v>
    <v>       0.50546771       0.33857425       0.34042242 </v>
    <v>       0.26542931       0.48864992       0.83118106 </v>
    <v>       0.99128501       0.33595819       0.31836838 </v>
    <v>       0.01499417       0.33721259       0.66357010 </v>
    <v>       0.98979926       0.66348873       0.33760091 </v>
    <v>       0.22295241       0.82904611       0.49557435 </v>
    <v>       0.25240155       0.82965827       0.84483045 </v>
    <v>       0.50423528       0.35233808       0.00001873 </v>
    <v>       0.75361178       0.83241444       0.81892656 </v>
    <v>       0.73677389       0.50981939       0.17693822 </v>
    <v>       0.50562246       0.66803828       0.99004196 </v>
    <v>       0.02749676       0.00495821       0.33900611 </v>
    <v>       0.02346003       0.98768594       0.67368752 </v>
    <v>       0.48326132       0.32329200       0.65279087 </v>
    <v>       0.50633210       0.66785364       0.34681830 </v>
   </varray>
  </structure>
  <varray name="forces" >
   <v>       0.00339875       0.00542217       0.01288132 </v>
   <v>      -0.00160743      -0.00524870       0.03767049 </v>
   <v>      -0.00783983       0.02380689      -0.04305668 </v>
   <v>      -0.00423262      -0.00101637      -0.00324060 </v>
   <v>       0.01575975       0.00383345       0.00527151 </v>
   <v>       0.02287233      -0.01157660       0.00050182 </v>
   <v>      -0.02395533      -0.00362249      -0.00089171 </v>
   <v>       0.13347757       0.10720608       0.13608450 </v>
   <v>       0.02149714      -0.02724196       0.02065347 </v>
   <v>      -0.00854541      -0.02681760      -0.03344978 </v>
   <v>      -0.02219431      -0.02328418      -0.05103941 </v>
   <v>       0.01807171       0.02781148      -0.02697288 </v>
   <v>      -0.01161511      -0.06780853       0.04676686 </v>
   <v>       0.00689248       0.00155212      -0.00643274 </v>
   <v>       0.02264823       0.00495601       0.01476742 </v>
   <v>       0.02716374      -0.02518004      -0.02303186 </v>
   <v>       0.00555182      -0.00115425       0.03302692 </v>
   <v>       0.00329599      -0.01021249      -0.00180126 </v>
   <v>      -0.00867830       0.01009307      -0.00203331 </v>
   <v>      -0.10258997       0.09210395       0.06837889 </v>
   <v>      -0.02942142      -0.03107744      -0.03061875 </v>
   <v>      -0.13266244      -0.15063350      -0.05307150 </v>
   <v>       0.03131180       0.02450168       0.01932449 </v>
   <v>       0.07679122      -0.08667980      -0.17706978 </v>
   <v>       0.28265956      -0.09459354       0.21474045 </v>
   <v>       0.13914765       0.16737622      -0.20484647 </v>
   <v>      -0.06498417       0.01469005      -0.04697901 </v>
   <v>       0.01024099       0.04205648       0.03383077 </v>
   <v>      -0.00699506       0.06617566      -0.00403641 </v>
   <v>      -0.00284353      -0.00284554      -0.02071488 </v>
   <v>      -0.02656915      -0.00737681       0.06483057 </v>
   <v>      -0.01148144      -0.02436051       0.00534497 </v>
   <v>       0.01026843      -0.03938082       0.05361715 </v>
   <v>       0.00932095      -0.01790536      -0.01505185 </v>
   <v>      -0.19948512      -0.15054235       0.04510002 </v>
   <v>      -0.17466945       0.21697356      -0.06845275 </v>
  </varray>
  <varray name="stress" >
   <v>      -6.68712994       0.03692807       0.05304351 </v>
   <v>       0.03692805      -8.09568242      -0.04965765 </v>
   <v>       0.05304349      -0.04965768      -8.79705599 </v>
  </varray>
  <energy>
   <i name="e_fr_energy">   -352.85816291 </i>
   <i name="e_wo_entrp">   -352.86031484 </i>
   <i name="e_0_energy">      0.00645577 </i>
  </energy>
  <time name="totalsc">   11.88   12.88</time>
 </calculation>
 <calculation>
  <scstep>
   <time name="dav">    1.09    1.11</time>
   <time name="total">    1.18    1.41</time>
   <energy>
    <i name="alphaZ">   1682.30742766 </i>
    <i name="ewald"> -23909.89912433 </i>
    <i name="hartreedc">  -7578.79620630 </i>
    <i name="XCdc">    235.41028776 </i>
    <i name="pawpsdc">  38218.83094267 </i>
    <i name="pawaedc"> -36818.15652604 </i>
    <i name="eentropy">      0.00554839 </i>
    <i name="bandstr">  -3326.63109672 </i>
    <i name="atom">  31144.04451113 </i>
    <i name="e_fr_energy">   -352.88423578 </i>
    <i name="e_wo_entrp">   -352.88978417 </i>
    <i name="e_0_energy">   -352.88608524 </i>
   </energy>
  </scstep>
  <scstep>
   <time name="diag">    0.09    0.10</time>
   <time name="diis">    0.73    0.74</time>
   <time name="orth">    0.01    0.01</time>
   <time name="total">    0.90    0.99</time>
   <energy>
    <i name="e_fr_energy">   -352.96005163 </i>
    <i name="e_wo_entrp">   -352.96709618 </i>
    <i name="e_0_energy">   -352.96239981 </i>
   </energy>
  </scstep>
  <scstep>
   <time name="diag">    0.09    0.09</time>
   <time name="diis">    0.85    0.86</time>
   <time name="orth">    0.01    0.01</time>
   <time name="total">    1.02    1.10</time>
   <energy>
    <i name="e_fr_energy">   -352.92529198 </i>
    <i name="e_wo_entrp">   -352.93070403 </i>
    <i name="e_0_energy">   -352.92709600 </i>
   </energy>
  </scstep>
  <scstep>
   <time name="diag">    0.10    0.10</time>
   <time name="diis">    0.86    0.87</time>
   <time name="orth">    0.01    0.01</time>
   <time name="total">    1.04    1.13</time>
   <energy>
    <i name="e_fr_energy">   -352.90733389 </i>
    <i name="e_wo_entrp">   -352.91350044 </i>
    <i name="e_0_energy">   -352.90938941 </i>
   </energy>
  </scstep>
  <scstep>
   <time name="diag">    0.09    0.09</time>
   <time name="diis">    0.86    0.87</time>
   <time name="orth">    0.01    0.01</time>
   <time name="total">    1.04    1.10</time>
   <energy>
    <i name="e_fr_energy">   -352.90526895 </i>
    <i name="e_wo_entrp">   -352.91114330 </i>
    <i name="e_0_energy">   -352.90722706 </i>
   </energy>
  </scstep>
  <scstep>
   <time name="diag">    0.09    0.09</time>
   <time name="diis">    0.92    0.93</time>
   <time name="orth">    0.01    0.01</time>
   <time name="total">    1.12    1.20</time>
   <energy>
    <i name="e_fr_energy">   -352.90511379 </i>
    <i name="e_wo_entrp">   -352.91120692 </i>
    <i name="e_0_energy">   -352.90714484 </i>
   </energy>
  </scstep>
  <scstep>
   <time name="diag">    0.10    0.10</time>
   <time name="diis">    0.96    0.97</time>
   <time name="orth">    0.01    0.01</time>
   <time name="total">    1.14    1.20</time>
   <energy>
    <i name="e_fr_energy">   -352.90521239 </i>
    <i name="e_wo_entrp">   -352.91123429 </i>
    <i name="e_0_energy">   -352.90721969 </i>
   </energy>
  </scstep>
  <scstep>
   <time name="diag">    0.09    0.09</time>
   <time name="diis">    1.01    1.02</time>
   <time name="orth">    0.01    0.01</time>
   <time name="total">    1.18    1.23</time>
   <energy>
    <i name="e_fr_energy">   -352.90535993 </i>
    <i name="e_wo_entrp">   -352.91142254 </i>
    <i name="e_0_energy">   -352.90738080 </i>
   </energy>
  </scstep>
  <scstep>
   <time name="diag">    0.09    0.09</time>
   <time name="diis">    0.85    0.86</time>
   <time name="orth">    0.02    0.02</time>
   <time name="total">    1.03    1.09</time>
   <energy>
    <i name="e_fr_energy">   -352.90548189 </i>
    <i name="e_wo_entrp">   -352.91153442 </i>
    <i name="e_0_energy">   -352.90749940 </i>
   </energy>
  </scstep>
  <scstep>
   <time name="diag">    0.09    0.09</time>
   <time name="diis">    0.78    0.78</time>
   <time name="orth">    0.01    0.01</time>
   <time name="total">    0.95    1.03</time>
   <energy>
    <i name="e_fr_energy">   -352.90557034 </i>
    <i name="e_wo_entrp">   -352.91161772 </i>
    <i name="e_0_energy">   -352.90758613 </i>
   </energy>
  </scstep>
  <scstep>
   <time name="diag">    0.09    0.09</time>
   <time name="diis">    0.69    0.69</time>
   <time name="orth">    0.02    0.02</time>
   <time name="total">    0.86    0.93</time>
   <energy>
    <i name="e_fr_energy">   -352.90561153 </i>
    <i name="e_wo_entrp">   -352.91168701 </i>
    <i name="e_0_energy">   -352.90763669 </i>
   </energy>
  </scstep>
  <scstep>
   <time name="diag">    0.08    0.09</time>
   <time name="diis">    0.64    0.65</time>
   <time name="orth">    0.03    0.03</time>
   <time name="total">    0.79    0.86</time>
   <energy>
    <i name="alphaZ">   1682.30742766 </i>
    <i name="ewald"> -23909.89912433 </i>
    <i name="hartreedc">  -7552.98913425 </i>
    <i name="XCdc">    234.20112958 </i>
    <i name="pawpsdc">  38502.62631818 </i>
    <i name="pawaedc"> -37101.15829014 </i>
    <i name="eentropy">      0.00603932 </i>
    <i name="bandstr">  -3352.04449845 </i>
    <i name="atom">  31144.04451113 </i>
    <i name="e_fr_energy">   -352.90562130 </i>
    <i name="e_wo_entrp">   -352.91166062 </i>
    <i name="e_0_energy">   -352.90763441 </i>
   </energy>
  </scstep>
  <structure>
   <crystal>
    <varray name="basis" >
     <v>       6.96880484       0.01144947      -0.00461595 </v>
     <v>       0.01658042      10.32570017       0.00423719 </v>
     <v>      -0.00623869       0.00396105      10.22250216 </v>
    </varray>
    <i name="volume">    735.58630164 </i>
    <varray name="rec_basis" >
     <v>       0.14349707      -0.00023046       0.00008766 </v>
     <v>      -0.00015914       0.09684600      -0.00003762 </v>
     <v>       0.00006486      -0.00004025       0.09782346 </v>
    </varray>
   </crystal>
   <varray name="positions" >
    <v>       0.99350123       0.34783019       0.01146865 </v>
    <v>       0.99447389       0.66090360       0.98873261 </v>
    <v>       0.25029191       0.82079183       0.16935515 </v>
    <v>       0.47976619       0.99826049       0.66581965 </v>
    <v>       0.75217148       0.82469173       0.18099935 </v>
    <v>       0.77080582       0.84033233       0.49934379 </v>
    <v>       0.24159562       0.49522189       0.48974318 </v>
    <v>       0.01378480       0.66791610       0.67709277 </v>
    <v>       0.75556327       0.49498175       0.49623600 </v>
    <v>       0.26631097       0.17523931       0.16567817 </v>
    <v>       0.99252404       0.99435501       0.99139362 </v>
    <v>       0.76515674       0.16707144       0.50030615 </v>
    <v>       0.25024223       0.17784419       0.83455610 </v>
    <v>       0.75260025       0.17439988       0.82493658 </v>
    <v>       0.25994868       0.50828013       0.17604577 </v>
    <v>       0.51624805       0.98103170       0.98784127 </v>
    <v>       0.73770034       0.17096884       0.17212179 </v>
    <v>       0.47086348       0.99720436       0.34965338 </v>
    <v>       0.73656231       0.48576195       0.82120689 </v>
    <v>       0.48673985       0.67323148       0.66720534 </v>
    <v>       0.23130424       0.17637755       0.50469804 </v>
    <v>       0.50302939       0.33679553       0.33929057 </v>
    <v>       0.26562755       0.48880736       0.83110349 </v>
    <v>       0.99277882       0.33481117       0.31632780 </v>
    <v>       0.01871123       0.33615395       0.66551149 </v>
    <v>       0.99181774       0.66531394       0.33538445 </v>
    <v>       0.22244303       0.82905234       0.49548630 </v>
    <v>       0.25253606       0.82966173       0.84480539 </v>
    <v>       0.50394034       0.35257780      -0.00009430 </v>
    <v>       0.75355751       0.83226456       0.81872206 </v>
    <v>       0.73688124       0.50960761       0.17735522 </v>
    <v>       0.50532547       0.66801948       0.99002852 </v>
    <v>       0.02767234       0.00474139       0.33920349 </v>
    <v>       0.02367546       0.98758467       0.67362505 </v>
    <v>       0.48030500       0.32168734       0.65340038 </v>
    <v>       0.50354844       0.67022737       0.34541986 </v>
   </varray>
  </structure>
  <varray name="forces" >
   <v>       0.00112294      -0.01285433      -0.01407666 </v>
   <v>      -0.01477446      -0.02405003       0.08435723 </v>
   <v>      -0.01540877       0.09397886      -0.11059841 </v>
   <v>       0.04294956       0.01295725      -0.02656274 </v>
   <v>       0.00819409       0.05808511      -0.03032177 </v>
   <v>      -0.00774353      -0.05523660      -0.00698240 </v>
   <v>      -0.03758305       0.01393792      -0.03149951 </v>
   <v>       0.04000534       0.02026684       0.05821320 </v>
   <v>      -0.04099466       0.00457146      -0.12989153 </v>
   <v>      -0.02260754      -0.07669483      -0.09641068 </v>
   <v>      -0.02821436      -0.00465294      -0.04813360 </v>
   <v>       0.00964394       0.04788221      -0.02481258 </v>
   <v>      -0.02009988      -0.15237180       0.15069136 </v>
   <v>       0.00854971      -0.02811024       0.01741507 </v>
   <v>       0.01306507      -0.00027281      -0.01941657 </v>
   <v>       0.03210239       0.01012065      -0.00662227 </v>
   <v>       0.01796650      -0.04155189       0.01357173 </v>
   <v>       0.05755461      -0.00922903       0.00124836 </v>
   <v>       0.00298368       0.01456305      -0.06375310 </v>
   <v>      -0.00302973       0.00259318      -0.00189384 </v>
   <v>      -0.01243726      -0.09579361      -0.09055961 </v>
   <v>      -0.00943479      -0.04425447       0.06461599 </v>
   <v>       0.01827302       0.05675327       0.06104728 </v>
   <v>      -0.00456109      -0.00205167      -0.01212074 </v>
   <v>       0.12195651      -0.00894489       0.12903228 </v>
   <v>       0.07817496       0.03779972      -0.05681705 </v>
   <v>      -0.03014629       0.01177536      -0.06646879 </v>
   <v>       0.00810476       0.09693359       0.06982439 </v>
   <v>       0.01994593       0.06414740       0.01769289 </v>
   <v>      -0.00583795       0.01466885      -0.00056497 </v>
   <v>      -0.05425789       0.01843405       0.02436793 </v>
   <v>       0.01777696      -0.06321274       0.02882427 </v>
   <v>      -0.05121426      -0.02836545       0.04109165 </v>
   <v>      -0.03383589       0.02056193      -0.02548283 </v>
   <v>      -0.03156918      -0.02477793      -0.00352240 </v>
   <v>      -0.07461939       0.07239456       0.10451845 </v>
  </varray>
  <varray name="stress" >
   <v>       0.48996240      -0.02361380      -0.41987287 </v>
   <v>      -0.02361379      -0.56943503       0.29021704 </v>
   <v>      -0.41987284       0.29021700      -1.18090962 </v>
  </varray>
  <energy>
   <i name="e_fr_energy">   -352.90562130 </i>
   <i name="e_wo_entrp">   -352.90763441 </i>
   <i name="e_0_energy">      0.00603932 </i>
  </energy>
  <time name="totalsc">   13.90   15.11</time>
 </calculation>
 <calculation>
  <scstep>
   <time name="dav">    1.03    1.04</time>
   <time name="total">    1.11    1.35</time>
   <energy>
    <i name="alphaZ">   1684.17791490 </i>
    <i name="ewald"> -23914.27631906 </i>
    <i name="hartreedc">  -7560.10201009 </i>
    <i name="XCdc">    234.62103421 </i>
    <i name="pawpsdc">  38503.46633981 </i>
    <i name="pawaedc"> -37101.95015483 </i>
    <i name="eentropy">      0.00587914 </i>
    <i name="bandstr">  -3342.89295666 </i>
    <i name="atom">  31144.04451113 </i>
    <i name="e_fr_energy">   -352.90576145 </i>
    <i name="e_wo_entrp">   -352.91164059 </i>
    <i name="e_0_energy">   -352.90772116 </i>
   </energy>
  </scstep>
  <scstep>
   <time name="diag">    0.09    0.09</time>
   <time name="diis">    0.72    0.72</time>
   <time name="orth">    0.02    0.02</time>
   <time name="total">    0.89    0.94</time>
   <energy>
    <i name="e_fr_energy">   -352.90897667 </i>
    <i name="e_wo_entrp">   -352.91510828 </i>
    <i name="e_0_energy">   -352.91102054 </i>
   </energy>
  </scstep>
  <scstep>
   <time name="diag">    0.09    0.09</time>
   <time name="diis">    0.80    0.81</time>
   <time name="orth">    0.01    0.01</time>
   <time name="total">    0.97    1.05</time>
   <energy>
    <i name="e_fr_energy">   -352.90770882 </i>
    <i name="e_wo_entrp">   -352.91354732 </i>
    <i name="e_0_energy">   -352.90965499 </i>
   </energy>
  </scstep>
  <scstep>
   <time name="diag">    0.18    0.18</time>
   <time name="diis">    0.86    0.87</time>
   <time name="orth">    0.01    0.01</time>
   <time name="total">    1.11    1.17</time>
   <energy>
    <i name="e_fr_energy">   -352.90697564 </i>
    <i name="e_wo_entrp">   -352.91295880 </i>
    <i name="e_0_energy">   -352.90897002 </i>
   </energy>
  </scstep>
  <scstep>
   <time name="diag">    0.15    0.15</time>
   <time name="diis">    0.90    0.91</time>
   <time name="orth">    0.01    0.01</time>
   <time name="total">    1.13    1.18</time>
   <energy>
    <i name="e_fr_energy">   -352.90689429 </i>
    <i name="e_wo_entrp">   -352.91281969 </i>
    <i name="e_0_energy">   -352.90886942 </i>
   </energy>
  </scstep>
  <scstep>
[...]
       <r>    7.3816    1.0000 </r>
       <r>    7.4180    1.0000 </r>
       <r>    7.4586    1.0000 </r>
       <r>    7.4868    1.0000 </r>
       <r>    7.5318    1.0000 </r>
       <r>    7.5872    1.0002 </r>
       <r>    7.6213    1.0005 </r>
       <r>    7.6376    1.0008 </r>
       <r>    7.6754    1.0025 </r>
       <r>    7.7295    1.0091 </r>
       <r>    7.7677    1.0183 </r>
       <r>    7.8163    1.0324 </r>
       <r>    7.8439    1.0353 </r>
       <r>    7.8634    1.0308 </r>
       <r>    7.8892    1.0107 </r>
       <r>    7.9413    0.8958 </r>
       <r>    7.9718    0.7739 </r>
       <r>    8.0002    0.6301 </r>
       <r>    8.0268    0.4818 </r>
       <r>    8.0583    0.3097 </r>
       <r>    8.1062    0.1033 </r>
       <r>    8.1462    0.0056 </r>
       <r>    8.2031   -0.0353 </r>
       <r>    8.2413   -0.0298 </r>
       <r>    8.2584   -0.0247 </r>
       <r>    8.2983   -0.0132 </r>
       <r>    8.3339   -0.0064 </r>
       <r>    8.3579   -0.0036 </r>
       <r>    8.3982   -0.0012 </r>
       <r>    8.4429   -0.0003 </r>
       <r>    8.4581   -0.0002 </r>
       <r>    8.4864   -0.0001 </r>
       <r>    8.5370   -0.0000 </r>
       <r>    8.5827   -0.0000 </r>
       <r>    8.6397   -0.0000 </r>
       <r>    8.6846   -0.0000 </r>
       <r>    8.7096   -0.0000 </r>
       <r>    8.7932   -0.0000 </r>
       <r>    8.8683   -0.0000 </r>
       <r>    8.9316   -0.0000 </r>
       <r>    8.9586   -0.0000 </r>
       <r>    9.1986   -0.0000 </r>
       <r>    9.2996   -0.0000 </r>
       <r>    9.3953   -0.0000 </r>
       <r>    9.8835   -0.0000 </r>
       <r>    9.9335   -0.0000 </r>
       <r>   10.0222   -0.0000 </r>
       <r>   10.0421   -0.0000 </r>
       <r>   10.0503   -0.0000 </r>
      </set>
     </set>
    </set>
   </array>
  </eigenvalues>
  <separator name="orbital magnetization" >
   <v name="MAGDIPOLOUT">      0.00000000      0.00000000      0.00000000</v>
  </separator>
  <dos>
   <i name="efermi">      8.02359145 </i>
   <total>
    <array>
     <dimension dim="1">gridpoints</dimension>
     <dimension dim="2">spin</dimension>
     <field>energy</field>
     <field>total</field>
     <field>integrated</field>
     <set>
      <set comment="spin 1">
       <r>   -49.0803     0.0000     0.0000 </r>
       <r>   -48.8737     0.0000     0.0000 </r>
       <r>   -48.6671     0.0000     0.0000 </r>
       <r>   -48.4604     0.0000     0.0000 </r>
       <r>   -48.2538     0.0000     0.0000 </r>
       <r>   -48.0472     0.0000     0.0000 </r>
       <r>   -47.8406     0.0000     0.0000 </r>
       <r>   -47.6340    -0.0000    -0.0000 </r>
       <r>   -47.4274    -0.0000    -0.0000 </r>
       <r>   -47.2207    -0.0000    -0.0000 </r>
       <r>   -47.0141    -0.0000    -0.0000 </r>
       <r>   -46.8075    -0.0000    -0.0000 </r>
       <r>   -46.6009    -0.0558    -0.0115 </r>
       <r>   -46.3943    -1.4510    -0.3113 </r>
       <r>   -46.1877    32.1509     6.3316 </r>
       <r>   -45.9810    62.1158    19.1657 </r>
       <r>   -45.7744     4.5551    20.1069 </r>
       <r>   -45.5678    -0.5160    20.0002 </r>
       <r>   -45.3612    -0.0012    20.0000 </r>
       <r>   -45.1546    -0.0000    20.0000 </r>
       <r>   -44.9480    -0.0000    20.0000 </r>
       <r>   -44.7413     0.0000    20.0000 </r>
       <r>   -44.5347     0.0000    20.0000 </r>
       <r>   -44.3281     0.0000    20.0000 </r>
       <r>   -44.1215     0.0000    20.0000 </r>
       <r>   -43.9149     0.0000    20.0000 </r>
       <r>   -43.7083     0.0000    20.0000 </r>
       <r>   -43.5016     0.0000    20.0000 </r>
       <r>   -43.2950     0.0000    20.0000 </r>
       <r>   -43.0884     0.0000    20.0000 </r>
       <r>   -42.8818     0.0000    20.0000 </r>
       <r>   -42.6752     0.0000    20.0000 </r>
       <r>   -42.4686     0.0000    20.0000 </r>
       <r>   -42.2619     0.0000    20.0000 </r>
       <r>   -42.0553     0.0000    20.0000 </r>
       <r>   -41.8487     0.0000    20.0000 </r>
       <r>   -41.6421    -0.0000    20.0000 </r>
       <r>   -41.4355    -0.0000    20.0000 </r>
       <r>   -41.2289    -0.0000    20.0000 </r>
       <r>   -41.0222    -0.0000    20.0000 </r>
       <r>   -40.8156    -0.0000    20.0000 </r>
       <r>   -40.6090    -0.0225    19.9953 </r>
       <r>   -40.4024    -1.8252    19.6182 </r>
       <r>   -40.1958    28.8417    25.5774 </r>
       <r>   -39.9892    74.2806    40.9250 </r>
       <r>   -39.7825     5.8499    42.1337 </r>
       <r>   -39.5759    -0.6447    42.0005 </r>
       <r>   -39.3693    -0.0023    42.0000 </r>
       <r>   -39.1627    -0.0000    42.0000 </r>
       <r>   -38.9561    -0.0000    42.0000 </r>
       <r>   -38.7495     0.0000    42.0000 </r>
       <r>   -38.5429     0.0000    42.0000 </r>
       <r>   -38.3362     0.0000    42.0000 </r>
       <r>   -38.1296     0.0000    42.0000 </r>
       <r>   -37.9230     0.0000    42.0000 </r>
       <r>   -37.7164     0.0000    42.0000 </r>
       <r>   -37.5098     0.0000    42.0000 </r>
       <r>   -37.3032     0.0000    42.0000 </r>
       <r>   -37.0965     0.0000    42.0000 </r>
       <r>   -36.8899     0.0000    42.0000 </r>
       <r>   -36.6833     0.0000    42.0000 </r>
       <r>   -36.4767     0.0000    42.0000 </r>
       <r>   -36.2701     0.0000    42.0000 </r>
       <r>   -36.0635     0.0000    42.0000 </r>
       <r>   -35.8568     0.0000    42.0000 </r>
       <r>   -35.6502     0.0000    42.0000 </r>
       <r>   -35.4436     0.0000    42.0000 </r>
       <r>   -35.2370     0.0000    42.0000 </r>
       <r>   -35.0304     0.0000    42.0000 </r>
       <r>   -34.8238     0.0000    42.0000 </r>
       <r>   -34.6171     0.0000    42.0000 </r>
       <r>   -34.4105     0.0000    42.0000 </r>
       <r>   -34.2039     0.0000    42.0000 </r>
       <r>   -33.9973     0.0000    42.0000 </r>
       <r>   -33.7907     0.0000    42.0000 </r>
       <r>   -33.5841     0.0000    42.0000 </r>
       <r>   -33.3774     0.0000    42.0000 </r>
       <r>   -33.1708     0.0000    42.0000 </r>
       <r>   -32.9642     0.0000    42.0000 </r>
       <r>   -32.7576     0.0000    42.0000 </r>
       <r>   -32.5510     0.0000    42.0000 </r>
       <r>   -32.3444     0.0000    42.0000 </r>
       <r>   -32.1377     0.0000    42.0000 </r>
       <r>   -31.9311     0.0000    42.0000 </r>
       <r>   -31.7245     0.0000    42.0000 </r>
       <r>   -31.5179     0.0000    42.0000 </r>
       <r>   -31.3113     0.0000    42.0000 </r>
       <r>   -31.1047     0.0000    42.0000 </r>
       <r>   -30.8980     0.0000    42.0000 </r>
       <r>   -30.6914     0.0000    42.0000 </r>
       <r>   -30.4848     0.0000    42.0000 </r>
       <r>   -30.2782     0.0000    42.0000 </r>
       <r>   -30.0716     0.0000    42.0000 </r>
       <r>   -29.8650     0.0000    42.0000 </r>
       <r>   -29.6583     0.0000    42.0000 </r>
       <r>   -29.4517     0.0000    42.0000 </r>
       <r>   -29.2451     0.0000    42.0000 </r>
       <r>   -29.0385     0.0000    42.0000 </r>
       <r>   -28.8319     0.0000    42.0000 </r>
       <r>   -28.6253     0.0000    42.0000 </r>
       <r>   -28.4186     0.0000    42.0000 </r>
       <r>   -28.2120     0.0000    42.0000 </r>
       <r>   -28.0054     0.0000    42.0000 </r>
       <r>   -27.7988     0.0000    42.0000 </r>
       <r>   -27.5922     0.0000    42.0000 </r>
       <r>   -27.3856     0.0000    42.0000 </r>
       <r>   -27.1790     0.0000    42.0000 </r>
       <r>   -26.9723     0.0000    42.0000 </r>
       <r>   -26.7657     0.0000    42.0000 </r>
       <r>   -26.5591     0.0000    42.0000 </r>
       <r>   -26.3525     0.0000    42.0000 </r>
       <r>   -26.1459     0.0000    42.0000 </r>
       <r>   -25.9393     0.0000    42.0000 </r>
       <r>   -25.7326     0.0000    42.0000 </r>
       <r>   -25.5260     0.0000    42.0000 </r>
       <r>   -25.3194     0.0000    42.0000 </r>
       <r>   -25.1128     0.0000    42.0000 </r>
       <r>   -24.9062     0.0000    42.0000 </r>
       <r>   -24.6996     0.0000    42.0000 </r>
       <r>   -24.4929     0.0000    42.0000 </r>
       <r>   -24.2863     0.0000    42.0000 </r>
       <r>   -24.0797     0.0000    42.0000 </r>
       <r>   -23.8731    -0.0000    42.0000 </r>
       <r>   -23.6665    -0.0000    42.0000 </r>
       <r>   -23.4599    -0.0000    42.0000 </r>
       <r>   -23.2532    -0.0000    42.0000 </r>
       <r>   -23.0466    -0.0037    41.9992 </r>
       <r>   -22.8400    -0.5476    41.8861 </r>
       <r>   -22.6334     5.5462    43.0320 </r>
       <r>   -22.4268    51.7604    53.7266 </r>
       <r>   -22.2202   122.3219    79.0003 </r>
       <r>   -22.0135    94.4004    98.5049 </r>
       <r>   -21.8069    17.9379   102.2112 </r>
       <r>   -21.6003    -0.9845   102.0078 </r>
       <r>   -21.3937    -0.0377   102.0000 </r>
       <r>   -21.1871    -0.0000   102.0000 </r>
       <r>   -20.9805    -0.0000   102.0000 </r>
       <r>   -20.7738     0.0000   102.0000 </r>
       <r>   -20.5672     0.0000   102.0000 </r>
       <r>   -20.3606     0.0000   102.0000 </r>
       <r>   -20.1540     0.0000   102.0000 </r>
       <r>   -19.9474    -0.0000   102.0000 </r>
       <r>   -19.7408    -0.0000   102.0000 </r>
       <r>   -19.5341    -0.0000   102.0000 </r>
       <r>   -19.3275    -0.0000   102.0000 </r>
       <r>   -19.1209    -0.0001   102.0000 </r>
       <r>   -18.9143    -0.1099   101.9773 </r>
       <r>   -18.7077    -0.8522   101.8012 </r>
       <r>   -18.5011    35.8094   109.2000 </r>
       <r>   -18.2944    78.1055   125.3379 </r>
       <r>   -18.0878   129.8096   152.1587 </r>
       <r>   -17.8812    77.3407   168.1385 </r>
       <r>   -17.6746    -0.3607   168.0640 </r>
       <r>   -17.4680    -0.3094   168.0001 </r>
       <r>   -17.2614    -0.0003   168.0000 </r>
       <r>   -17.0548    -0.0000   168.0000 </r>
       <r>   -16.8481    -0.0000   168.0000 </r>
       <r>   -16.6415     0.0000   168.0000 </r>
       <r>   -16.4349     0.0000   168.0000 </r>
       <r>   -16.2283     0.0000   168.0000 </r>
       <r>   -16.0217     0.0000   168.0000 </r>
       <r>   -15.8151     0.0000   168.0000 </r>
       <r>   -15.6084     0.0000   168.0000 </r>
       <r>   -15.4018     0.0000   168.0000 </r>
       <r>   -15.1952     0.0000   168.0000 </r>
       <r>   -14.9886     0.0000   168.0000 </r>
       <r>   -14.7820     0.0000   168.0000 </r>
       <r>   -14.5754     0.0000   168.0000 </r>
       <r>   -14.3687     0.0000   168.0000 </r>
       <r>   -14.1621     0.0000   168.0000 </r>
       <r>   -13.9555     0.0000   168.0000 </r>
       <r>   -13.7489     0.0000   168.0000 </r>
       <r>   -13.5423     0.0000   168.0000 </r>
       <r>   -13.3357     0.0000   168.0000 </r>
       <r>   -13.1290     0.0000   168.0000 </r>
       <r>   -12.9224     0.0000   168.0000 </r>
       <r>   -12.7158     0.0000   168.0000 </r>
       <r>   -12.5092     0.0000   168.0000 </r>
       <r>   -12.3026     0.0000   168.0000 </r>
       <r>   -12.0960     0.0000   168.0000 </r>
       <r>   -11.8893     0.0000   168.0000 </r>
       <r>   -11.6827     0.0000   168.0000 </r>
       <r>   -11.4761     0.0000   168.0000 </r>
       <r>   -11.2695     0.0000   168.0000 </r>
       <r>   -11.0629     0.0000   168.0000 </r>
       <r>   -10.8563     0.0000   168.0000 </r>
       <r>   -10.6496     0.0000   168.0000 </r>
       <r>   -10.4430     0.0000   168.0000 </r>
       <r>   -10.2364     0.0000   168.0000 </r>
       <r>   -10.0298     0.0000   168.0000 </r>
       <r>    -9.8232     0.0000   168.0000 </r>
       <r>    -9.6166     0.0000   168.0000 </r>
       <r>    -9.4099     0.0000   168.0000 </r>
       <r>    -9.2033     0.0000   168.0000 </r>
       <r>    -8.9967     0.0000   168.0000 </r>
       <r>    -8.7901     0.0000   168.0000 </r>
       <r>    -8.5835     0.0000   168.0000 </r>
       <r>    -8.3769     0.0000   168.0000 </r>
       <r>    -8.1702     0.0000   168.0000 </r>
       <r>    -7.9636     0.0000   168.0000 </r>
       <r>    -7.7570     0.0000   168.0000 </r>
       <r>    -7.5504     0.0000   168.0000 </r>
       <r>    -7.3438     0.0000   168.0000 </r>
       <r>    -7.1372     0.0000   168.0000 </r>
       <r>    -6.9305     0.0000   168.0000 </r>
       <r>    -6.7239     0.0000   168.0000 </r>
       <r>    -6.5173     0.0000   168.0000 </r>
       <r>    -6.3107     0.0000   168.0000 </r>
       <r>    -6.1041     0.0000   168.0000 </r>
       <r>    -5.8975     0.0000   168.0000 </r>
       <r>    -5.6909     0.0000   168.0000 </r>
       <r>    -5.4842     0.0000   168.0000 </r>
       <r>    -5.2776     0.0000   168.0000 </r>
       <r>    -5.0710     0.0000   168.0000 </r>
       <r>    -4.8644     0.0000   168.0000 </r>
       <r>    -4.6578     0.0000   168.0000 </r>
       <r>    -4.4512     0.0000   168.0000 </r>
       <r>    -4.2445     0.0000   168.0000 </r>
       <r>    -4.0379     0.0000   168.0000 </r>
       <r>    -3.8313     0.0000   168.0000 </r>
       <r>    -3.6247     0.0000   168.0000 </r>
       <r>    -3.4181     0.0000   168.0000 </r>
       <r>    -3.2115     0.0000   168.0000 </r>
       <r>    -3.0048     0.0000   168.0000 </r>
       <r>    -2.7982     0.0000   168.0000 </r>
       <r>    -2.5916     0.0000   168.0000 </r>
       <r>    -2.3850     0.0000   168.0000 </r>
       <r>    -2.1784     0.0000   168.0000 </r>
       <r>    -1.9718     0.0000   168.0000 </r>
       <r>    -1.7651     0.0000   168.0000 </r>
       <r>    -1.5585     0.0000   168.0000 </r>
       <r>    -1.3519     0.0000   168.0000 </r>
       <r>    -1.1453     0.0000   168.0000 </r>
       <r>    -0.9387     0.0000   168.0000 </r>
       <r>    -0.7321     0.0000   168.0000 </r>
       <r>    -0.5254     0.0000   168.0000 </r>
       <r>    -0.3188     0.0000   168.0000 </r>
       <r>    -0.1122     0.0000   168.0000 </r>
       <r>     0.0944     0.0000   168.0000 </r>
       <r>     0.3010    -0.0000   168.0000 </r>
       <r>     0.5076    -0.0000   168.0000 </r>
       <r>     0.7143    -0.0000   168.0000 </r>
       <r>     0.9209    -0.0000   168.0000 </r>
       <r>     1.1275    -0.0003   167.9999 </r>
       <r>     1.3341    -0.0134   167.9972 </r>
       <r>     1.5407     0.1977   168.0380 </r>
       <r>     1.7473     0.9881   168.2422 </r>
       <r>     1.9540     1.6497   168.5831 </r>
       <r>     2.1606     1.9065   168.9770 </r>
       <r>     2.3672     3.3856   169.6765 </r>
       <r>     2.5738     3.9124   170.4849 </r>
       <r>     2.7804     1.8339   170.8638 </r>
       <r>     2.9870     5.0762   171.9126 </r>
       <r>     3.1937     3.3800   172.6110 </r>
       <r>     3.4003     4.9615   173.6361 </r>
       <r>     3.6069     7.2434   175.1327 </r>
       <r>     3.8135     8.2552   176.8383 </r>
       <r>     4.0201     8.4379   178.5818 </r>
       <r>     4.2267     8.9838   180.4380 </r>
       <r>     4.4334    12.2206   182.9629 </r>
       <r>     4.6400    19.8466   187.0636 </r>
       <r>     4.8466    20.8924   191.3803 </r>
       <r>     5.0532    26.6074   196.8778 </r>
       <r>     5.2598    33.0971   203.7162 </r>
       <r>     5.4664    37.5823   211.4813 </r>
       <r>     5.6730    42.0819   220.1761 </r>
       <r>     5.8797    41.4554   228.7415 </r>
       <r>     6.0863    36.3166   236.2451 </r>
       <r>     6.2929    34.7208   243.4190 </r>
       <r>     6.4995    24.3786   248.4560 </r>
       <r>     6.7061    29.5497   254.5614 </r>
       <r>     6.9127    58.3038   266.6080 </r>
       <r>     7.1194    60.9922   279.2099 </r>
       <r>     7.3260    57.4038   291.0705 </r>
       <r>     7.5326    53.7526   302.1767 </r>
       <r>     7.7392    54.9046   313.5209 </r>
       <r>     7.9458    51.1222   324.0836 </r>
       <r>     8.1524    49.9771   334.4096 </r>
       <r>     8.3591    50.4546   344.8344 </r>
       <r>     8.5657    49.7951   355.1229 </r>
       <r>     8.7723    38.9916   363.1792 </r>
       <r>     8.9789    27.8469   368.9328 </r>
       <r>     9.1855    23.3326   373.7537 </r>
       <r>     9.3921    21.2564   378.1456 </r>
       <r>     9.5988    11.3540   380.4915 </r>
       <r>     9.8054    22.3999   385.1197 </r>
       <r>    10.0120    25.5413   390.3969 </r>
       <r>    10.2186     8.2178   392.0949 </r>
       <r>    10.4252    -0.4466   392.0026 </r>
       <r>    10.6318    -0.0126   392.0000 </r>
       <r>    10.8385    -0.0000   392.0000 </r>
       <r>    11.0451    -0.0000   392.0000 </r>
       <r>    11.2517     0.0000   392.0000 </r>
       <r>    11.4583     0.0000   392.0000 </r>
       <r>    11.6649     0.0000   392.0000 </r>
       <r>    11.8715     0.0000   392.0000 </r>
       <r>    12.0782     0.0000   392.0000 </r>
       <r>    12.2848     0.0000   392.0000 </r>
       <r>    12.4914     0.0000   392.0000 </r>
       <r>    12.6980     0.0000   392.0000 </r>
       <r>    12.9046     0.0000   392.0000 </r>
      </set>
     </set>
    </array>
   </total>
  </dos>
 </calculation>
 <structure name="finalpos" >
  <crystal>
   <varray name="basis" >
    <v>       6.98655001       0.00416410      -0.01050931 </v>
    <v>       0.00586995      10.34388273       0.01244423 </v>
    <v>      -0.01497216       0.01215421      10.17854780 </v>
   </varray>
   <i name="volume">    735.58090706 </i>
   <varray name="rec_basis" >
    <v>       0.14313253      -0.00008148       0.00021064 </v>
    <v>      -0.00005779       0.09667567      -0.00011553 </v>
    <v>       0.00014785      -0.00011828       0.09824620 </v>
   </varray>
  </crystal>
  <varray name="positions" >
   <v>       0.99002426       0.34751683       0.01078546 </v>
   <v>       0.99521855       0.66084841       0.99450938 </v>
   <v>       0.25492340       0.82735201       0.16459765 </v>
   <v>       0.48218851       0.99741580       0.66525076 </v>
   <v>       0.74411211       0.82459619       0.18113368 </v>
   <v>       0.77133019       0.83521931       0.49918149 </v>
   <v>       0.23345103       0.49641835       0.48848568 </v>
   <v>       0.01832045       0.66959023       0.68172575 </v>
   <v>       0.75633550       0.49781004       0.49351579 </v>
   <v>       0.26125660       0.17085355       0.16333322 </v>
   <v>       0.98445498       0.99356062       0.99058034 </v>
   <v>       0.76577710       0.16909889       0.50205175 </v>
   <v>       0.25580439       0.17361722       0.84053140 </v>
   <v>       0.75667550       0.17529837       0.82048993 </v>
   <v>       0.26162239       0.50608095       0.17575125 </v>
   <v>       0.52620163       0.98376336       0.98568473 </v>
   <v>       0.73886378       0.17024897       0.17567146 </v>
   <v>       0.47389416       0.99774843       0.35102006 </v>
   <v>       0.73849563       0.48730297       0.81849740 </v>
   <v>       0.48595474       0.67141140       0.66528647 </v>
   <v>       0.23116062       0.17316656       0.50192742 </v>
   <v>       0.49729738       0.33166650       0.34623351 </v>
   <v>       0.26774587       0.49128440       0.83565121 </v>
   <v>       0.99295077       0.33246864       0.31617030 </v>
   <v>       0.02994421       0.33679920       0.67115005 </v>
   <v>       0.99607046       0.66768895       0.32419295 </v>
   <v>       0.21902958       0.82983926       0.49294741 </v>
   <v>       0.25416096       0.83216439       0.84851728 </v>
   <v>       0.51105752       0.35205652       0.00141172 </v>
   <v>       0.75524460       0.83064225       0.81627417 </v>
   <v>       0.73275798       0.50914605       0.17879302 </v>
   <v>       0.50329462       0.66448186       0.98804579 </v>
   <v>       0.02156180       0.00460793       0.33809241 </v>
   <v>       0.02533372       0.98837277       0.67200339 </v>
   <v>       0.47510815       0.32502775       0.64956244 </v>
   <v>       0.49238187       0.67483701       0.35094727 </v>
  </varray>
 </structure>
</modeling>
