<?xml version="1.0" encoding="ISO-8859-1"?>
<modeling>
 <generator>
  <i name="program" type="string">vasp </i>
  <i name="version" type="string">5.4.1  </i>
  <i name="subversion" type="string">05Feb16 (build Jan 29 2020 16:04:39) complex                          parallel </i>
  <i name="platform" type="string">IFC91_ompi </i>
  <i name="date" type="string">2020 04 29 </i>
  <i name="time" type="string">02:00:34 </i>
 </generator>
 <incar>
  <i type="string" name="SYSTEM"> automatically generated by mexm</i>
  <i type="int" name="ISTART">     0</i>
  <i type="string" name="PREC">accurate               ! avoid wrap aro</i>
  <i type="string" name="ALGO"> Fast                   ! blocked Davids</i>
  <i type="int" name="ISPIN">     1</i>
  <i type="int" name="ICHARG">     2</i>
  <i type="int" name="NELM">    70</i>
  <i type="int" name="IBRION">     2</i>
  <i name="EDIFF">      0.00001000</i>
  <i name="EDIFFG">     -0.01000000</i>
  <i type="int" name="NSW">   300</i>
  <i type="int" name="ISIF">     3</i>
  <i type="int" name="ISYM">     1</i>
  <i name="ENCUT">    300.00000000</i>
  <i name="POTIM">      0.15000000</i>
  <i type="string" name="LREAL"> Auto                  ! unpublished met</i>
  <i type="int" name="ISMEAR">     1</i>
  <i name="SIGMA">      0.15000000</i>
  <i type="logical" name="LWAVE"> F  </i>
  <i type="logical" name="LCHARG"> F  </i>
  <i type="logical" name="LVTOT"> F  </i>
  <v type="int" name="KPOINT_BSE">    -1     0     0     0</v>
  <i type="int" name="NELM">    70</i>
 </incar>
 <kpoints>
  <generation param="Gamma">
   <v type="int" name="divisions">       3        3        3 </v>
   <v name="usershift">      0.00000000       0.00000000       0.00000000 </v>
   <v name="genvec1">      0.33333333       0.00000000       0.00000000 </v>
   <v name="genvec2">      0.00000000       0.33333333       0.00000000 </v>
   <v name="genvec3">     -0.00000000       0.00000000       0.33333333 </v>
   <v name="shift">      0.00000000       0.00000000       0.00000000 </v>
  </generation>
  <varray name="kpointlist" >
   <v>       0.00000000       0.00000000       0.00000000 </v>
   <v>       0.33333333      -0.00000000       0.00000000 </v>
   <v>      -0.00000000       0.33333333       0.00000000 </v>
   <v>       0.33333333       0.33333333       0.00000000 </v>
   <v>      -0.33333333       0.33333333      -0.00000000 </v>
   <v>       0.00000000      -0.00000000       0.33333333 </v>
   <v>       0.33333333      -0.00000000       0.33333333 </v>
   <v>      -0.33333333      -0.00000000       0.33333333 </v>
   <v>      -0.00000000       0.33333333       0.33333333 </v>
   <v>       0.33333333       0.33333333       0.33333333 </v>
   <v>      -0.33333333       0.33333333       0.33333333 </v>
   <v>       0.00000000      -0.33333333       0.33333333 </v>
   <v>       0.33333333      -0.33333333       0.33333333 </v>
   <v>      -0.33333333      -0.33333333       0.33333333 </v>
  </varray>
  <varray name="weights" >
   <v>       0.03703704 </v>
   <v>       0.07407407 </v>
   <v>       0.07407407 </v>
   <v>       0.07407407 </v>
   <v>       0.07407407 </v>
   <v>       0.07407407 </v>
   <v>       0.07407407 </v>
   <v>       0.07407407 </v>
   <v>       0.07407407 </v>
   <v>       0.07407407 </v>
   <v>       0.07407407 </v>
   <v>       0.07407407 </v>
   <v>       0.07407407 </v>
   <v>       0.07407407 </v>
  </varray>
 </kpoints>
 <parameters>
  <separator name="general" >
   <i type="string" name="SYSTEM">automatically generated by mexm</i>
   <i type="logical" name="LCOMPAT"> F  </i>
  </separator>
  <separator name="electronic" >
   <i type="string" name="PREC">accura</i>
   <i name="ENMAX">    300.00000000</i>
   <i name="ENAUG">    358.96600000</i>
   <i name="EDIFF">      0.00001000</i>
   <i type="int" name="IALGO">    68</i>
   <i type="int" name="IWAVPR">    11</i>
   <i type="int" name="NBANDS">   204</i>
   <i name="NELECT">    336.00000000</i>
   <i type="int" name="TURBO">     0</i>
   <i type="int" name="IRESTART">     0</i>
   <i type="int" name="NREBOOT">     0</i>
   <i type="int" name="NMIN">     0</i>
   <i name="EREF">      0.00000000</i>
   <separator name="electronic smearing" >
    <i type="int" name="ISMEAR">     1</i>
    <i name="SIGMA">      0.15000000</i>
    <i name="KSPACING">      0.50000000</i>
    <i type="logical" name="KGAMMA"> T  </i>
   </separator>
   <separator name="electronic projectors" >
    <i type="logical" name="LREAL"> T  </i>
    <v name="ROPT">     -0.00025000     -0.00025000</v>
    <i type="int" name="LMAXPAW">  -100</i>
    <i type="int" name="LMAXMIX">     2</i>
    <i type="logical" name="NLSPLINE"> F  </i>
   </separator>
   <separator name="electronic startup" >
    <i type="int" name="ISTART">     0</i>
    <i type="int" name="ICHARG">     2</i>
    <i type="int" name="INIWAV">     1</i>
   </separator>
   <separator name="electronic spin" >
    <i type="int" name="ISPIN">     1</i>
    <i type="logical" name="LNONCOLLINEAR"> F  </i>
    <v name="MAGMOM">      1.00000000      1.00000000      1.00000000      1.00000000      1.00000000      1.00000000      1.00000000      1.00000000      1.00000000      1.00000000      1.00000000      1.00000000      1.00000000      1.00000000      1.00000000      1.00000000      1.00000000      1.00000000      1.00000000      1.00000000
      1.00000000      1.00000000      1.00000000      1.00000000      1.00000000      1.00000000      1.00000000      1.00000000      1.00000000      1.00000000      1.00000000      1.00000000</v>
    <i name="NUPDOWN">     -1.00000000</i>
    <i type="logical" name="LSORBIT"> F  </i>
    <v name="SAXIS">      0.00000000      0.00000000      1.00000000</v>
    <i type="logical" name="LSPIRAL"> F  </i>
    <v name="QSPIRAL">      0.00000000      0.00000000      0.00000000</v>
    <i type="logical" name="LZEROZ"> F  </i>
   </separator>
   <separator name="electronic exchange-correlation" >
    <i type="logical" name="LASPH"> F  </i>
    <i type="logical" name="LMETAGGA"> F  </i>
   </separator>
   <separator name="electronic convergence" >
    <i type="int" name="NELM">    70</i>
    <i type="int" name="NELMDL">    -5</i>
    <i type="int" name="NELMIN">     2</i>
    <i name="ENINI">    300.00000000</i>
    <separator name="electronic convergence detail" >
     <i type="logical" name="LDIAG"> T  </i>
     <i type="logical" name="LSUBROT"> F  </i>
     <i name="WEIMIN">      0.00100000</i>
     <i name="EBREAK">      0.00000001</i>
     <i name="DEPER">      0.30000000</i>
     <i type="int" name="NRMM">     4</i>
     <i name="TIME">      0.40000000</i>
    </separator>
   </separator>
   <separator name="electronic mixer" >
    <i name="AMIX">      0.40000000</i>
    <i name="BMIX">      1.00000000</i>
    <i name="AMIN">      0.10000000</i>
    <i name="AMIX_MAG">      1.60000000</i>
    <i name="BMIX_MAG">      1.00000000</i>
    <separator name="electronic mixer details" >
     <i type="int" name="IMIX">     4</i>
     <i type="logical" name="MIXFIRST"> F  </i>
     <i type="int" name="MAXMIX">   -45</i>
     <i name="WC">    100.00000000</i>
     <i type="int" name="INIMIX">     1</i>
     <i type="int" name="MIXPRE">     1</i>
     <i type="int" name="MREMOVE">     5</i>
    </separator>
   </separator>
   <separator name="electronic dipolcorrection" >
    <i type="logical" name="LDIPOL"> F  </i>
    <i type="logical" name="LMONO"> F  </i>
    <i type="int" name="IDIPOL">     0</i>
    <i name="EPSILON">      1.00000000</i>
    <v name="DIPOL">   -100.00000000   -100.00000000   -100.00000000</v>
    <i name="EFIELD">      0.00000000</i>
   </separator>
  </separator>
  <separator name="grids" >
   <i type="int" name="NGX">    48</i>
   <i type="int" name="NGY">    48</i>
   <i type="int" name="NGZ">    48</i>
   <i type="int" name="NGXF">    96</i>
   <i type="int" name="NGYF">    96</i>
   <i type="int" name="NGZF">    96</i>
   <i type="logical" name="ADDGRID"> F  </i>
  </separator>
  <separator name="ionic" >
   <i type="int" name="NSW">   300</i>
   <i type="int" name="IBRION">     2</i>
   <i type="int" name="ISIF">     3</i>
   <i name="PSTRESS">      0.00000000</i>
   <i name="EDIFFG">     -0.01000000</i>
   <i type="int" name="NFREE">     1</i>
   <i name="POTIM">      0.15000000</i>
   <i name="SMASS">     -3.00000000</i>
   <i name="SCALEE">      1.00000000</i>
  </separator>
  <separator name="ionic md" >
   <i name="TEBEG">      0.00010000</i>
   <i name="TEEND">      0.00010000</i>
   <i type="int" name="NBLOCK">     1</i>
   <i type="int" name="KBLOCK">   300</i>
   <i type="int" name="NPACO">   256</i>
   <i name="APACO">     16.00000000</i>
  </separator>
  <separator name="symmetry" >
   <i type="int" name="ISYM">     1</i>
   <i name="SYMPREC">      0.00001000</i>
  </separator>
  <separator name="dos" >
   <i type="logical" name="LORBIT"> F  </i>
   <v name="RWIGS">     -1.00000000     -1.00000000</v>
   <i type="int" name="NEDOS">   301</i>
   <i name="EMIN">     10.00000000</i>
   <i name="EMAX">    -10.00000000</i>
   <i name="EFERMI">      0.00000000</i>
  </separator>
  <separator name="writing" >
   <i type="int" name="NWRITE">     2</i>
   <i type="logical" name="LWAVE"> F  </i>
   <i type="logical" name="LCHARG"> F  </i>
   <i type="logical" name="LPARD"> F  </i>
   <i type="logical" name="LVTOT"> F  </i>
   <i type="logical" name="LVHAR"> F  </i>
   <i type="logical" name="LELF"> F  </i>
   <i type="logical" name="LOPTICS"> F  </i>
   <v name="STM">      0.00000000      0.00000000      0.00000000      0.00000000      0.00000000      0.00000000      0.00000000</v>
  </separator>
  <separator name="performance" >
   <i type="int" name="NPAR">     4</i>
   <i type="int" name="NSIM">     4</i>
   <i type="int" name="NBLK">    -1</i>
   <i type="logical" name="LPLANE"> T  </i>
   <i type="logical" name="LSCALAPACK"> T  </i>
   <i type="logical" name="LSCAAWARE"> F  </i>
   <i type="logical" name="LSCALU"> F  </i>
   <i type="logical" name="LASYNC"> F  </i>
   <i type="logical" name="LORBITALREAL"> F  </i>
  </separator>
  <separator name="miscellaneous" >
   <i type="int" name="IDIOT">     3</i>
   <i type="logical" name="LMUSIC"> F  </i>
   <v name="POMASS">    195.08000000    196.96600000</v>
   <v name="DARWINR">      0.00000000      0.00000000</v>
   <v name="DARWINV">      1.00000000      1.00000000</v>
   <i type="logical" name="LCORR"> T  </i>
  </separator>
  <i type="logical" name="GGA_COMPAT"> T  </i>
  <i type="logical" name="LBERRY"> F  </i>
  <i type="int" name="ICORELEVEL">     0</i>
  <i type="logical" name="LDAU"> F  </i>
  <i type="int" name="I_CONSTRAINED_M">     0</i>
  <separator name="electronic exchange-correlation" >
   <i type="string" name="GGA">--</i>
   <i type="int" name="VOSKOWN">     0</i>
   <i type="logical" name="LHFCALC"> F  </i>
   <i type="string" name="PRECFOCK"></i>
   <i type="logical" name="LSYMGRAD"> F  </i>
   <i type="logical" name="LHFONE"> F  </i>
   <i type="logical" name="LRHFCALC"> F  </i>
   <i type="logical" name="LTHOMAS"> F  </i>
   <i type="logical" name="LMODELHF"> F  </i>
   <i name="ENCUT4O">     -1.00000000</i>
   <i type="int" name="EXXOEP">     0</i>
   <i type="int" name="FOURORBIT">     0</i>
   <i name="AEXX">      0.00000000</i>
   <i name="HFALPHA">      0.00000000</i>
   <i name="MCALPHA">      0.00000000</i>
   <i name="ALDAX">      1.00000000</i>
   <i name="AGGAX">      1.00000000</i>
   <i name="ALDAC">      1.00000000</i>
   <i name="AGGAC">      1.00000000</i>
   <i type="int" name="NKREDX">     1</i>
   <i type="int" name="NKREDY">     1</i>
   <i type="int" name="NKREDZ">     1</i>
   <i type="logical" name="SHIFTRED"> F  </i>
   <i type="logical" name="ODDONLY"> F  </i>
   <i type="logical" name="EVENONLY"> F  </i>
   <i type="int" name="LMAXFOCK">     0</i>
   <i type="int" name="NMAXFOCKAE">     0</i>
   <i type="logical" name="LFOCKAEDFT"> F  </i>
   <i name="HFSCREEN">      0.00000000</i>
   <i name="HFSCREENC">      0.00000000</i>
   <i type="int" name="NBANDSGWLOW">     0</i>
  </separator>
  <separator name="vdW DFT" >
   <i type="logical" name="LUSE_VDW"> F  </i>
   <i name="Zab_VDW">     -0.84910000</i>
   <i name="PARAM1">      0.12340000</i>
   <i name="PARAM2">      1.00000000</i>
   <i name="PARAM3">      0.00000000</i>
  </separator>
  <separator name="model GW" >
   <i type="int" name="MODEL_GW">     0</i>
   <i name="MODEL_EPS0">     10.02165571</i>
   <i name="MODEL_ALPHA">      1.00000000</i>
  </separator>
  <separator name="linear response parameters" >
   <i type="logical" name="LEPSILON"> F  </i>
   <i type="logical" name="LRPA"> F  </i>
   <i type="logical" name="LNABLA"> F  </i>
   <i type="logical" name="LVEL"> F  </i>
   <i type="int" name="KINTER">     0</i>
   <i name="CSHIFT">      0.10000000</i>
   <i name="OMEGAMAX">     -1.00000000</i>
   <i name="DEG_THRESHOLD">      0.00200000</i>
  </separator>
  <separator name="orbital magnetization" >
   <i type="logical" name="NUCIND"> F  </i>
   <v name="MAGPOS">      0.00000000      0.00000000      0.00000000</v>
   <i type="logical" name="LNICSALL"> T  </i>
   <i type="logical" name="ORBITALMAG"> F  </i>
   <i type="logical" name="LMAGBLOCH"> F  </i>
   <i type="logical" name="LCHIMAG"> F  </i>
   <i type="logical" name="LGAUGE"> T  </i>
   <i type="int" name="MAGATOM">     0</i>
   <v name="MAGDIPOL">      0.00000000      0.00000000      0.00000000</v>
   <v name="AVECCONST">      0.00000000      0.00000000      0.00000000</v>
  </separator>
  <separator name="response functions" >
   <i type="logical" name="LADDER"> F  </i>
   <i type="logical" name="LFXC"> F  </i>
   <i type="logical" name="LHARTREE"> T  </i>
   <i type="int" name="IBSE">     0</i>
   <v type="int" name="KPOINT">    -1     0     0     0</v>
   <i type="logical" name="LTCTE"> F  </i>
   <i type="logical" name="LTETE"> F  </i>
   <i type="logical" name="LTRIPLET"> F  </i>
   <i type="logical" name="LFXCEPS"> F  </i>
   <i type="logical" name="LFXHEG"> F  </i>
   <i type="int" name="NATURALO">     0</i>
   <i type="logical" name="L2ORDER"> F  </i>
   <i type="logical" name="LUSEW"> F  </i>
   <i name="ENCUTGW">     -2.00000000</i>
   <i name="ENCUTGWSOFT">     -2.00000000</i>
   <i name="ENCUTLF">     -1.00000000</i>
   <i type="int" name="LMAXMP2">    -1</i>
   <i name="SCISSOR">      0.00000000</i>
   <i type="int" name="NOMEGA">     0</i>
   <i type="int" name="NOMEGAR">     0</i>
   <i type="int" name="NBANDSGW">    -1</i>
   <i type="int" name="NBANDSO">    -1</i>
   <i type="int" name="NBANDSV">    -1</i>
   <i type="int" name="NELM">    70</i>
   <i type="int" name="NELMHF">     1</i>
   <i type="int" name="DIM">     3</i>
   <i type="int" name="ANTIRES">     0</i>
   <i name="OMEGAMAX">    -30.00000000</i>
   <i name="OMEGAMIN">    -30.00000000</i>
   <i name="OMEGATL">   -200.00000000</i>
   <i type="int" name="OMEGAGRID">     0</i>
   <i name="CSHIFT">     -0.10000000</i>
   <i type="logical" name="SELFENERGY"> F  </i>
   <i type="logical" name="LSPECTRAL"> F  </i>
   <i type="logical" name="LSPECTRALGW"> F  </i>
   <i type="logical" name="LSINGLES"> F  </i>
   <i type="logical" name="LFERMIGW"> F  </i>
   <i type="logical" name="ODDONLYGW"> F  </i>
   <i type="logical" name="EVENONLYGW"> F  </i>
   <i type="int" name="NKREDLFX">     1</i>
   <i type="int" name="NKREDLFY">     1</i>
   <i type="int" name="NKREDLFZ">     1</i>
   <i type="int" name="MAXMEM">  1800</i>
   <i type="int" name="TELESCOPE">     0</i>
   <i type="int" name="TAUPAR">     1</i>
   <i type="int" name="OMEGAPAR">    -1</i>
   <i name="LAMBDA">      1.00000000</i>
  </separator>
  <separator name="External order field" >
   <i name="OFIELD_KAPPA">      0.00000000</i>
   <v name="OFIELD_K">      0.00000000      0.00000000      0.00000000</v>
   <i name="OFIELD_Q6_NEAR">      0.00000000</i>
   <i name="OFIELD_Q6_FAR">      0.00000000</i>
   <i name="OFIELD_A">      0.00000000</i>
  </separator>
 </parameters>
 <atominfo>
  <atoms>      32 </atoms>
  <types>       2 </types>
  <array name="atoms" >
   <dimension dim="1">ion</dimension>
   <field type="string">element</field>
   <field type="int">atomtype</field>
   <set>
    <rc><c>Pt</c><c>   1</c></rc>
    <rc><c>Pt</c><c>   1</c></rc>
    <rc><c>Pt</c><c>   1</c></rc>
    <rc><c>Pt</c><c>   1</c></rc>
    <rc><c>Pt</c><c>   1</c></rc>
    <rc><c>Pt</c><c>   1</c></rc>
    <rc><c>Pt</c><c>   1</c></rc>
    <rc><c>Pt</c><c>   1</c></rc>
    <rc><c>Pt</c><c>   1</c></rc>
    <rc><c>Pt</c><c>   1</c></rc>
    <rc><c>Pt</c><c>   1</c></rc>
    <rc><c>Pt</c><c>   1</c></rc>
    <rc><c>Pt</c><c>   1</c></rc>
    <rc><c>Pt</c><c>   1</c></rc>
    <rc><c>Pt</c><c>   1</c></rc>
    <rc><c>Pt</c><c>   1</c></rc>
    <rc><c>Au</c><c>   2</c></rc>
    <rc><c>Au</c><c>   2</c></rc>
    <rc><c>Au</c><c>   2</c></rc>
    <rc><c>Au</c><c>   2</c></rc>
    <rc><c>Au</c><c>   2</c></rc>
    <rc><c>Au</c><c>   2</c></rc>
    <rc><c>Au</c><c>   2</c></rc>
    <rc><c>Au</c><c>   2</c></rc>
    <rc><c>Au</c><c>   2</c></rc>
    <rc><c>Au</c><c>   2</c></rc>
    <rc><c>Au</c><c>   2</c></rc>
    <rc><c>Au</c><c>   2</c></rc>
    <rc><c>Au</c><c>   2</c></rc>
    <rc><c>Au</c><c>   2</c></rc>
    <rc><c>Au</c><c>   2</c></rc>
    <rc><c>Au</c><c>   2</c></rc>
   </set>
  </array>
  <array name="atomtypes" >
   <dimension dim="1">type</dimension>
   <field type="int">atomspertype</field>
   <field type="string">element</field>
   <field>mass</field>
   <field>valence</field>
   <field type="string">pseudopotential</field>
   <set>
    <rc><c>  16</c><c>Pt</c><c>    195.08000000</c><c>     10.00000000</c><c>  PAW_PBE Pt 04Feb2005                  </c></rc>
    <rc><c>  16</c><c>Au</c><c>    196.96600000</c><c>     11.00000000</c><c>  PAW_PBE Au 04Oct2007                  </c></rc>
   </set>
  </array>
 </atominfo>
 <structure name="initialpos" >
  <crystal>
   <varray name="basis" >
    <v>       8.18123884       0.00585060       0.00845912 </v>
    <v>       0.00590505       8.11843641      -0.02093744 </v>
    <v>       0.00857297      -0.02109088       8.04730355 </v>
   </varray>
   <i name="volume">    534.48830432 </i>
   <varray name="rec_basis" >
    <v>       0.12223108      -0.00008924      -0.00013045 </v>
    <v>      -0.00008842       0.12317733       0.00032293 </v>
    <v>      -0.00012872       0.00032058       0.12426620 </v>
   </varray>
  </crystal>
  <varray name="positions" >
   <v>       0.25661700       0.99722900       0.25227300 </v>
   <v>       0.99980700       0.99673800       0.50349100 </v>
   <v>       0.99951500       0.50172500       0.99881600 </v>
   <v>       0.24987500       0.74812300       0.99849600 </v>
   <v>       0.99946200       0.50262000       0.50214500 </v>
   <v>       0.24921000       0.50673200       0.75044400 </v>
   <v>       0.00168100       0.74838200       0.75171500 </v>
   <v>       0.74781000       0.25290600       0.00033900 </v>
   <v>       0.50345800       0.25094500       0.25362100 </v>
   <v>       0.50067300       0.99994100       0.49984300 </v>
   <v>       0.74687300       0.99972200       0.74755000 </v>
   <v>       0.50346100       0.24964700       0.74560000 </v>
   <v>       0.74777500       0.49579200       0.24916900 </v>
   <v>       0.49651200       0.75016800       0.25224200 </v>
   <v>       0.49976300       0.49978900       0.49956200 </v>
   <v>       0.49626800       0.74905900       0.74565500 </v>
   <v>       0.99989000       0.99948000       0.99917200 </v>
   <v>       0.25320300       0.25133400       0.99974800 </v>
   <v>       0.00093700       0.24985300       0.25052300 </v>
   <v>       0.25146400       0.25053500       0.50109600 </v>
   <v>       0.25130300       0.99894100       0.74960600 </v>
   <v>       0.99931300       0.25119900       0.75145300 </v>
   <v>       0.25010200       0.50038100       0.25028000 </v>
   <v>       0.00020100       0.74932600       0.24900000 </v>
   <v>       0.24905800       0.75033000       0.49992600 </v>
   <v>       0.50065500       0.00005300       0.99910600 </v>
   <v>       0.74874400       0.00056500       0.25068600 </v>
   <v>       0.75146100       0.24993800       0.50025300 </v>
   <v>       0.49922000       0.50029000       0.99922800 </v>
   <v>       0.74782800       0.74878400       0.99898700 </v>
   <v>       0.74865600       0.74886300       0.50005700 </v>
   <v>       0.74920700       0.50060800       0.74991800 </v>
  </varray>
 </structure>
 <calculation>
  <scstep>
   <time name="dav">    0.78    0.78</time>
   <time name="total">    0.81    0.81</time>
   <energy>
    <i name="alphaZ">   2021.18705210 </i>
    <i name="ewald"> -28729.48025132 </i>
    <i name="hartreedc">  -3271.08083377 </i>
    <i name="XCdc">    306.18496785 </i>
    <i name="pawpsdc">  25123.53662050 </i>
    <i name="pawaedc"> -24301.60687689 </i>
    <i name="eentropy">      0.00365555 </i>
    <i name="bandstr">   3989.25292842 </i>
    <i name="atom">  26481.87638256 </i>
    <i name="e_fr_energy">   1619.87364500 </i>
    <i name="e_wo_entrp">   1619.86998945 </i>
    <i name="e_0_energy">   1619.87242648 </i>
   </energy>
  </scstep>
  <scstep>
   <time name="dav">    0.93    0.95</time>
   <time name="total">    0.94    0.97</time>
   <energy>
    <i name="e_fr_energy">    -85.26251680 </i>
    <i name="e_wo_entrp">    -85.26842065 </i>
    <i name="e_0_energy">    -85.26448475 </i>
   </energy>
  </scstep>
  <scstep>
   <time name="dav">    0.96    0.96</time>
   <time name="total">    0.96    0.97</time>
   <energy>
    <i name="e_fr_energy">   -156.30993610 </i>
    <i name="e_wo_entrp">   -156.29308785 </i>
    <i name="e_0_energy">   -156.30432002 </i>
   </energy>
  </scstep>
  <scstep>
   <time name="dav">    0.94    0.95</time>
   <time name="total">    1.04    1.06</time>
   <energy>
    <i name="e_fr_energy">   -157.61100004 </i>
    <i name="e_wo_entrp">   -157.59308584 </i>
    <i name="e_0_energy">   -157.60502864 </i>
   </energy>
  </scstep>
  <scstep>
   <time name="dav">    0.87    0.88</time>
   <time name="total">    0.90    0.92</time>
   <energy>
    <i name="e_fr_energy">   -157.63767675 </i>
    <i name="e_wo_entrp">   -157.61979196 </i>
    <i name="e_0_energy">   -157.63171516 </i>
   </energy>
  </scstep>
  <scstep>
   <time name="diag">    0.08    0.08</time>
   <time name="diis">    0.43    0.43</time>
   <time name="orth">    0.01    0.01</time>
   <time name="total">    0.58    0.58</time>
   <energy>
    <i name="e_fr_energy">   -148.41784028 </i>
    <i name="e_wo_entrp">   -148.41055147 </i>
    <i name="e_0_energy">   -148.41541068 </i>
   </energy>
  </scstep>
  <scstep>
   <time name="diag">    0.09    0.09</time>
   <time name="diis">    0.42    0.42</time>
   <time name="orth">    0.01    0.01</time>
   <time name="total">    0.57    0.58</time>
   <energy>
    <i name="e_fr_energy">   -148.89230746 </i>
    <i name="e_wo_entrp">   -148.90846173 </i>
    <i name="e_0_energy">   -148.89769222 </i>
   </energy>
  </scstep>
  <scstep>
   <time name="diag">    0.08    0.08</time>
   <time name="diis">    0.41    0.41</time>
   <time name="orth">    0.01    0.01</time>
   <time name="total">    0.55    0.56</time>
   <energy>
    <i name="e_fr_energy">   -148.48969531 </i>
    <i name="e_wo_entrp">   -148.50402964 </i>
    <i name="e_0_energy">   -148.49447342 </i>
   </energy>
  </scstep>
  <scstep>
   <time name="diag">    0.08    0.08</time>
   <time name="diis">    0.43    0.43</time>
   <time name="orth">    0.01    0.01</time>
   <time name="total">    0.58    0.59</time>
   <energy>
    <i name="e_fr_energy">   -147.51294691 </i>
    <i name="e_wo_entrp">   -147.51472761 </i>
    <i name="e_0_energy">   -147.51354048 </i>
   </energy>
  </scstep>
  <scstep>
   <time name="diag">    0.09    0.09</time>
   <time name="diis">    0.46    0.46</time>
   <time name="orth">    0.01    0.01</time>
   <time name="total">    0.61    0.62</time>
   <energy>
    <i name="e_fr_energy">   -147.20010945 </i>
    <i name="e_wo_entrp">   -147.19168767 </i>
    <i name="e_0_energy">   -147.19730219 </i>
   </energy>
  </scstep>
  <scstep>
   <time name="diag">    0.16    0.16</time>
   <time name="diis">    0.41    0.41</time>
   <time name="orth">    0.01    0.01</time>
   <time name="total">    0.64    0.64</time>
   <energy>
    <i name="e_fr_energy">   -147.13135240 </i>
    <i name="e_wo_entrp">   -147.12285867 </i>
    <i name="e_0_energy">   -147.12852116 </i>
   </energy>
  </scstep>
  <scstep>
   <time name="diag">    0.08    0.08</time>
   <time name="diis">    0.41    0.41</time>
   <time name="orth">    0.01    0.01</time>
   <time name="total">    0.56    0.57</time>
   <energy>
    <i name="e_fr_energy">   -147.12429109 </i>
    <i name="e_wo_entrp">   -147.11712450 </i>
    <i name="e_0_energy">   -147.12190223 </i>
   </energy>
  </scstep>
  <scstep>
   <time name="diag">    0.08    0.08</time>
   <time name="diis">    0.44    0.44</time>
   <time name="orth">    0.01    0.01</time>
   <time name="total">    0.59    0.59</time>
   <energy>
    <i name="e_fr_energy">   -147.12245730 </i>
    <i name="e_wo_entrp">   -147.11469091 </i>
    <i name="e_0_energy">   -147.11986851 </i>
   </energy>
  </scstep>
  <scstep>
   <time name="diag">    0.08    0.08</time>
   <time name="diis">    0.41    0.41</time>
   <time name="orth">    0.01    0.01</time>
   <time name="total">    0.55    0.56</time>
   <energy>
    <i name="e_fr_energy">   -147.12272535 </i>
    <i name="e_wo_entrp">   -147.11396862 </i>
    <i name="e_0_energy">   -147.11980644 </i>
   </energy>
  </scstep>
  <scstep>
   <time name="diag">    0.08    0.08</time>
   <time name="diis">    0.41    0.41</time>
   <time name="orth">    0.01    0.01</time>
   <time name="total">    0.56    0.57</time>
   <energy>
    <i name="e_fr_energy">   -147.12214896 </i>
    <i name="e_wo_entrp">   -147.11432095 </i>
    <i name="e_0_energy">   -147.11953963 </i>
   </energy>
  </scstep>
  <scstep>
   <time name="diag">    0.08    0.08</time>
   <time name="diis">    0.41    0.41</time>
   <time name="orth">    0.01    0.01</time>
   <time name="total">    0.55    0.56</time>
   <energy>
    <i name="e_fr_energy">   -147.12208230 </i>
    <i name="e_wo_entrp">   -147.11395494 </i>
    <i name="e_0_energy">   -147.11937318 </i>
   </energy>
  </scstep>
  <scstep>
   <time name="diag">    0.08    0.08</time>
   <time name="diis">    0.31    0.31</time>
   <time name="orth">    0.01    0.01</time>
   <time name="total">    0.46    0.47</time>
   <energy>
    <i name="e_fr_energy">   -147.12204597 </i>
    <i name="e_wo_entrp">   -147.11398685 </i>
    <i name="e_0_energy">   -147.11935960 </i>
   </energy>
  </scstep>
  <scstep>
   <time name="diag">    0.08    0.08</time>
   <time name="diis">    0.23    0.23</time>
   <time name="orth">    0.01    0.01</time>
   <time name="total">    0.37    0.37</time>
   <energy>
    <i name="alphaZ">   2021.18705210 </i>
    <i name="ewald"> -28729.48025132 </i>
    <i name="hartreedc">  -2936.30975666 </i>
    <i name="XCdc">    292.43711045 </i>
    <i name="pawpsdc">  30944.98483707 </i>
    <i name="pawaedc"> -30205.93084510 </i>
    <i name="eentropy">     -0.00802296 </i>
    <i name="bandstr">   1984.12145057 </i>
    <i name="atom">  26481.87638256 </i>
    <i name="e_fr_energy">   -147.12204329 </i>
    <i name="e_wo_entrp">   -147.11402033 </i>
    <i name="e_0_energy">   -147.11936897 </i>
   </energy>
  </scstep>
  <structure>
   <crystal>
    <varray name="basis" >
     <v>       8.18123884       0.00585060       0.00845912 </v>
     <v>       0.00590505       8.11843641      -0.02093744 </v>
     <v>       0.00857297      -0.02109088       8.04730355 </v>
    </varray>
    <i name="volume">    534.48830432 </i>
    <varray name="rec_basis" >
     <v>       0.12223108      -0.00008924      -0.00013045 </v>
     <v>      -0.00008842       0.12317733       0.00032293 </v>
     <v>      -0.00012872       0.00032058       0.12426620 </v>
    </varray>
   </crystal>
   <varray name="positions" >
    <v>       0.25661700       0.99722900       0.25227300 </v>
    <v>       0.99980700       0.99673800       0.50349100 </v>
    <v>       0.99951500       0.50172500       0.99881600 </v>
    <v>       0.24987500       0.74812300       0.99849600 </v>
    <v>       0.99946200       0.50262000       0.50214500 </v>
    <v>       0.24921000       0.50673200       0.75044400 </v>
    <v>       0.00168100       0.74838200       0.75171500 </v>
    <v>       0.74781000       0.25290600       0.00033900 </v>
    <v>       0.50345800       0.25094500       0.25362100 </v>
    <v>       0.50067300       0.99994100       0.49984300 </v>
    <v>       0.74687300       0.99972200       0.74755000 </v>
    <v>       0.50346100       0.24964700       0.74560000 </v>
    <v>       0.74777500       0.49579200       0.24916900 </v>
    <v>       0.49651200       0.75016800       0.25224200 </v>
    <v>       0.49976300       0.49978900       0.49956200 </v>
    <v>       0.49626800       0.74905900       0.74565500 </v>
    <v>       0.99989000       0.99948000       0.99917200 </v>
    <v>       0.25320300       0.25133400       0.99974800 </v>
    <v>       0.00093700       0.24985300       0.25052300 </v>
    <v>       0.25146400       0.25053500       0.50109600 </v>
    <v>       0.25130300       0.99894100       0.74960600 </v>
    <v>       0.99931300       0.25119900       0.75145300 </v>
    <v>       0.25010200       0.50038100       0.25028000 </v>
    <v>       0.00020100       0.74932600       0.24900000 </v>
    <v>       0.24905800       0.75033000       0.49992600 </v>
    <v>       0.50065500       0.00005300       0.99910600 </v>
    <v>       0.74874400       0.00056500       0.25068600 </v>
    <v>       0.75146100       0.24993800       0.50025300 </v>
    <v>       0.49922000       0.50029000       0.99922800 </v>
    <v>       0.74782800       0.74878400       0.99898700 </v>
    <v>       0.74865600       0.74886300       0.50005700 </v>
    <v>       0.74920700       0.50060800       0.74991800 </v>
   </varray>
  </structure>
  <varray name="forces" >
   <v>       0.00093041      -0.00168126      -0.00053628 </v>
   <v>       0.00308329       0.00027152       0.00285942 </v>
   <v>       0.00130470       0.00166106      -0.00404299 </v>
   <v>      -0.00569508      -0.00206039       0.00330738 </v>
   <v>      -0.00081497      -0.00184600       0.00094122 </v>
   <v>       0.00203249       0.00063520       0.00211599 </v>
   <v>       0.00068243      -0.00263647       0.00178563 </v>
   <v>       0.00246244      -0.00133632      -0.00093247 </v>
   <v>       0.00528499      -0.00126007       0.00107642 </v>
   <v>       0.00005932       0.00000159       0.00005709 </v>
   <v>      -0.00401532      -0.00119268       0.00367006 </v>
   <v>       0.00025667      -0.00274857       0.00090615 </v>
   <v>      -0.00586800      -0.00226734       0.00279850 </v>
   <v>      -0.00327383       0.00095287       0.00337746 </v>
   <v>       0.00298089       0.00138438      -0.00009535 </v>
   <v>       0.00148539      -0.00158246      -0.00305811 </v>
   <v>      -0.00043353      -0.00076749      -0.00109783 </v>
   <v>      -0.00704716      -0.00085509       0.00023451 </v>
   <v>      -0.00095998      -0.00306948       0.00349600 </v>
   <v>      -0.00238801      -0.00188533      -0.00381121 </v>
   <v>      -0.00488166       0.00031018       0.00120735 </v>
   <v>      -0.00239522       0.00011259      -0.00177513 </v>
   <v>      -0.00217419       0.00409146      -0.00227949 </v>
   <v>       0.00482511      -0.00102861       0.00087164 </v>
   <v>      -0.00269356       0.00313898      -0.00449687 </v>
   <v>       0.00322993       0.00324956      -0.00218786 </v>
   <v>       0.00022610       0.00685498      -0.00304888 </v>
   <v>       0.00332704       0.00132664      -0.00345320 </v>
   <v>       0.00071710      -0.00100491      -0.00110043 </v>
   <v>       0.00651015       0.00538803       0.00239412 </v>
   <v>      -0.00051770      -0.00113567       0.00167672 </v>
   <v>       0.00375978      -0.00102091      -0.00085958 </v>
  </varray>
  <varray name="stress" >
   <v>      -7.49237961       0.00494308      -0.06706385 </v>
   <v>       0.00494308      -7.62375769       0.12795210 </v>
   <v>      -0.06706401       0.12795221      -7.48748852 </v>
  </varray>
  <energy>
   <i name="e_fr_energy">   -147.12204329 </i>
   <i name="e_wo_entrp">   -147.11936897 </i>
   <i name="e_0_energy">     -0.00802296 </i>
  </energy>
  <time name="totalsc">   13.09   13.28</time>
 </calculation>
 <calculation>
  <scstep>
   <time name="dav">    0.93    0.95</time>
   <time name="total">    1.04    1.06</time>
   <energy>
    <i name="alphaZ">   2028.09585742 </i>
    <i name="ewald"> -28762.17476985 </i>
    <i name="hartreedc">  -2939.65422766 </i>
    <i name="XCdc">    293.46133682 </i>
    <i name="pawpsdc">  30944.90178096 </i>
    <i name="pawaedc"> -30205.84205082 </i>
    <i name="eentropy">     -0.00952713 </i>
    <i name="bandstr">   2012.17673464 </i>
    <i name="atom">  26481.87638256 </i>
    <i name="e_fr_energy">   -147.16848306 </i>
    <i name="e_wo_entrp">   -147.15895593 </i>
    <i name="e_0_energy">   -147.16530735 </i>
   </energy>
  </scstep>
  <scstep>
   <time name="diag">    0.11    0.11</time>
   <time name="diis">    0.43    0.44</time>
   <time name="orth">    0.01    0.02</time>
   <time name="total">    0.61    0.63</time>
   <energy>
    <i name="e_fr_energy">   -147.12855869 </i>
    <i name="e_wo_entrp">   -147.12010168 </i>
    <i name="e_0_energy">   -147.12573968 </i>
   </energy>
  </scstep>
  <scstep>
   <time name="diag">    0.08    0.08</time>
   <time name="diis">    0.45    0.45</time>
   <time name="orth">    0.01    0.01</time>
   <time name="total">    0.60    0.60</time>
   <energy>
    <i name="e_fr_energy">   -147.12741619 </i>
    <i name="e_wo_entrp">   -147.11953886 </i>
    <i name="e_0_energy">   -147.12479041 </i>
   </energy>
  </scstep>
  <scstep>
   <time name="diag">    0.08    0.08</time>
   <time name="diis">    0.42    0.42</time>
   <time name="orth">    0.01    0.01</time>
   <time name="total">    0.59    0.60</time>
   <energy>
    <i name="e_fr_energy">   -147.12707493 </i>
    <i name="e_wo_entrp">   -147.11867521 </i>
    <i name="e_0_energy">   -147.12427502 </i>
   </energy>
  </scstep>
  <scstep>
   <time name="diag">    0.09    0.09</time>
   <time name="diis">    0.49    0.49</time>
   <time name="orth">    0.01    0.01</time>
   <time name="total">    0.68    0.69</time>
   <energy>
    <i name="e_fr_energy">   -147.12736687 </i>
    <i name="e_wo_entrp">   -147.11921748 </i>
    <i name="e_0_energy">   -147.12465041 </i>
   </energy>
  </scstep>
  <scstep>
   <time name="diag">    0.10    0.10</time>
   <time name="diis">    0.46    0.46</time>
   <time name="orth">    0.01    0.01</time>
   <time name="total">    0.63    0.64</time>
   <energy>
    <i name="e_fr_energy">   -147.12712470 </i>
    <i name="e_wo_entrp">   -147.11920286 </i>
    <i name="e_0_energy">   -147.12448409 </i>
   </energy>
  </scstep>
  <scstep>
   <time name="diag">    0.08    0.08</time>
   <time name="diis">    0.46    0.46</time>
   <time name="orth">    0.01    0.01</time>
   <time name="total">    0.60    0.61</time>
   <energy>
    <i name="e_fr_energy">   -147.12697563 </i>
    <i name="e_wo_entrp">   -147.11892629 </i>
    <i name="e_0_energy">   -147.12429252 </i>
   </energy>
  </scstep>
  <scstep>
   <time name="diag">    0.09    0.09</time>
   <time name="diis">    0.25    0.25</time>
   <time name="orth">    0.01    0.01</time>
   <time name="total">    0.42    0.42</time>
   <energy>
    <i name="e_fr_energy">   -147.12695697 </i>
    <i name="e_wo_entrp">   -147.11877833 </i>
    <i name="e_0_energy">   -147.12423076 </i>
   </energy>
  </scstep>
  <scstep>
   <time name="diag">    0.08    0.08</time>
   <time name="diis">    0.23    0.23</time>
   <time name="orth">    0.01    0.01</time>
   <time name="total">    0.35    0.35</time>
   <energy>
    <i name="alphaZ">   2028.09585742 </i>
    <i name="ewald"> -28762.17476985 </i>
    <i name="hartreedc">  -2924.25385413 </i>
    <i name="XCdc">    292.85991220 </i>
    <i name="pawpsdc">  31020.40875799 </i>
    <i name="pawaedc"> -30282.00822269 </i>
    <i name="eentropy">     -0.00814647 </i>
    <i name="bandstr">   1998.07712661 </i>
    <i name="atom">  26481.87638256 </i>
    <i name="e_fr_energy">   -147.12695636 </i>
    <i name="e_wo_entrp">   -147.11880989 </i>
    <i name="e_0_energy">   -147.12424087 </i>
   </energy>
  </scstep>
  <structure>
   <crystal>
    <varray name="basis" >
     <v>       8.17199030       0.00585014       0.00836690 </v>
     <v>       0.00590464       8.10909763      -0.02075712 </v>
     <v>       0.00848183      -0.02091126       8.03821195 </v>
    </varray>
    <i name="volume">    532.66754441 </i>
    <varray name="rec_basis" >
     <v>       0.12236941      -0.00008943      -0.00012936 </v>
     <v>      -0.00008861       0.12331917       0.00032091 </v>
     <v>      -0.00012760       0.00031854       0.12440674 </v>
    </varray>
   </crystal>
   <varray name="positions" >
    <v>       0.25661865       0.99722600       0.25227203 </v>
    <v>       0.99981245       0.99673849       0.50349614 </v>
    <v>       0.99951731       0.50172794       0.99880873 </v>
    <v>       0.24986492       0.74811935       0.99850195 </v>
    <v>       0.99946056       0.50261671       0.50214669 </v>
    <v>       0.24921359       0.50673314       0.75044780 </v>
    <v>       0.00168221       0.74837731       0.75171820 </v>
    <v>       0.74781436       0.25290361       0.00033731 </v>
    <v>       0.50346735       0.25094275       0.25362292 </v>
    <v>       0.50067310       0.99994100       0.49984310 </v>
    <v>       0.74686589       0.99971990       0.74755660 </v>
    <v>       0.50346146       0.24964210       0.74560162 </v>
    <v>       0.74776462       0.49578798       0.24917403 </v>
    <v>       0.49650620       0.75016972       0.25224808 </v>
    <v>       0.49976827       0.49979146       0.49956183 </v>
    <v>       0.49627064       0.74905616       0.74564949 </v>
    <v>       0.99988924       0.99947863       0.99917002 </v>
    <v>       0.25319053       0.25133249       0.99974843 </v>
    <v>       0.00093530       0.24984755       0.25052928 </v>
    <v>       0.25145979       0.25053162       0.50108914 </v>
    <v>       0.25129436       0.99894156       0.74960818 </v>
    <v>       0.99930877       0.25119920       0.75144981 </v>
    <v>       0.25009815       0.50038829       0.25027592 </v>
    <v>       0.00020954       0.74932416       0.24900155 </v>
    <v>       0.24905324       0.75033558       0.49991793 </v>
    <v>       0.50066071       0.00005878       0.99910207 </v>
    <v>       0.74874440       0.00057721       0.25068055 </v>
    <v>       0.75146689       0.24994034       0.50024679 </v>
    <v>       0.49922127       0.50028820       0.99922601 </v>
    <v>       0.74783951       0.74879361       0.99899132 </v>
    <v>       0.74865508       0.74886098       0.50006001 </v>
    <v>       0.74921365       0.50060617       0.74991644 </v>
   </varray>
  </structure>
  <varray name="forces" >
   <v>      -0.00617044       0.00321292      -0.00257907 </v>
   <v>       0.00250532       0.00256263      -0.00057692 </v>
   <v>       0.00068353      -0.00068485      -0.00102227 </v>
   <v>      -0.00414665       0.00223834       0.00563065 </v>
   <v>      -0.00032977      -0.00361088      -0.00165455 </v>
   <v>       0.00326445      -0.00835615       0.00122524 </v>
   <v>      -0.00364042       0.00053276       0.00085378 </v>
   <v>       0.00520240      -0.00484090      -0.00181769 </v>
   <v>       0.00029818      -0.00159328      -0.00236686 </v>
   <v>       0.00067346       0.00021789       0.00010339 </v>
   <v>      -0.00013567      -0.00244532       0.00551498 </v>
   <v>      -0.00404443      -0.00127181       0.00376518 </v>
   <v>      -0.00252442       0.00333068       0.00330166 </v>
   <v>       0.00164454      -0.00007924       0.00030053 </v>
   <v>       0.00177536       0.00068708       0.00042857 </v>
   <v>       0.00540523      -0.00083293       0.00033793 </v>
   <v>       0.00139858       0.00116904       0.00231227 </v>
   <v>      -0.00863854      -0.00298443       0.00058726 </v>
   <v>       0.00336454      -0.00540196       0.00135847 </v>
   <v>      -0.00317026      -0.00278992      -0.00517553 </v>
   <v>      -0.00347722       0.00317959       0.00396978 </v>
   <v>       0.00088638       0.00056583      -0.00180611 </v>
   <v>      -0.00438228       0.00081516      -0.00421290 </v>
   <v>       0.00206753       0.00081839       0.00352837 </v>
   <v>      -0.00521712       0.00318573      -0.00630497 </v>
   <v>       0.00258772       0.00361656      -0.00014947 </v>
   <v>       0.00146002       0.00338267      -0.00481418 </v>
   <v>       0.00588907       0.00012807      -0.00362973 </v>
   <v>      -0.00069481       0.00037864       0.00067816 </v>
   <v>       0.00411262       0.00671433       0.00528535 </v>
   <v>       0.00059320      -0.00096197      -0.00071764 </v>
   <v>       0.00275988      -0.00088265      -0.00235368 </v>
  </varray>
  <varray name="stress" >
   <v>      -1.00904516      -0.02878217      -0.07022246 </v>
   <v>      -0.02878250      -1.43227092       0.18778855 </v>
   <v>      -0.07022308       0.18778833      -1.34167584 </v>
  </varray>
  <energy>
   <i name="e_fr_energy">   -147.12695636 </i>
   <i name="e_wo_entrp">   -147.12424087 </i>
   <i name="e_0_energy">     -0.00814647 </i>
  </energy>
  <time name="totalsc">    6.72    6.84</time>
 </calculation>
 <calculation>
  <scstep>
   <time name="dav">    0.74    0.75</time>
   <time name="total">    0.80    0.81</time>
   <energy>
    <i name="alphaZ">   2029.65434849 </i>
    <i name="ewald"> -28769.53972999 </i>
    <i name="hartreedc">  -2924.99591237 </i>
    <i name="XCdc">    293.09010037 </i>
    <i name="pawpsdc">  31020.30938845 </i>
    <i name="pawaedc"> -30281.90027154 </i>
    <i name="eentropy">     -0.00857116 </i>
    <i name="bandstr">   2004.38513247 </i>
    <i name="atom">  26481.87638256 </i>
    <i name="e_fr_energy">   -147.12913273 </i>
    <i name="e_wo_entrp">   -147.12056156 </i>
    <i name="e_0_energy">   -147.12627567 </i>
   </energy>
  </scstep>
  <scstep>
   <time name="diag">    0.08    0.08</time>
   <time name="diis">    0.41    0.41</time>
   <time name="orth">    0.01    0.01</time>
   <time name="total">    0.56    0.57</time>
   <energy>
    <i name="e_fr_energy">   -147.12711339 </i>
    <i name="e_wo_entrp">   -147.11888006 </i>
    <i name="e_0_energy">   -147.12436895 </i>
   </energy>
  </scstep>
  <scstep>
   <time name="diag">    0.08    0.08</time>
   <time name="diis">    0.37    0.50</time>
   <time name="orth">    0.01    0.01</time>
   <time name="total">    0.51    0.65</time>
   <energy>
    <i name="e_fr_energy">   -147.12706491 </i>
    <i name="e_wo_entrp">   -147.11893174 </i>
    <i name="e_0_energy">   -147.12435385 </i>
   </energy>
  </scstep>
  <scstep>
   <time name="diag">    0.11    0.12</time>
   <time name="diis">    0.39    0.40</time>
   <time name="orth">    0.02    0.02</time>
   <time name="total">    0.71    0.73</time>
   <energy>
    <i name="e_fr_energy">   -147.12705260 </i>
    <i name="e_wo_entrp">   -147.11884571 </i>
    <i name="e_0_energy">   -147.12431697 </i>
   </energy>
  </scstep>
  <scstep>
   <time name="diag">    0.09    0.09</time>
   <time name="diis">    0.36    0.36</time>
   <time name="orth">    0.02    0.02</time>
   <time name="total">    0.54    0.56</time>
   <energy>
    <i name="e_fr_energy">   -147.12707265 </i>
    <i name="e_wo_entrp">   -147.11886498 </i>
    <i name="e_0_energy">   -147.12433676 </i>
   </energy>
  </scstep>
  <scstep>
   <time name="diag">    0.09    0.09</time>
   <time name="diis">    0.29    0.31</time>
   <time name="orth">    0.01    0.01</time>
   <time name="total">    0.46    0.49</time>
   <energy>
    <i name="alphaZ">   2029.65434849 </i>
    <i name="ewald"> -28769.53972999 </i>
    <i name="hartreedc">  -2921.57179104 </i>
    <i name="XCdc">    292.95652224 </i>
    <i name="pawpsdc">  31036.84874996 </i>
    <i name="pawaedc"> -30298.57450406 </i>
    <i name="eentropy">     -0.00810234 </i>
    <i name="bandstr">   2001.23105930 </i>
    <i name="atom">  26481.87638256 </i>
    <i name="e_fr_energy">   -147.12706488 </i>
    <i name="e_wo_entrp">   -147.11896254 </i>
    <i name="e_0_energy">   -147.12436410 </i>
   </energy>
  </scstep>
  <structure>
   <crystal>
    <varray name="basis" >
     <v>       8.16990982       0.00585004       0.00834615 </v>
     <v>       0.00590455       8.10699684      -0.02071656 </v>
     <v>       0.00846133      -0.02087086       8.03616677 </v>
    </varray>
    <i name="volume">    532.25853013 </i>
    <varray name="rec_basis" >
     <v>       0.12240057      -0.00008948      -0.00012911 </v>
     <v>      -0.00008865       0.12335112       0.00032045 </v>
     <v>      -0.00012735       0.00031808       0.12443840 </v>
    </varray>
   </crystal>
   <varray name="positions" >
    <v>       0.25661902       0.99722532       0.25227181 </v>
    <v>       0.99981368       0.99673860       0.50349730 </v>
    <v>       0.99951783       0.50172860       0.99880710 </v>
    <v>       0.24986265       0.74811853       0.99850329 </v>
    <v>       0.99946023       0.50261597       0.50214707 </v>
    <v>       0.24921440       0.50673340       0.75044866 </v>
    <v>       0.00168248       0.74837625       0.75171892 </v>
    <v>       0.74781534       0.25290307       0.00033693 </v>
    <v>       0.50346945       0.25094225       0.25362335 </v>
    <v>       0.50067313       0.99994100       0.49984313 </v>
    <v>       0.74686429       0.99971942       0.74755809 </v>
    <v>       0.50346156       0.24964100       0.74560198 </v>
    <v>       0.74776228       0.49578707       0.24917517 </v>
    <v>       0.49650489       0.75017011       0.25224946 </v>
    <v>       0.49976946       0.49979202       0.49956179 </v>
    <v>       0.49627123       0.74905552       0.74564825 </v>
    <v>       0.99988906       0.99947832       0.99916958 </v>
    <v>       0.25318773       0.25133214       0.99974853 </v>
    <v>       0.00093492       0.24984632       0.25053069 </v>
    <v>       0.25145884       0.25053086       0.50108760 </v>
    <v>       0.25129242       0.99894169       0.74960867 </v>
    <v>       0.99930781       0.25119924       0.75144909 </v>
    <v>       0.25009729       0.50038993       0.25027501 </v>
    <v>       0.00021146       0.74932375       0.24900190 </v>
    <v>       0.24905217       0.75033683       0.49991612 </v>
    <v>       0.50066200       0.00006008       0.99910119 </v>
    <v>       0.74874449       0.00057995       0.25067932 </v>
    <v>       0.75146822       0.24994087       0.50024539 </v>
    <v>       0.49922156       0.50028780       0.99922557 </v>
    <v>       0.74784210       0.74879577       0.99899229 </v>
    <v>       0.74865488       0.74886053       0.50006069 </v>
    <v>       0.74921515       0.50060576       0.74991609 </v>
   </varray>
  </structure>
  <varray name="forces" >
   <v>      -0.00716405       0.00430865      -0.00309504 </v>
   <v>       0.00239046       0.00317714      -0.00135692 </v>
   <v>       0.00036099      -0.00136063      -0.00049368 </v>
   <v>      -0.00420776       0.00344991       0.00618757 </v>
   <v>      -0.00021947      -0.00436848      -0.00260631 </v>
   <v>       0.00381190      -0.01031775       0.00088816 </v>
   <v>      -0.00495020       0.00202940       0.00071812 </v>
   <v>       0.00556787      -0.00575193      -0.00195670 </v>
   <v>      -0.00063194      -0.00190486      -0.00295899 </v>
   <v>       0.00066306       0.00033339       0.00010494 </v>
   <v>       0.00053004      -0.00257012       0.00568015 </v>
   <v>      -0.00491599      -0.00152426       0.00399110 </v>
   <v>      -0.00266906       0.00414048       0.00306296 </v>
   <v>       0.00333838      -0.00016575      -0.00020031 </v>
   <v>       0.00164814       0.00062895       0.00019815 </v>
   <v>       0.00701856       0.00005758       0.00120358 </v>
   <v>       0.00083483       0.00144110       0.00319553 </v>
   <v>      -0.00928696      -0.00398130       0.00026454 </v>
   <v>       0.00398053      -0.00586584       0.00094443 </v>
   <v>      -0.00350748      -0.00288681      -0.00523812 </v>
   <v>      -0.00366698       0.00468582       0.00526572 </v>
   <v>       0.00155706       0.00011639      -0.00215834 </v>
   <v>      -0.00378778      -0.00041600      -0.00448885 </v>
   <v>       0.00183311       0.00164681       0.00407021 </v>
   <v>      -0.00600447       0.00327497      -0.00657568 </v>
   <v>       0.00265638       0.00363870      -0.00008077 </v>
   <v>       0.00135104       0.00239401      -0.00513411 </v>
   <v>       0.00592128       0.00053062      -0.00290182 </v>
   <v>      -0.00082323      -0.00004064       0.00076243 </v>
   <v>       0.00507876       0.00753176       0.00651997 </v>
   <v>       0.00050906      -0.00152549      -0.00153895 </v>
   <v>       0.00278393      -0.00070585      -0.00227300 </v>
  </varray>
  <varray name="stress" >
   <v>       0.44330794      -0.03694930      -0.07380792 </v>
   <v>      -0.03694919      -0.02440013       0.19594865 </v>
   <v>      -0.07380793       0.19594873       0.05975984 </v>
  </varray>
  <energy>
   <i name="e_fr_energy">   -147.12706488 </i>
   <i name="e_wo_entrp">   -147.12436410 </i>
   <i name="e_0_energy">     -0.00810234 </i>
  </energy>
  <time name="totalsc">    4.71    4.97</time>
 </calculation>
 <calculation>
  <scstep>
   <time name="dav">    0.81    0.85</time>
   <time name="total">    0.87    0.91</time>
   <energy>
    <i name="alphaZ">   2029.49042493 </i>
    <i name="ewald"> -28768.76525425 </i>
    <i name="hartreedc">  -2921.49035239 </i>
    <i name="XCdc">    292.93218114 </i>
    <i name="pawpsdc">  31037.06144415 </i>
    <i name="pawaedc"> -30298.78162094 </i>
    <i name="eentropy">     -0.00811650 </i>
    <i name="bandstr">   2000.55782089 </i>
    <i name="atom">  26481.87638256 </i>
    <i name="e_fr_energy">   -147.12709041 </i>
    <i name="e_wo_entrp">   -147.11897391 </i>
    <i name="e_0_energy">   -147.12438491 </i>
   </energy>
  </scstep>
  <scstep>
   <time name="diag">    0.09    0.09</time>
   <time name="diis">    0.43    0.43</time>
   <time name="orth">    0.01    0.01</time>
   <time name="total">    0.59    0.61</time>
   <energy>
    <i name="e_fr_energy">   -147.12707271 </i>
    <i name="e_wo_entrp">   -147.11888721 </i>
    <i name="e_0_energy">   -147.12434421 </i>
   </energy>
  </scstep>
  <scstep>
   <time name="diag">    0.08    0.09</time>
   <time name="diis">    0.27    0.27</time>
   <time name="orth">    0.02    0.02</time>
   <time name="total">    0.40    0.41</time>
   <energy>
    <i name="alphaZ">   2029.49042493 </i>
    <i name="ewald"> -28768.76525425 </i>
    <i name="hartreedc">  -2921.82716009 </i>
    <i name="XCdc">    292.94537286 </i>
    <i name="pawpsdc">  31035.72214659 </i>
    <i name="pawaedc"> -30297.41716049 </i>
    <i name="eentropy">     -0.00813253 </i>
    <i name="bandstr">   2000.85630590 </i>
    <i name="atom">  26481.87638256 </i>
    <i name="e_fr_energy">   -147.12707453 </i>
    <i name="e_wo_entrp">   -147.11894200 </i>
    <i name="e_0_energy">   -147.12436369 </i>
   </energy>
  </scstep>
  <structure>
   <crystal>
    <varray name="basis" >
     <v>       8.17012855       0.00585005       0.00834833 </v>
     <v>       0.00590456       8.10721770      -0.02072082 </v>
     <v>       0.00846349      -0.02087510       8.03638179 </v>
    </varray>
    <i name="volume">    532.30152107 </i>
    <varray name="rec_basis" >
     <v>       0.12239729      -0.00008947      -0.00012913 </v>
     <v>      -0.00008865       0.12334776       0.00032050 </v>
     <v>      -0.00012738       0.00031813       0.12443507 </v>
    </varray>
   </crystal>
   <varray name="positions" >
    <v>       0.25661898       0.99722539       0.25227183 </v>
    <v>       0.99981355       0.99673859       0.50349717 </v>
    <v>       0.99951778       0.50172853       0.99880727 </v>
    <v>       0.24986289       0.74811861       0.99850315 </v>
    <v>       0.99946027       0.50261605       0.50214703 </v>
    <v>       0.24921431       0.50673337       0.75044857 </v>
    <v>       0.00168245       0.74837636       0.75171884 </v>
    <v>       0.74781524       0.25290313       0.00033697 </v>
    <v>       0.50346923       0.25094230       0.25362331 </v>
    <v>       0.50067313       0.99994100       0.49984312 </v>
    <v>       0.74686446       0.99971947       0.74755793 </v>
    <v>       0.50346155       0.24964112       0.74560194 </v>
    <v>       0.74776252       0.49578717       0.24917505 </v>
    <v>       0.49650503       0.75017007       0.25224931 </v>
    <v>       0.49976933       0.49979196       0.49956180 </v>
    <v>       0.49627117       0.74905559       0.74564838 </v>
    <v>       0.99988908       0.99947835       0.99916962 </v>
    <v>       0.25318802       0.25133218       0.99974852 </v>
    <v>       0.00093496       0.24984645       0.25053054 </v>
    <v>       0.25145894       0.25053094       0.50108776 </v>
    <v>       0.25129262       0.99894168       0.74960862 </v>
    <v>       0.99930791       0.25119923       0.75144917 </v>
    <v>       0.25009738       0.50038975       0.25027510 </v>
    <v>       0.00021126       0.74932379       0.24900187 </v>
    <v>       0.24905228       0.75033670       0.49991631 </v>
    <v>       0.50066187       0.00005994       0.99910128 </v>
    <v>       0.74874448       0.00057967       0.25067945 </v>
    <v>       0.75146808       0.24994082       0.50024554 </v>
    <v>       0.49922153       0.50028784       0.99922561 </v>
    <v>       0.74784182       0.74879554       0.99899219 </v>
    <v>       0.74865490       0.74886058       0.50006062 </v>
    <v>       0.74921500       0.50060580       0.74991613 </v>
   </varray>
  </structure>
  <varray name="forces" >
   <v>      -0.00845897       0.00390693      -0.00376314 </v>
   <v>       0.00267560       0.00270284      -0.00103621 </v>
   <v>       0.00044694      -0.00078816      -0.00097808 </v>
   <v>      -0.00453845       0.00274906       0.00618505 </v>
   <v>      -0.00019289      -0.00360298      -0.00174414 </v>
   <v>       0.00249814      -0.00979258       0.00064424 </v>
   <v>      -0.00380732       0.00055341       0.00016903 </v>
   <v>       0.00610727      -0.00511920      -0.00220793 </v>
   <v>      -0.00122554      -0.00158653      -0.00420910 </v>
   <v>       0.00041331       0.00022905       0.00017799 </v>
   <v>       0.00162114      -0.00250185       0.00642948 </v>
   <v>      -0.00517553      -0.00055959       0.00473640 </v>
   <v>      -0.00113758       0.00462043       0.00366408 </v>
   <v>       0.00304728      -0.00074568      -0.00109689 </v>
   <v>       0.00157211       0.00068110       0.00056962 </v>
   <v>       0.00663301      -0.00074984       0.00251935 </v>
   <v>       0.00092645       0.00138754       0.00323916 </v>
   <v>      -0.00941939      -0.00386326       0.00016208 </v>
   <v>       0.00383168      -0.00551810       0.00133699 </v>
   <v>      -0.00398626      -0.00259142      -0.00503999 </v>
   <v>      -0.00384168       0.00469446       0.00529184 </v>
   <v>       0.00157014       0.00046555      -0.00246867 </v>
   <v>      -0.00415842      -0.00007996      -0.00437164 </v>
   <v>       0.00209584       0.00140764       0.00426446 </v>
   <v>      -0.00603990       0.00274245      -0.00658395 </v>
   <v>       0.00241569       0.00353630      -0.00012707 </v>
   <v>       0.00205874       0.00243726      -0.00515406 </v>
   <v>       0.00649355       0.00063161      -0.00327514 </v>
   <v>      -0.00096669       0.00007646       0.00057335 </v>
   <v>       0.00477613       0.00749204       0.00618721 </v>
   <v>       0.00078646      -0.00197879      -0.00166910 </v>
   <v>       0.00297913      -0.00083619      -0.00242523 </v>
  </varray>
  <varray name="stress" >
   <v>       0.59038930      -0.03315694      -0.06991036 </v>
   <v>      -0.03315683       0.12609340       0.19870350 </v>
   <v>      -0.06991052       0.19870281       0.21260031 </v>
  </varray>
  <energy>
   <i name="e_fr_energy">   -147.12707453 </i>
   <i name="e_wo_entrp">   -147.12436369 </i>
   <i name="e_0_energy">     -0.00813253 </i>
  </energy>
  <time name="totalsc">    3.11    3.34</time>
 </calculation>
 <calculation>
  <scstep>
   <time name="dav">    0.80    0.80</time>
   <time name="total">    0.87    0.88</time>
   <energy>
    <i name="alphaZ">   2028.79298139 </i>
    <i name="ewald"> -28765.46963510 </i>
    <i name="hartreedc">  -2921.51880146 </i>
    <i name="XCdc">    292.84330024 </i>
    <i name="pawpsdc">  31035.39619894 </i>
    <i name="pawaedc"> -30297.08911296 </i>
    <i name="eentropy">     -0.00796514 </i>
    <i name="bandstr">   1998.04916441 </i>
    <i name="atom">  26481.87638256 </i>
    <i name="e_fr_energy">   -147.12748713 </i>
    <i name="e_wo_entrp">   -147.11952199 </i>
    <i name="e_0_energy">   -147.12483208 </i>
   </energy>
  </scstep>
  <scstep>
   <time name="diag">    0.10    0.10</time>
   <time name="diis">    0.43    0.43</time>
   <time name="orth">    0.02    0.02</time>
   <time name="total">    0.61    0.62</time>
   <energy>
    <i name="e_fr_energy">   -147.12708253 </i>
    <i name="e_wo_entrp">   -147.11897508 </i>
    <i name="e_0_energy">   -147.12438005 </i>
   </energy>
  </scstep>
  <scstep>
   <time name="diag">    0.09    0.09</time>
   <time name="diis">    0.46    0.47</time>
   <time name="orth">    0.01    0.01</time>
   <time name="total">    0.65    0.65</time>
   <energy>
    <i name="e_fr_energy">   -147.12707897 </i>
    <i name="e_wo_entrp">   -147.11885018 </i>
    <i name="e_0_energy">   -147.12433604 </i>
   </energy>
  </scstep>
  <scstep>
   <time name="diag">    0.08    0.08</time>
   <time name="diis">    0.31    0.31</time>
   <time name="orth">    0.01    0.01</time>
   <time name="total">    0.48    0.49</time>
   <energy>
    <i name="e_fr_energy">   -147.12705921 </i>
    <i name="e_wo_entrp">   -147.11893519 </i>
    <i name="e_0_energy">   -147.12435120 </i>
   </energy>
  </scstep>
  <scstep>
   <time name="diag">    0.08    0.08</time>
   <time name="diis">    0.24    0.24</time>
   <time name="orth">    0.01    0.01</time>
   <time name="total">    0.36    0.37</time>
   <energy>
    <i name="alphaZ">   2028.79298139 </i>
    <i name="ewald"> -28765.46963510 </i>
    <i name="hartreedc">  -2923.08839287 </i>
    <i name="XCdc">    292.90455525 </i>
    <i name="pawpsdc">  31028.29394046 </i>
    <i name="pawaedc"> -30289.90450670 </i>
    <i name="eentropy">     -0.00814928 </i>
    <i name="bandstr">   1999.47576690 </i>
    <i name="atom">  26481.87638256 </i>
    <i name="e_fr_energy">   -147.12705738 </i>
    <i name="e_wo_entrp">   -147.11890811 </i>
    <i name="e_0_energy">   -147.12434096 </i>
   </energy>
  </scstep>
  <structure>
   <crystal>
    <varray name="basis" >
     <v>       8.17105943       0.00585009       0.00835761 </v>
     <v>       0.00590460       8.10815767      -0.02073897 </v>
     <v>       0.00847266      -0.02089318       8.03729687 </v>
    </varray>
    <i name="volume">    532.48451178 </i>
    <varray name="rec_basis" >
     <v>       0.12238335      -0.00008945      -0.00012925 </v>
     <v>      -0.00008863       0.12333346       0.00032070 </v>
     <v>      -0.00012749       0.00031834       0.12442090 </v>
    </varray>
   </crystal>
   <varray name="positions" >
    <v>       0.25661882       0.99722570       0.25227193 </v>
    <v>       0.99981300       0.99673854       0.50349666 </v>
    <v>       0.99951755       0.50172824       0.99880800 </v>
    <v>       0.24986391       0.74811898       0.99850255 </v>
    <v>       0.99946041       0.50261638       0.50214686 </v>
    <v>       0.24921395       0.50673325       0.75044819 </v>
    <v>       0.00168233       0.74837683       0.75171852 </v>
    <v>       0.74781480       0.25290337       0.00033714 </v>
    <v>       0.50346829       0.25094253       0.25362311 </v>
    <v>       0.50067312       0.99994100       0.49984311 </v>
    <v>       0.74686518       0.99971968       0.74755727 </v>
    <v>       0.50346150       0.24964161       0.74560178 </v>
    <v>       0.74776357       0.49578757       0.24917454 </v>
    <v>       0.49650562       0.75016989       0.25224870 </v>
    <v>       0.49976880       0.49979171       0.49956181 </v>
    <v>       0.49627090       0.74905588       0.74564893 </v>
    <v>       0.99988916       0.99947849       0.99916982 </v>
    <v>       0.25318928       0.25133233       0.99974847 </v>
    <v>       0.00093513       0.24984700       0.25052991 </v>
    <v>       0.25145936       0.25053128       0.50108845 </v>
    <v>       0.25129349       0.99894162       0.74960840 </v>
    <v>       0.99930834       0.25119922       0.75144949 </v>
    <v>       0.25009777       0.50038902       0.25027551 </v>
    <v>       0.00021040       0.74932398       0.24900171 </v>
    <v>       0.24905276       0.75033614       0.49991712 </v>
    <v>       0.50066129       0.00005936       0.99910168 </v>
    <v>       0.74874444       0.00057844       0.25068000 </v>
    <v>       0.75146748       0.24994058       0.50024616 </v>
    <v>       0.49922140       0.50028802       0.99922581 </v>
    <v>       0.74784066       0.74879458       0.99899175 </v>
    <v>       0.74865499       0.74886078       0.50006031 </v>
    <v>       0.74921432       0.50060599       0.74991629 </v>
   </varray>
  </structure>
  <varray name="forces" >
   <v>      -0.00587586       0.00376561      -0.00276479 </v>
   <v>       0.00249370       0.00313300      -0.00126444 </v>
   <v>       0.00057508      -0.00117477      -0.00052714 </v>
   <v>      -0.00384338       0.00274527       0.00589629 </v>
   <v>      -0.00033375      -0.00417273      -0.00225089 </v>
   <v>       0.00413764      -0.00898674       0.00102460 </v>
   <v>      -0.00433157       0.00132212       0.00109834 </v>
   <v>       0.00521048      -0.00513696      -0.00173752 </v>
   <v>       0.00005608      -0.00171771      -0.00188386 </v>
   <v>       0.00053855       0.00017764       0.00009263 </v>
   <v>      -0.00041318      -0.00262137       0.00555267 </v>
   <v>      -0.00437426      -0.00148763       0.00329536 </v>
   <v>      -0.00333131       0.00355978       0.00335268 </v>
   <v>       0.00220970       0.00000414       0.00077906 </v>
   <v>       0.00189502       0.00062416       0.00037706 </v>
   <v>       0.00589065      -0.00070434       0.00009010 </v>
   <v>       0.00154327       0.00126515       0.00299560 </v>
   <v>      -0.00870022      -0.00358992       0.00036085 </v>
   <v>       0.00339505      -0.00532072       0.00085375 </v>
   <v>      -0.00318831      -0.00280154      -0.00523308 </v>
   <v>      -0.00334183       0.00372457       0.00446104 </v>
   <v>       0.00129314       0.00054605      -0.00216700 </v>
   <v>      -0.00429608       0.00052137      -0.00417824 </v>
   <v>       0.00223845       0.00128037       0.00401706 </v>
   <v>      -0.00509284       0.00314389      -0.00637962 </v>
   <v>       0.00253107       0.00356787      -0.00009788 </v>
   <v>       0.00163751       0.00314284      -0.00491333 </v>
   <v>       0.00571901       0.00042352      -0.00392088 </v>
   <v>      -0.00099517       0.00007472       0.00067760 </v>
   <v>       0.00432418       0.00719447       0.00557451 </v>
   <v>      -0.00016942      -0.00170642      -0.00081263 </v>
   <v>       0.00259862      -0.00079569      -0.00236789 </v>
  </varray>
  <varray name="stress" >
   <v>      -0.16497901      -0.02769513      -0.06826351 </v>
   <v>      -0.02769515      -0.58403898       0.18941458 </v>
   <v>      -0.06826362       0.18941523      -0.49871798 </v>
  </varray>
  <energy>
   <i name="e_fr_energy">   -147.12705738 </i>
   <i name="e_wo_entrp">   -147.12434096 </i>
   <i name="e_0_energy">     -0.00814928 </i>
  </energy>
  <time name="totalsc">    4.12    4.33</time>
 </calculation>
 <calculation>
  <scstep>
   <time name="dav">    0.89    0.89</time>
   <time name="total">    0.94    0.95</time>
   <energy>
    <i name="alphaZ">   2029.20244758 </i>
    <i name="ewald"> -28767.40457104 </i>
    <i name="hartreedc">  -2923.26192882 </i>
    <i name="XCdc">    292.96412080 </i>
    <i name="pawpsdc">  31027.42184321 </i>
    <i name="pawaedc"> -30289.04266593 </i>
    <i name="eentropy">     -0.00828157 </i>
    <i name="bandstr">   2001.12544440 </i>
    <i name="atom">  26481.87638256 </i>
    <i name="e_fr_energy">   -147.12720880 </i>
    <i name="e_wo_entrp">   -147.11892724 </i>
    <i name="e_0_energy">   -147.12444828 </i>
   </energy>
  </scstep>
  <scstep>
   <time name="diag">    0.08    0.08</time>
   <time name="diis">    0.41    0.41</time>
   <time name="orth">    0.01    0.01</time>
   <time name="total">    0.56    0.57</time>
   <energy>
    <i name="e_fr_energy">   -147.12708292 </i>
    <i name="e_wo_entrp">   -147.11889268 </i>
    <i name="e_0_energy">   -147.12435284 </i>
   </energy>
  </scstep>
  <scstep>
   <time name="diag">    0.08    0.08</time>
   <time name="diis">    0.40    0.40</time>
   <time name="orth">    0.01    0.01</time>
   <time name="total">    0.54    0.54</time>
   <energy>
    <i name="e_fr_energy">   -147.12710070 </i>
    <i name="e_wo_entrp">   -147.11899797 </i>
    <i name="e_0_energy">   -147.12439979 </i>
   </energy>
  </scstep>
  <scstep>
   <time name="diag">    0.08    0.08</time>
   <time name="diis">    0.28    0.28</time>
   <time name="orth">    0.01    0.01</time>
   <time name="total">    0.43    0.43</time>
   <energy>
    <i name="e_fr_energy">   -147.12706564 </i>
    <i name="e_wo_entrp">   -147.11886278 </i>
    <i name="e_0_energy">   -147.12433135 </i>
   </energy>
  </scstep>
  <scstep>
   <time name="diag">    0.08    0.08</time>
   <time name="diis">    0.22    0.22</time>
   <time name="orth">    0.01    0.01</time>
   <time name="total">    0.33    0.34</time>
   <energy>
    <i name="alphaZ">   2029.20244758 </i>
    <i name="ewald"> -28767.40457104 </i>
    <i name="hartreedc">  -2922.33890057 </i>
    <i name="XCdc">    292.92802999 </i>
    <i name="pawpsdc">  31031.15373482 </i>
    <i name="pawaedc"> -30292.83115057 </i>
    <i name="eentropy">     -0.00815473 </i>
    <i name="bandstr">   2000.29511741 </i>
    <i name="atom">  26481.87638256 </i>
    <i name="e_fr_energy">   -147.12706455 </i>
    <i name="e_wo_entrp">   -147.11890982 </i>
    <i name="e_0_energy">   -147.12434631 </i>
   </energy>
  </scstep>
  <structure>
   <crystal>
    <varray name="basis" >
     <v>       8.17051286       0.00585007       0.00835216 </v>
     <v>       0.00590458       8.10760577      -0.02072831 </v>
     <v>       0.00846727      -0.02088257       8.03675958 </v>
    </varray>
    <i name="volume">    532.37706345 </i>
    <varray name="rec_basis" >
     <v>       0.12239153      -0.00008947      -0.00012918 </v>
     <v>      -0.00008864       0.12334186       0.00032058 </v>
     <v>      -0.00012742       0.00031821       0.12442922 </v>
    </varray>
   </crystal>
   <varray name="positions" >
    <v>       0.25661891       0.99722552       0.25227187 </v>
    <v>       0.99981332       0.99673857       0.50349696 </v>
    <v>       0.99951768       0.50172841       0.99880757 </v>
    <v>       0.24986331       0.74811877       0.99850290 </v>
    <v>       0.99946033       0.50261619       0.50214696 </v>
    <v>       0.24921416       0.50673332       0.75044841 </v>
    <v>       0.00168240       0.74837656       0.75171871 </v>
    <v>       0.74781506       0.25290323       0.00033704 </v>
    <v>       0.50346884       0.25094239       0.25362323 </v>
    <v>       0.50067312       0.99994100       0.49984312 </v>
    <v>       0.74686475       0.99971956       0.74755766 </v>
    <v>       0.50346153       0.24964132       0.74560187 </v>
    <v>       0.74776296       0.49578734       0.24917484 </v>
    <v>       0.49650527       0.75016999       0.25224906 </v>
    <v>       0.49976911       0.49979186       0.49956180 </v>
    <v>       0.49627106       0.74905571       0.74564861 </v>
    <v>       0.99988911       0.99947841       0.99916971 </v>
    <v>       0.25318854       0.25133224       0.99974850 </v>
    <v>       0.00093503       0.24984667       0.25053028 </v>
    <v>       0.25145911       0.25053108       0.50108804 </v>
    <v>       0.25129298       0.99894166       0.74960853 </v>
    <v>       0.99930809       0.25119923       0.75144930 </v>
    <v>       0.25009754       0.50038945       0.25027527 </v>
    <v>       0.00021090       0.74932387       0.24900180 </v>
    <v>       0.24905248       0.75033647       0.49991664 </v>
    <v>       0.50066163       0.00005970       0.99910145 </v>
    <v>       0.74874446       0.00057916       0.25067968 </v>
    <v>       0.75146783       0.24994072       0.50024580 </v>
    <v>       0.49922148       0.50028792       0.99922570 </v>
    <v>       0.74784134       0.74879514       0.99899201 </v>
    <v>       0.74865494       0.74886066       0.50006049 </v>
    <v>       0.74921472       0.50060588       0.74991619 </v>
   </varray>
  </structure>
  <varray name="forces" >
   <v>      -0.00757067       0.00381640      -0.00361474 </v>
   <v>       0.00247415       0.00296891      -0.00113704 </v>
   <v>       0.00077224      -0.00091888      -0.00081936 </v>
   <v>      -0.00420023       0.00241370       0.00565541 </v>
   <v>      -0.00016094      -0.00398171      -0.00195689 </v>
   <v>       0.00345098      -0.00908625       0.00113833 </v>
   <v>      -0.00401438       0.00093771       0.00089606 </v>
   <v>       0.00584556      -0.00519803      -0.00212677 </v>
   <v>      -0.00078510      -0.00168062      -0.00308080 </v>
   <v>       0.00063199       0.00008088       0.00038194 </v>
   <v>       0.00040016      -0.00280400       0.00600885 </v>
   <v>      -0.00493894      -0.00100797       0.00407694 </v>
   <v>      -0.00198059       0.00432885       0.00342576 </v>
   <v>       0.00258013      -0.00040470      -0.00032076 </v>
   <v>       0.00161841       0.00069468       0.00063039 </v>
   <v>       0.00591640      -0.00084922       0.00125422 </v>
   <v>       0.00089716       0.00127262       0.00316763 </v>
   <v>      -0.00886801      -0.00362596       0.00025091 </v>
   <v>       0.00381947      -0.00555064       0.00111451 </v>
   <v>      -0.00361267      -0.00267270      -0.00508333 </v>
   <v>      -0.00359007       0.00440151       0.00526707 </v>
   <v>       0.00147553       0.00047444      -0.00225756 </v>
   <v>      -0.00408288       0.00030098      -0.00417620 </v>
   <v>       0.00214158       0.00131856       0.00399317 </v>
   <v>      -0.00534373       0.00302601      -0.00635173 </v>
   <v>       0.00242097       0.00340308      -0.00022432 </v>
   <v>       0.00206989       0.00287719      -0.00504399 </v>
   <v>       0.00615477       0.00040960      -0.00380629 </v>
   <v>      -0.00111995       0.00019147       0.00051052 </v>
   <v>       0.00461365       0.00743001       0.00597694 </v>
   <v>       0.00026135      -0.00183408      -0.00140395 </v>
   <v>       0.00272378      -0.00073187      -0.00234493 </v>
  </varray>
  <varray name="stress" >
   <v>       0.11854812      -0.03268668      -0.07306556 </v>
   <v>      -0.03268651      -0.34415174       0.19785000 </v>
   <v>      -0.07306513       0.19785008      -0.25677358 </v>
  </varray>
  <energy>
   <i name="e_fr_energy">   -147.12706455 </i>
   <i name="e_wo_entrp">   -147.12434631 </i>
   <i name="e_0_energy">     -0.00815473 </i>
  </energy>
  <time name="totalsc">    3.92    3.98</time>
 </calculation>
 <calculation>
  <scstep>
   <time name="dav">    0.82    0.83</time>
   <time name="total">    0.89    0.89</time>
   <energy>
    <i name="alphaZ">   2029.30705451 </i>
    <i name="ewald"> -28767.89885017 </i>
    <i name="hartreedc">  -2922.39366771 </i>
    <i name="XCdc">    292.94372035 </i>
    <i name="pawpsdc">  31031.51513537 </i>
    <i name="pawaedc"> -30293.19075376 </i>
    <i name="eentropy">     -0.00819494 </i>
    <i name="bandstr">   2000.72209876 </i>
    <i name="atom">  26481.87638256 </i>
    <i name="e_fr_energy">   -147.12707502 </i>
    <i name="e_wo_entrp">   -147.11888008 </i>
    <i name="e_0_energy">   -147.12434337 </i>
   </energy>
  </scstep>
  <scstep>
   <time name="diag">    0.13    0.13</time>
   <time name="diis">    0.24    0.24</time>
   <time name="orth">    0.01    0.01</time>
   <time name="total">    0.44    0.44</time>
   <energy>
    <i name="alphaZ">   2029.30705451 </i>
    <i name="ewald"> -28767.89885017 </i>
    <i name="hartreedc">  -2922.19637975 </i>
    <i name="XCdc">    292.93598438 </i>
    <i name="pawpsdc">  31032.20336126 </i>
    <i name="pawaedc"> -30293.88849120 </i>
    <i name="eentropy">     -0.00816017 </i>
    <i name="bandstr">   2000.54202925 </i>
    <i name="atom">  26481.87638256 </i>
    <i name="e_fr_energy">   -147.12706932 </i>
    <i name="e_wo_entrp">   -147.11890915 </i>
    <i name="e_0_energy">   -147.12434926 </i>
   </energy>
  </scstep>
  <structure>
   <crystal>
    <varray name="basis" >
     <v>       8.17037325       0.00585006       0.00835077 </v>
     <v>       0.00590457       8.10746480      -0.02072559 </v>
     <v>       0.00846590      -0.02087986       8.03662234 </v>
    </varray>
    <i name="volume">    532.34962042 </i>
    <varray name="rec_basis" >
     <v>       0.12239363      -0.00008947      -0.00012916 </v>
     <v>      -0.00008864       0.12334400       0.00032055 </v>
     <v>      -0.00012741       0.00031818       0.12443134 </v>
    </varray>
   </crystal>
   <varray name="positions" >
    <v>       0.25661894       0.99722547       0.25227186 </v>
    <v>       0.99981340       0.99673858       0.50349704 </v>
    <v>       0.99951772       0.50172846       0.99880746 </v>
    <v>       0.24986316       0.74811871       0.99850299 </v>
    <v>       0.99946031       0.50261614       0.50214698 </v>
    <v>       0.24921422       0.50673334       0.75044847 </v>
    <v>       0.00168242       0.74837649       0.75171876 </v>
    <v>       0.74781512       0.25290319       0.00033702 </v>
    <v>       0.50346899       0.25094236       0.25362326 </v>
    <v>       0.50067312       0.99994100       0.49984312 </v>
    <v>       0.74686465       0.99971953       0.74755776 </v>
    <v>       0.50346154       0.24964125       0.74560190 </v>
    <v>       0.74776280       0.49578727       0.24917491 </v>
    <v>       0.49650519       0.75017002       0.25224915 </v>
    <v>       0.49976919       0.49979189       0.49956180 </v>
    <v>       0.49627110       0.74905567       0.74564853 </v>
    <v>       0.99988910       0.99947839       0.99916968 </v>
    <v>       0.25318835       0.25133222       0.99974851 </v>
    <v>       0.00093500       0.24984659       0.25053037 </v>
    <v>       0.25145905       0.25053103       0.50108794 </v>
    <v>       0.25129285       0.99894166       0.74960856 </v>
    <v>       0.99930802       0.25119923       0.75144925 </v>
    <v>       0.25009748       0.50038956       0.25027521 </v>
    <v>       0.00021103       0.74932384       0.24900183 </v>
    <v>       0.24905241       0.75033655       0.49991652 </v>
    <v>       0.50066171       0.00005979       0.99910139 </v>
    <v>       0.74874447       0.00057934       0.25067959 </v>
    <v>       0.75146792       0.24994076       0.50024570 </v>
    <v>       0.49922149       0.50028789       0.99922567 </v>
    <v>       0.74784152       0.74879529       0.99899207 </v>
    <v>       0.74865492       0.74886063       0.50006054 </v>
    <v>       0.74921482       0.50060585       0.74991617 </v>
   </varray>
  </structure>
  <varray name="forces" >
   <v>      -0.00818127       0.00368950      -0.00399004 </v>
   <v>       0.00254187       0.00300859      -0.00120364 </v>
   <v>       0.00117965      -0.00078147      -0.00099652 </v>
   <v>      -0.00403047       0.00212741       0.00517100 </v>
   <v>       0.00015003      -0.00391239      -0.00162475 </v>
   <v>       0.00345768      -0.00833332       0.00119141 </v>
   <v>      -0.00355915       0.00058904       0.00083549 </v>
   <v>       0.00614790      -0.00529524      -0.00246707 </v>
   <v>      -0.00129123      -0.00166883      -0.00336166 </v>
   <v>       0.00049693      -0.00008962       0.00071629 </v>
   <v>       0.00055655      -0.00306673       0.00609708 </v>
   <v>      -0.00530729      -0.00049993       0.00411226 </v>
   <v>      -0.00123051       0.00480905       0.00371143 </v>
   <v>       0.00256318      -0.00059507      -0.00092013 </v>
   <v>       0.00135852       0.00088896       0.00124163 </v>
   <v>       0.00544522      -0.00120530       0.00161911 </v>
   <v>       0.00102367       0.00124044       0.00322829 </v>
   <v>      -0.00929056      -0.00367006       0.00002273 </v>
   <v>       0.00395324      -0.00548703       0.00118374 </v>
   <v>      -0.00374466      -0.00249694      -0.00484872 </v>
   <v>      -0.00350708       0.00436210       0.00533957 </v>
   <v>       0.00165171       0.00057988      -0.00230705 </v>
   <v>      -0.00418009       0.00033974      -0.00409796 </v>
   <v>       0.00220938       0.00133645       0.00401204 </v>
   <v>      -0.00576591       0.00253457      -0.00620097 </v>
   <v>       0.00230651       0.00322506      -0.00031250 </v>
   <v>       0.00230589       0.00270302      -0.00500191 </v>
   <v>       0.00634959       0.00046984      -0.00362296 </v>
   <v>      -0.00128448       0.00035162       0.00029470 </v>
   <v>       0.00454110       0.00737449       0.00588720 </v>
   <v>       0.00041021      -0.00188228      -0.00132909 </v>
   <v>       0.00272385      -0.00064555      -0.00237899 </v>
  </varray>
  <varray name="stress" >
   <v>       0.06535696      -0.03036440      -0.07252365 </v>
   <v>      -0.03036396      -0.40688542       0.19973178 </v>
   <v>      -0.07252384       0.19973194      -0.32145385 </v>
  </varray>
  <energy>
   <i name="e_fr_energy">   -147.12706932 </i>
   <i name="e_wo_entrp">   -147.12434926 </i>
   <i name="e_0_energy">     -0.00816017 </i>
  </energy>
  <time name="totalsc">    2.46    2.51</time>
 </calculation>
 <calculation>
  <scstep>
   <time name="dav">    0.74    0.74</time>
   <time name="total">    0.80    0.80</time>
   <energy>
    <i name="alphaZ">   2029.39873696 </i>
    <i name="ewald"> -28768.33204571 </i>
    <i name="hartreedc">  -2922.22683233 </i>
    <i name="XCdc">    292.94902066 </i>
    <i name="pawpsdc">  31032.39371797 </i>
    <i name="pawaedc"> -30294.07901896 </i>
    <i name="eentropy">     -0.00820470 </i>
    <i name="bandstr">   2000.90116929 </i>
    <i name="atom">  26481.87638256 </i>
    <i name="e_fr_energy">   -147.12707426 </i>
    <i name="e_wo_entrp">   -147.11886956 </i>
    <i name="e_0_energy">   -147.12433936 </i>
   </energy>
  </scstep>
  <scstep>
   <time name="diag">    0.08    0.08</time>
   <time name="diis">    0.28    0.28</time>
   <time name="orth">    0.01    0.01</time>
   <time name="total">    0.39    0.40</time>
   <energy>
[...]
       <r>    8.5646    1.0000 </r>
       <r>    8.6040    1.0000 </r>
       <r>    8.6389    1.0000 </r>
       <r>    8.6731    1.0000 </r>
       <r>    8.7489    1.0000 </r>
       <r>    8.7762    1.0000 </r>
       <r>    8.8571    1.0000 </r>
       <r>    8.8840    1.0000 </r>
       <r>    8.8885    1.0000 </r>
       <r>    8.9284    1.0000 </r>
       <r>    8.9740    1.0002 </r>
       <r>    8.9946    1.0003 </r>
       <r>    9.0758    1.0037 </r>
       <r>    9.1323    1.0127 </r>
       <r>    9.1691    1.0230 </r>
       <r>    9.2026    1.0326 </r>
       <r>    9.2468    1.0317 </r>
       <r>    9.2622    1.0229 </r>
       <r>    9.3525    0.7957 </r>
       <r>    9.4949    0.0931 </r>
       <r>    9.6501   -0.0228 </r>
       <r>    9.6987   -0.0099 </r>
       <r>    9.7249   -0.0056 </r>
       <r>   10.6516   -0.0000 </r>
       <r>   10.6789   -0.0000 </r>
       <r>   10.7430   -0.0000 </r>
       <r>   10.8033   -0.0000 </r>
       <r>   10.8470   -0.0000 </r>
       <r>   10.9938   -0.0000 </r>
       <r>   11.1425   -0.0000 </r>
       <r>   11.1799   -0.0000 </r>
       <r>   11.3393   -0.0000 </r>
       <r>   11.6732   -0.0000 </r>
       <r>   11.8428   -0.0000 </r>
       <r>   11.8691   -0.0000 </r>
       <r>   12.8889   -0.0000 </r>
       <r>   12.9788   -0.0000 </r>
       <r>   13.0255   -0.0000 </r>
       <r>   13.0643   -0.0000 </r>
       <r>   13.1407   -0.0000 </r>
       <r>   13.1531   -0.0000 </r>
       <r>   13.3488   -0.0000 </r>
       <r>   13.4308   -0.0000 </r>
       <r>   13.5556    0.0000 </r>
       <r>   14.0479    0.0000 </r>
       <r>   14.1538    0.0000 </r>
       <r>   14.2686    0.0000 </r>
       <r>   14.7038    0.0000 </r>
       <r>   14.7648    0.0000 </r>
       <r>   14.8317    0.0000 </r>
       <r>   15.3512    0.0000 </r>
       <r>   15.4421    0.0000 </r>
       <r>   15.4874    0.0000 </r>
       <r>   15.5141    0.0000 </r>
       <r>   15.6034    0.0000 </r>
       <r>   15.6913    0.0000 </r>
      </set>
     </set>
    </set>
   </array>
  </eigenvalues>
  <separator name="orbital magnetization" >
   <v name="MAGDIPOLOUT">      0.00000000      0.00000000      0.00000000</v>
  </separator>
  <dos>
   <i name="efermi">      9.40916449 </i>
   <total>
    <array>
     <dimension dim="1">gridpoints</dimension>
     <dimension dim="2">spin</dimension>
     <field>energy</field>
     <field>total</field>
     <field>integrated</field>
     <set>
      <set comment="spin 1">
       <r>    -1.4708     0.0000     0.0000 </r>
       <r>    -1.4037     0.0000     0.0000 </r>
       <r>    -1.3367     0.0000     0.0000 </r>
       <r>    -1.2696     0.0000     0.0000 </r>
       <r>    -1.2025    -0.0000    -0.0000 </r>
       <r>    -1.1355    -0.0000    -0.0000 </r>
       <r>    -1.0684    -0.0000    -0.0000 </r>
       <r>    -1.0014    -0.0000    -0.0000 </r>
       <r>    -0.9343    -0.0000    -0.0000 </r>
       <r>    -0.8673    -0.0000    -0.0000 </r>
       <r>    -0.8002    -0.0000    -0.0000 </r>
       <r>    -0.7331    -0.0000    -0.0000 </r>
       <r>    -0.6661    -0.0000    -0.0000 </r>
       <r>    -0.5990    -0.0000    -0.0000 </r>
       <r>    -0.5320    -0.0000    -0.0000 </r>
       <r>    -0.4649    -0.0000    -0.0000 </r>
       <r>    -0.3979    -0.0002    -0.0000 </r>
       <r>    -0.3308    -0.0017    -0.0001 </r>
       <r>    -0.2637    -0.0083    -0.0007 </r>
       <r>    -0.1967    -0.0200    -0.0020 </r>
       <r>    -0.1296    -0.0033    -0.0022 </r>
       <r>    -0.0626     0.1144     0.0054 </r>
       <r>     0.0045     0.3068     0.0260 </r>
       <r>     0.0715     0.3524     0.0496 </r>
       <r>     0.1386     0.1451     0.0594 </r>
       <r>     0.2057     0.0668     0.0638 </r>
       <r>     0.2727     0.7153     0.1118 </r>
       <r>     0.3398     1.8910     0.2386 </r>
       <r>     0.4068     2.2685     0.3907 </r>
       <r>     0.4739     1.3021     0.4780 </r>
       <r>     0.5409     0.6289     0.5202 </r>
       <r>     0.6080     1.9724     0.6525 </r>
       <r>     0.6751     4.2161     0.9352 </r>
       <r>     0.7421     4.4100     1.2309 </r>
       <r>     0.8092     2.3950     1.3915 </r>
       <r>     0.8762     1.2286     1.4739 </r>
       <r>     0.9433     2.1685     1.6193 </r>
       <r>     1.0103     3.0228     1.8220 </r>
       <r>     1.0774     2.0953     1.9625 </r>
       <r>     1.1445     0.6894     2.0088 </r>
       <r>     1.2115     0.6312     2.0511 </r>
       <r>     1.2786     1.5873     2.1575 </r>
       <r>     1.3456     1.8517     2.2817 </r>
       <r>     1.4127     1.4321     2.3777 </r>
       <r>     1.4797     2.8993     2.5722 </r>
       <r>     1.5468     6.7992     3.0281 </r>
       <r>     1.6139     9.2056     3.6454 </r>
       <r>     1.6809     8.5912     4.2215 </r>
       <r>     1.7480     8.5680     4.7960 </r>
       <r>     1.8150     9.2315     5.4151 </r>
       <r>     1.8821     6.8949     5.8774 </r>
       <r>     1.9491     2.5439     6.0480 </r>
       <r>     2.0162    -0.1500     6.0380 </r>
       <r>     2.0833    -0.8484     5.9811 </r>
       <r>     2.1503    -0.8519     5.9240 </r>
       <r>     2.2174     0.6246     5.9658 </r>
       <r>     2.2844     5.5799     6.3400 </r>
       <r>     2.3515    12.2033     7.1583 </r>
       <r>     2.4186    14.6286     8.1393 </r>
       <r>     2.4856    11.2501     8.8937 </r>
       <r>     2.5527     6.6098     9.3369 </r>
       <r>     2.6197     4.5420     9.6415 </r>
       <r>     2.6868     7.2564    10.1281 </r>
       <r>     2.7538    16.2877    11.2203 </r>
       <r>     2.8209    27.4451    13.0607 </r>
       <r>     2.8880    30.9747    15.1378 </r>
       <r>     2.9550    24.7708    16.7988 </r>
       <r>     3.0221    19.8083    18.1271 </r>
       <r>     3.0891    23.8374    19.7256 </r>
       <r>     3.1562    31.9655    21.8691 </r>
       <r>     3.2232    38.4161    24.4452 </r>
       <r>     3.2903    44.3180    27.4170 </r>
       <r>     3.3574    50.9800    30.8356 </r>
       <r>     3.4244    53.4738    34.4214 </r>
       <r>     3.4915    48.0687    37.6448 </r>
       <r>     3.5585    41.3361    40.4167 </r>
       <r>     3.6256    41.8597    43.2237 </r>
       <r>     3.6926    49.5372    46.5455 </r>
       <r>     3.7597    58.4081    50.4622 </r>
       <r>     3.8268    62.6373    54.6625 </r>
       <r>     3.8938    60.1135    58.6935 </r>
       <r>     3.9609    53.2742    62.2660 </r>
       <r>     4.0279    45.5076    65.3176 </r>
       <r>     4.0950    40.4406    68.0294 </r>
       <r>     4.1620    42.2108    70.8599 </r>
       <r>     4.2291    49.4433    74.1755 </r>
       <r>     4.2962    54.7951    77.8499 </r>
       <r>     4.3632    53.2274    81.4192 </r>
       <r>     4.4303    45.6587    84.4809 </r>
       <r>     4.4973    36.6029    86.9354 </r>
       <r>     4.5644    31.3962    89.0408 </r>
       <r>     4.6314    34.0058    91.3211 </r>
       <r>     4.6985    43.5464    94.2412 </r>
       <r>     4.7656    53.5841    97.8344 </r>
       <r>     4.8326    57.8550   101.7140 </r>
       <r>     4.8997    55.9953   105.4689 </r>
       <r>     4.9667    53.1427   109.0325 </r>
       <r>     5.0338    53.8211   112.6416 </r>
       <r>     5.1008    57.2322   116.4794 </r>
       <r>     5.1679    59.5533   120.4729 </r>
       <r>     5.2350    59.5367   124.4653 </r>
       <r>     5.3020    59.5507   128.4586 </r>
       <r>     5.3691    60.7922   132.5352 </r>
       <r>     5.4361    61.2985   136.6457 </r>
       <r>     5.5032    59.6712   140.6471 </r>
       <r>     5.5702    57.5783   144.5081 </r>
       <r>     5.6373    57.9447   148.3937 </r>
       <r>     5.7044    61.3600   152.5084 </r>
       <r>     5.7714    65.3094   156.8878 </r>
       <r>     5.8385    67.6230   161.4225 </r>
       <r>     5.9055    67.5893   165.9548 </r>
       <r>     5.9726    64.9205   170.3082 </r>
       <r>     6.0396    61.0196   174.4000 </r>
       <r>     6.1067    58.5335   178.3251 </r>
       <r>     6.1738    58.5776   182.2532 </r>
       <r>     6.2408    60.4192   186.3047 </r>
       <r>     6.3079    62.5786   190.5011 </r>
       <r>     6.3749    63.5110   194.7599 </r>
       <r>     6.4420    62.8256   198.9729 </r>
       <r>     6.5090    61.1268   203.0719 </r>
       <r>     6.5761    58.1052   206.9682 </r>
       <r>     6.6432    53.5996   210.5625 </r>
       <r>     6.7102    49.8669   213.9064 </r>
       <r>     6.7773    48.5159   217.1598 </r>
       <r>     6.8443    47.8652   220.3695 </r>
       <r>     6.9114    45.9307   223.4495 </r>
       <r>     6.9784    42.6361   226.3085 </r>
       <r>     7.0455    39.2851   228.9429 </r>
       <r>     7.1126    37.5744   231.4625 </r>
       <r>     7.1796    38.3122   234.0316 </r>
       <r>     7.2467    41.9275   236.8432 </r>
       <r>     7.3137    47.8668   240.0530 </r>
       <r>     7.3808    52.2591   243.5574 </r>
       <r>     7.4478    52.1507   247.0544 </r>
       <r>     7.5149    50.2620   250.4249 </r>
       <r>     7.5820    49.9593   253.7750 </r>
       <r>     7.6490    49.4808   257.0931 </r>
       <r>     7.7161    45.7916   260.1637 </r>
       <r>     7.7831    41.0667   262.9175 </r>
       <r>     7.8502    39.8666   265.5909 </r>
       <r>     7.9172    42.0182   268.4085 </r>
       <r>     7.9843    43.9455   271.3554 </r>
       <r>     8.0514    44.7042   274.3531 </r>
       <r>     8.1184    45.9247   277.4327 </r>
       <r>     8.1855    47.8994   280.6447 </r>
       <r>     8.2525    49.1474   283.9404 </r>
       <r>     8.3196    49.0862   287.2320 </r>
       <r>     8.3867    49.1559   290.5283 </r>
       <r>     8.4537    50.3405   293.9040 </r>
       <r>     8.5208    51.2324   297.3395 </r>
       <r>     8.5878    50.3172   300.7136 </r>
       <r>     8.6549    47.9411   303.9284 </r>
       <r>     8.7219    45.8589   307.0036 </r>
       <r>     8.7890    46.4016   310.1151 </r>
       <r>     8.8561    49.5494   313.4378 </r>
       <r>     8.9231    51.0744   316.8627 </r>
       <r>     8.9902    47.9562   320.0785 </r>
       <r>     9.0572    43.2285   322.9773 </r>
       <r>     9.1243    40.7700   325.7112 </r>
       <r>     9.1913    39.5352   328.3624 </r>
       <r>     9.2584    37.1967   330.8567 </r>
       <r>     9.3255    34.6170   333.1780 </r>
       <r>     9.3925    33.6744   335.4361 </r>
       <r>     9.4596    33.9580   337.7132 </r>
       <r>     9.5266    32.9542   339.9231 </r>
       <r>     9.5937    29.0409   341.8705 </r>
       <r>     9.6607    22.9759   343.4112 </r>
       <r>     9.7278    15.8170   344.4718 </r>
       <r>     9.7949     8.4286   345.0370 </r>
       <r>     9.8619     3.2810   345.2570 </r>
       <r>     9.9290     2.0806   345.3965 </r>
       <r>     9.9960     3.0863   345.6035 </r>
       <r>    10.0631     4.0572   345.8756 </r>
       <r>    10.1301     4.8106   346.1982 </r>
       <r>    10.1972     5.6016   346.5738 </r>
       <r>    10.2643     5.8646   346.9671 </r>
       <r>    10.3313     5.6728   347.3475 </r>
       <r>    10.3984     6.1713   347.7613 </r>
       <r>    10.4654     7.7047   348.2779 </r>
       <r>    10.5325     9.9261   348.9436 </r>
       <r>    10.5995    12.9561   349.8124 </r>
       <r>    10.6666    15.9448   350.8816 </r>
       <r>    10.7337    16.9764   352.0200 </r>
       <r>    10.8007    15.7889   353.0787 </r>
       <r>    10.8678    14.0887   354.0235 </r>
       <r>    10.9348    12.9351   354.8909 </r>
       <r>    11.0019    11.4814   355.6608 </r>
       <r>    11.0689     9.5813   356.3033 </r>
       <r>    11.1360     8.9127   356.9009 </r>
       <r>    11.2031     9.0690   357.5091 </r>
       <r>    11.2701     7.8628   358.0363 </r>
       <r>    11.3372     5.3550   358.3954 </r>
       <r>    11.4042     2.5592   358.5670 </r>
       <r>    11.4713     0.3370   358.5896 </r>
       <r>    11.5383     1.2515   358.6736 </r>
       <r>    11.6054     7.3178   359.1643 </r>
       <r>    11.6725    14.9006   360.1635 </r>
       <r>    11.7395    17.8655   361.3615 </r>
       <r>    11.8066    17.1256   362.5099 </r>
       <r>    11.8736    17.7898   363.7028 </r>
       <r>    11.9407    19.2196   364.9916 </r>
       <r>    12.0077    17.5184   366.1664 </r>
       <r>    12.0748    12.4545   367.0015 </r>
       <r>    12.1419     6.5525   367.4409 </r>
       <r>    12.2089     1.9961   367.5748 </r>
       <r>    12.2760     0.0120   367.5756 </r>
       <r>    12.3430     0.8059   367.6296 </r>
       <r>    12.4101     3.4991   367.8643 </r>
       <r>    12.4771     6.4971   368.3000 </r>
       <r>    12.5442     8.4296   368.8652 </r>
       <r>    12.6113     8.6574   369.4458 </r>
       <r>    12.6783     6.7899   369.9011 </r>
       <r>    12.7454     3.5328   370.1380 </r>
       <r>    12.8124     1.7988   370.2586 </r>
       <r>    12.8795     4.0314   370.5289 </r>
       <r>    12.9465     8.9983   371.1323 </r>
       <r>    13.0136    13.3694   372.0288 </r>
       <r>    13.0807    15.0074   373.0352 </r>
       <r>    13.1477    13.1229   373.9152 </r>
       <r>    13.2148     8.3276   374.4736 </r>
       <r>    13.2818     4.1923   374.7547 </r>
       <r>    13.3489     4.1436   375.0326 </r>
       <r>    13.4159     6.9342   375.4976 </r>
       <r>    13.4830     9.5682   376.1392 </r>
       <r>    13.5501    11.4783   376.9089 </r>
       <r>    13.6171    12.9133   377.7748 </r>
       <r>    13.6842    13.3650   378.6711 </r>
       <r>    13.7512    12.7255   379.5244 </r>
       <r>    13.8183    11.6032   380.3025 </r>
       <r>    13.8853    10.7778   381.0252 </r>
       <r>    13.9524    10.6729   381.7409 </r>
       <r>    14.0195    10.8846   382.4708 </r>
       <r>    14.0865    10.2465   383.1579 </r>
       <r>    14.1536     8.3299   383.7165 </r>
       <r>    14.2206     6.2890   384.1382 </r>
       <r>    14.2877     4.5473   384.4431 </r>
       <r>    14.3547     2.7798   384.6295 </r>
       <r>    14.4218     2.6464   384.8070 </r>
       <r>    14.4889     6.1002   385.2161 </r>
       <r>    14.5559    12.3855   386.0466 </r>
       <r>    14.6230    19.4900   387.3535 </r>
       <r>    14.6900    24.8847   389.0222 </r>
       <r>    14.7571    24.8770   390.6904 </r>
       <r>    14.8242    18.5018   391.9311 </r>
       <r>    14.8912     9.6992   392.5815 </r>
       <r>    14.9583     2.9129   392.7768 </r>
       <r>    15.0253    -0.2282   392.7615 </r>
       <r>    15.0924    -0.1342   392.7525 </r>
       <r>    15.1594     2.4217   392.9149 </r>
       <r>    15.2265     7.0405   393.3870 </r>
       <r>    15.2936    13.3518   394.2824 </r>
       <r>    15.3606    20.3035   395.6439 </r>
       <r>    15.4277    25.8055   397.3743 </r>
       <r>    15.4947    27.5187   399.2197 </r>
       <r>    15.5618    25.0365   400.8985 </r>
       <r>    15.6288    20.2208   402.2545 </r>
       <r>    15.6959    14.2323   403.2089 </r>
       <r>    15.7630     7.5520   403.7153 </r>
       <r>    15.8300     2.3249   403.8712 </r>
       <r>    15.8971     0.1054   403.8782 </r>
       <r>    15.9641     0.0521   403.8817 </r>
       <r>    16.0312     0.8547   403.9391 </r>
       <r>    16.0982     1.6517   404.0498 </r>
       <r>    16.1653     1.9444   404.1802 </r>
       <r>    16.2324     1.7429   404.2971 </r>
       <r>    16.2994     1.7693   404.4157 </r>
       <r>    16.3665     3.2444   404.6333 </r>
       <r>    16.4335     5.6306   405.0109 </r>
       <r>    16.5006     6.1035   405.4201 </r>
       <r>    16.5676     4.0616   405.6925 </r>
       <r>    16.6347     2.4381   405.8560 </r>
       <r>    16.7018     2.8554   406.0475 </r>
       <r>    16.7688     4.0978   406.3222 </r>
       <r>    16.8359     5.0676   406.6621 </r>
       <r>    16.9029     5.5833   407.0365 </r>
       <r>    16.9700     5.3330   407.3941 </r>
       <r>    17.0370     4.2308   407.6778 </r>
       <r>    17.1041     2.7890   407.8648 </r>
       <r>    17.1712     1.5075   407.9659 </r>
       <r>    17.2382     0.5861   408.0052 </r>
       <r>    17.3053     0.0779   408.0104 </r>
       <r>    17.3723    -0.0757   408.0053 </r>
       <r>    17.4394    -0.0566   408.0016 </r>
       <r>    17.5064    -0.0189   408.0003 </r>
       <r>    17.5735    -0.0037   408.0000 </r>
       <r>    17.6406    -0.0004   408.0000 </r>
       <r>    17.7076    -0.0000   408.0000 </r>
       <r>    17.7747    -0.0000   408.0000 </r>
       <r>    17.8417    -0.0000   408.0000 </r>
       <r>    17.9088    -0.0000   408.0000 </r>
       <r>    17.9758    -0.0000   408.0000 </r>
       <r>    18.0429    -0.0000   408.0000 </r>
       <r>    18.1100    -0.0000   408.0000 </r>
       <r>    18.1770     0.0000   408.0000 </r>
       <r>    18.2441     0.0000   408.0000 </r>
       <r>    18.3111     0.0000   408.0000 </r>
       <r>    18.3782     0.0000   408.0000 </r>
       <r>    18.4452     0.0000   408.0000 </r>
       <r>    18.5123     0.0000   408.0000 </r>
       <r>    18.5794     0.0000   408.0000 </r>
       <r>    18.6464     0.0000   408.0000 </r>
      </set>
     </set>
    </array>
   </total>
  </dos>
 </calculation>
 <structure name="finalpos" >
  <crystal>
   <varray name="basis" >
    <v>       8.17054182       0.00580819       0.00825685 </v>
    <v>       0.00586344       8.10701885      -0.02046656 </v>
    <v>       0.00837395      -0.02062276       8.03629297 </v>
   </varray>
   <i name="volume">    532.30960829 </i>
   <varray name="rec_basis" >
    <v>       0.12239110      -0.00008884      -0.00012776 </v>
    <v>      -0.00008801       0.12335077       0.00031663 </v>
    <v>      -0.00012597       0.00031424       0.12443642 </v>
   </varray>
  </crystal>
  <varray name="positions" >
   <v>       0.25660296       0.99723258       0.25226439 </v>
   <v>       0.99981812       0.99674341       0.50349568 </v>
   <v>       0.99951936       0.50172771       0.99880483 </v>
   <v>       0.24985452       0.74812288       0.99851336 </v>
   <v>       0.99946035       0.50260951       0.50214433 </v>
   <v>       0.24921903       0.50671696       0.75045035 </v>
   <v>       0.00167620       0.74837700       0.75171970 </v>
   <v>       0.74782689       0.25289330       0.00033227 </v>
   <v>       0.50346646       0.25093923       0.25361583 </v>
   <v>       0.50067423       0.99994115       0.49984413 </v>
   <v>       0.74686716       0.99971399       0.74756944 </v>
   <v>       0.50345165       0.24964025       0.74561036 </v>
   <v>       0.74776107       0.49579645       0.24918205 </v>
   <v>       0.49651039       0.75016866       0.25224693 </v>
   <v>       0.49977178       0.49979347       0.49956360 </v>
   <v>       0.49628247       0.74905405       0.74565294 </v>
   <v>       0.99989087       0.99948066       0.99917551 </v>
   <v>       0.25317086       0.25132528       0.99974861 </v>
   <v>       0.00094218       0.24983637       0.25053290 </v>
   <v>       0.25145176       0.25052630       0.50107866 </v>
   <v>       0.25128573       0.99895009       0.74961857 </v>
   <v>       0.99931098       0.25120018       0.75144465 </v>
   <v>       0.25008977       0.50038963       0.25026688 </v>
   <v>       0.00021509       0.74932634       0.24900962 </v>
   <v>       0.24904127       0.75034148       0.49990454 </v>
   <v>       0.50066619       0.00006612       0.99910088 </v>
   <v>       0.74874828       0.00058388       0.25067001 </v>
   <v>       0.75147986       0.24994185       0.50023969 </v>
   <v>       0.49921934       0.50028831       0.99922644 </v>
   <v>       0.74785049       0.74880927       0.99900340 </v>
   <v>       0.74865627       0.74885709       0.50005785 </v>
   <v>       0.74922039       0.50060455       0.74991163 </v>
  </varray>
 </structure>
</modeling>
