<?xml version="1.0" encoding="ISO-8859-1"?>
<modeling>
 <generator>
  <i name="program" type="string">vasp </i>
  <i name="version" type="string">5.4.1  </i>
  <i name="subversion" type="string">05Feb16 (build Jan 29 2020 16:04:39) complex                          parallel </i>
  <i name="platform" type="string">IFC91_ompi </i>
  <i name="date" type="string">2020 06 15 </i>
  <i name="time" type="string">12:33:41 </i>
 </generator>
 <incar>
  <i type="string" name="SYSTEM"> automatically generated by mexm</i>
  <i type="int" name="ISTART">     0</i>
  <i type="string" name="PREC">accurate               ! avoid wrap aro</i>
  <i type="string" name="ALGO"> Fast                   ! blocked Davids</i>
  <i type="int" name="ISPIN">     1</i>
  <i type="int" name="ICHARG">     2</i>
  <i type="int" name="NELM">    70</i>
  <i type="int" name="IBRION">     2</i>
  <i name="EDIFF">      0.00001000</i>
  <i name="EDIFFG">     -0.01000000</i>
  <i type="int" name="NSW">   300</i>
  <i type="int" name="ISIF">     3</i>
  <i type="int" name="ISYM">     1</i>
  <i name="ENCUT">    300.00000000</i>
  <i name="POTIM">      0.15000000</i>
  <i type="string" name="LREAL"> Auto                  ! unpublished met</i>
  <i type="int" name="ISMEAR">     1</i>
  <i name="SIGMA">      0.15000000</i>
  <i type="logical" name="LWAVE"> F  </i>
  <i type="logical" name="LCHARG"> F  </i>
  <i type="logical" name="LVTOT"> F  </i>
  <v type="int" name="KPOINT_BSE">    -1     0     0     0</v>
  <i type="int" name="NELM">    70</i>
 </incar>
 <kpoints>
  <generation param="Gamma">
   <v type="int" name="divisions">       3        3        3 </v>
   <v name="usershift">      0.00000000       0.00000000       0.00000000 </v>
   <v name="genvec1">      0.33333333       0.00000000       0.00000000 </v>
   <v name="genvec2">     -0.00000000       0.33333333      -0.00000000 </v>
   <v name="genvec3">     -0.00000000       0.00000000       0.33333333 </v>
   <v name="shift">      0.00000000       0.00000000       0.00000000 </v>
  </generation>
  <varray name="kpointlist" >
   <v>       0.00000000       0.00000000       0.00000000 </v>
   <v>       0.33333333      -0.00000000       0.00000000 </v>
   <v>      -0.00000000       0.33333333      -0.00000000 </v>
   <v>       0.33333333       0.33333333       0.00000000 </v>
   <v>      -0.33333333       0.33333333      -0.00000000 </v>
   <v>       0.00000000      -0.00000000       0.33333333 </v>
   <v>       0.33333333       0.00000000       0.33333333 </v>
   <v>      -0.33333333       0.00000000       0.33333333 </v>
   <v>       0.00000000       0.33333333       0.33333333 </v>
   <v>       0.33333333       0.33333333       0.33333333 </v>
   <v>      -0.33333333       0.33333333       0.33333333 </v>
   <v>      -0.00000000      -0.33333333       0.33333333 </v>
   <v>       0.33333333      -0.33333333       0.33333333 </v>
   <v>      -0.33333333      -0.33333333       0.33333333 </v>
  </varray>
  <varray name="weights" >
   <v>       0.03703704 </v>
   <v>       0.07407407 </v>
   <v>       0.07407407 </v>
   <v>       0.07407407 </v>
   <v>       0.07407407 </v>
   <v>       0.07407407 </v>
   <v>       0.07407407 </v>
   <v>       0.07407407 </v>
   <v>       0.07407407 </v>
   <v>       0.07407407 </v>
   <v>       0.07407407 </v>
   <v>       0.07407407 </v>
   <v>       0.07407407 </v>
   <v>       0.07407407 </v>
  </varray>
 </kpoints>
 <parameters>
  <separator name="general" >
   <i type="string" name="SYSTEM">automatically generated by mexm</i>
   <i type="logical" name="LCOMPAT"> F  </i>
  </separator>
  <separator name="electronic" >
   <i type="string" name="PREC">accura</i>
   <i name="ENMAX">    300.00000000</i>
   <i name="ENAUG">    461.25700000</i>
   <i name="EDIFF">      0.00001000</i>
   <i type="int" name="IALGO">    68</i>
   <i type="int" name="IWAVPR">    11</i>
   <i type="int" name="NBANDS">   192</i>
   <i name="NELECT">    320.00000000</i>
   <i type="int" name="TURBO">     0</i>
   <i type="int" name="IRESTART">     0</i>
   <i type="int" name="NREBOOT">     0</i>
   <i type="int" name="NMIN">     0</i>
   <i name="EREF">      0.00000000</i>
   <separator name="electronic smearing" >
    <i type="int" name="ISMEAR">     1</i>
    <i name="SIGMA">      0.15000000</i>
    <i name="KSPACING">      0.50000000</i>
    <i type="logical" name="KGAMMA"> T  </i>
   </separator>
   <separator name="electronic projectors" >
    <i type="logical" name="LREAL"> T  </i>
    <v name="ROPT">     -0.00025000     -0.00025000     -0.00025000     -0.00025000</v>
    <i type="int" name="LMAXPAW">  -100</i>
    <i type="int" name="LMAXMIX">     2</i>
    <i type="logical" name="NLSPLINE"> F  </i>
   </separator>
   <separator name="electronic startup" >
    <i type="int" name="ISTART">     0</i>
    <i type="int" name="ICHARG">     2</i>
    <i type="int" name="INIWAV">     1</i>
   </separator>
   <separator name="electronic spin" >
    <i type="int" name="ISPIN">     1</i>
    <i type="logical" name="LNONCOLLINEAR"> F  </i>
    <v name="MAGMOM">      1.00000000      1.00000000      1.00000000      1.00000000      1.00000000      1.00000000      1.00000000      1.00000000      1.00000000      1.00000000      1.00000000      1.00000000      1.00000000      1.00000000      1.00000000      1.00000000      1.00000000      1.00000000      1.00000000      1.00000000
      1.00000000      1.00000000      1.00000000      1.00000000      1.00000000      1.00000000      1.00000000      1.00000000      1.00000000      1.00000000      1.00000000      1.00000000      1.00000000      1.00000000      1.00000000      1.00000000</v>
    <i name="NUPDOWN">     -1.00000000</i>
    <i type="logical" name="LSORBIT"> F  </i>
    <v name="SAXIS">      0.00000000      0.00000000      1.00000000</v>
    <i type="logical" name="LSPIRAL"> F  </i>
    <v name="QSPIRAL">      0.00000000      0.00000000      0.00000000</v>
    <i type="logical" name="LZEROZ"> F  </i>
   </separator>
   <separator name="electronic exchange-correlation" >
    <i type="logical" name="LASPH"> F  </i>
    <i type="logical" name="LMETAGGA"> F  </i>
   </separator>
   <separator name="electronic convergence" >
    <i type="int" name="NELM">    70</i>
    <i type="int" name="NELMDL">    -5</i>
    <i type="int" name="NELMIN">     2</i>
    <i name="ENINI">    300.00000000</i>
    <separator name="electronic convergence detail" >
     <i type="logical" name="LDIAG"> T  </i>
     <i type="logical" name="LSUBROT"> F  </i>
     <i name="WEIMIN">      0.00100000</i>
     <i name="EBREAK">      0.00000001</i>
     <i name="DEPER">      0.30000000</i>
     <i type="int" name="NRMM">     4</i>
     <i name="TIME">      0.40000000</i>
    </separator>
   </separator>
   <separator name="electronic mixer" >
    <i name="AMIX">      0.40000000</i>
    <i name="BMIX">      1.00000000</i>
    <i name="AMIN">      0.10000000</i>
    <i name="AMIX_MAG">      1.60000000</i>
    <i name="BMIX_MAG">      1.00000000</i>
    <separator name="electronic mixer details" >
     <i type="int" name="IMIX">     4</i>
     <i type="logical" name="MIXFIRST"> F  </i>
     <i type="int" name="MAXMIX">   -45</i>
     <i name="WC">    100.00000000</i>
     <i type="int" name="INIMIX">     1</i>
     <i type="int" name="MIXPRE">     1</i>
     <i type="int" name="MREMOVE">     5</i>
    </separator>
   </separator>
   <separator name="electronic dipolcorrection" >
    <i type="logical" name="LDIPOL"> F  </i>
    <i type="logical" name="LMONO"> F  </i>
    <i type="int" name="IDIPOL">     0</i>
    <i name="EPSILON">      1.00000000</i>
    <v name="DIPOL">   -100.00000000   -100.00000000   -100.00000000</v>
    <i name="EFIELD">      0.00000000</i>
   </separator>
  </separator>
  <separator name="grids" >
   <i type="int" name="NGX">    40</i>
   <i type="int" name="NGY">    60</i>
   <i type="int" name="NGZ">    60</i>
   <i type="int" name="NGXF">    80</i>
   <i type="int" name="NGYF">   120</i>
   <i type="int" name="NGZF">   120</i>
   <i type="logical" name="ADDGRID"> F  </i>
  </separator>
  <separator name="ionic" >
   <i type="int" name="NSW">   300</i>
   <i type="int" name="IBRION">     2</i>
   <i type="int" name="ISIF">     3</i>
   <i name="PSTRESS">      0.00000000</i>
   <i name="EDIFFG">     -0.01000000</i>
   <i type="int" name="NFREE">     1</i>
   <i name="POTIM">      0.15000000</i>
   <i name="SMASS">     -3.00000000</i>
   <i name="SCALEE">      1.00000000</i>
  </separator>
  <separator name="ionic md" >
   <i name="TEBEG">      0.00010000</i>
   <i name="TEEND">      0.00010000</i>
   <i type="int" name="NBLOCK">     1</i>
   <i type="int" name="KBLOCK">   300</i>
   <i type="int" name="NPACO">   256</i>
   <i name="APACO">     16.00000000</i>
  </separator>
  <separator name="symmetry" >
   <i type="int" name="ISYM">     1</i>
   <i name="SYMPREC">      0.00001000</i>
  </separator>
  <separator name="dos" >
   <i type="logical" name="LORBIT"> F  </i>
   <v name="RWIGS">     -1.00000000     -1.00000000     -1.00000000     -1.00000000</v>
   <i type="int" name="NEDOS">   301</i>
   <i name="EMIN">     10.00000000</i>
   <i name="EMAX">    -10.00000000</i>
   <i name="EFERMI">      0.00000000</i>
  </separator>
  <separator name="writing" >
   <i type="int" name="NWRITE">     2</i>
   <i type="logical" name="LWAVE"> F  </i>
   <i type="logical" name="LCHARG"> F  </i>
   <i type="logical" name="LPARD"> F  </i>
   <i type="logical" name="LVTOT"> F  </i>
   <i type="logical" name="LVHAR"> F  </i>
   <i type="logical" name="LELF"> F  </i>
   <i type="logical" name="LOPTICS"> F  </i>
   <v name="STM">      0.00000000      0.00000000      0.00000000      0.00000000      0.00000000      0.00000000      0.00000000</v>
  </separator>
  <separator name="performance" >
   <i type="int" name="NPAR">     4</i>
   <i type="int" name="NSIM">     4</i>
   <i type="int" name="NBLK">    -1</i>
   <i type="logical" name="LPLANE"> T  </i>
   <i type="logical" name="LSCALAPACK"> T  </i>
   <i type="logical" name="LSCAAWARE"> F  </i>
   <i type="logical" name="LSCALU"> F  </i>
   <i type="logical" name="LASYNC"> F  </i>
   <i type="logical" name="LORBITALREAL"> F  </i>
  </separator>
  <separator name="miscellaneous" >
   <i type="int" name="IDIOT">     3</i>
   <i type="logical" name="LMUSIC"> F  </i>
   <v name="POMASS">    178.49000000    180.94800000     91.22400000     92.91000000</v>
   <v name="DARWINR">      0.00000000      0.00000000      0.00000000      0.00000000</v>
   <v name="DARWINV">      1.00000000      1.00000000      1.00000000      1.00000000</v>
   <i type="logical" name="LCORR"> T  </i>
  </separator>
  <i type="logical" name="GGA_COMPAT"> T  </i>
  <i type="logical" name="LBERRY"> F  </i>
  <i type="int" name="ICORELEVEL">     0</i>
  <i type="logical" name="LDAU"> F  </i>
  <i type="int" name="I_CONSTRAINED_M">     0</i>
  <separator name="electronic exchange-correlation" >
   <i type="string" name="GGA">--</i>
   <i type="int" name="VOSKOWN">     0</i>
   <i type="logical" name="LHFCALC"> F  </i>
   <i type="string" name="PRECFOCK"></i>
   <i type="logical" name="LSYMGRAD"> F  </i>
   <i type="logical" name="LHFONE"> F  </i>
   <i type="logical" name="LRHFCALC"> F  </i>
   <i type="logical" name="LTHOMAS"> F  </i>
   <i type="logical" name="LMODELHF"> F  </i>
   <i name="ENCUT4O">     -1.00000000</i>
   <i type="int" name="EXXOEP">     0</i>
   <i type="int" name="FOURORBIT">     0</i>
   <i name="AEXX">      0.00000000</i>
   <i name="HFALPHA">      0.00000000</i>
   <i name="MCALPHA">      0.00000000</i>
   <i name="ALDAX">      1.00000000</i>
   <i name="AGGAX">      1.00000000</i>
   <i name="ALDAC">      1.00000000</i>
   <i name="AGGAC">      1.00000000</i>
   <i type="int" name="NKREDX">     1</i>
   <i type="int" name="NKREDY">     1</i>
   <i type="int" name="NKREDZ">     1</i>
   <i type="logical" name="SHIFTRED"> F  </i>
   <i type="logical" name="ODDONLY"> F  </i>
   <i type="logical" name="EVENONLY"> F  </i>
   <i type="int" name="LMAXFOCK">     0</i>
   <i type="int" name="NMAXFOCKAE">     0</i>
   <i type="logical" name="LFOCKAEDFT"> F  </i>
   <i name="HFSCREEN">      0.00000000</i>
   <i name="HFSCREENC">      0.00000000</i>
   <i type="int" name="NBANDSGWLOW">     0</i>
  </separator>
  <separator name="vdW DFT" >
   <i type="logical" name="LUSE_VDW"> F  </i>
   <i name="Zab_VDW">     -0.84910000</i>
   <i name="PARAM1">      0.12340000</i>
   <i name="PARAM2">      1.00000000</i>
   <i name="PARAM3">      0.00000000</i>
  </separator>
  <separator name="model GW" >
   <i type="int" name="MODEL_GW">     0</i>
   <i name="MODEL_EPS0">     12.17430908</i>
   <i name="MODEL_ALPHA">      1.00000000</i>
  </separator>
  <separator name="linear response parameters" >
   <i type="logical" name="LEPSILON"> F  </i>
   <i type="logical" name="LRPA"> F  </i>
   <i type="logical" name="LNABLA"> F  </i>
   <i type="logical" name="LVEL"> F  </i>
   <i type="int" name="KINTER">     0</i>
   <i name="CSHIFT">      0.10000000</i>
   <i name="OMEGAMAX">     -1.00000000</i>
   <i name="DEG_THRESHOLD">      0.00200000</i>
  </separator>
  <separator name="orbital magnetization" >
   <i type="logical" name="NUCIND"> F  </i>
   <v name="MAGPOS">      0.00000000      0.00000000      0.00000000</v>
   <i type="logical" name="LNICSALL"> T  </i>
   <i type="logical" name="ORBITALMAG"> F  </i>
   <i type="logical" name="LMAGBLOCH"> F  </i>
   <i type="logical" name="LCHIMAG"> F  </i>
   <i type="logical" name="LGAUGE"> T  </i>
   <i type="int" name="MAGATOM">     0</i>
   <v name="MAGDIPOL">      0.00000000      0.00000000      0.00000000</v>
   <v name="AVECCONST">      0.00000000      0.00000000      0.00000000</v>
  </separator>
  <separator name="response functions" >
   <i type="logical" name="LADDER"> F  </i>
   <i type="logical" name="LFXC"> F  </i>
   <i type="logical" name="LHARTREE"> T  </i>
   <i type="int" name="IBSE">     0</i>
   <v type="int" name="KPOINT">    -1     0     0     0</v>
   <i type="logical" name="LTCTE"> F  </i>
   <i type="logical" name="LTETE"> F  </i>
   <i type="logical" name="LTRIPLET"> F  </i>
   <i type="logical" name="LFXCEPS"> F  </i>
   <i type="logical" name="LFXHEG"> F  </i>
   <i type="int" name="NATURALO">     0</i>
   <i type="logical" name="L2ORDER"> F  </i>
   <i type="logical" name="LUSEW"> F  </i>
   <i name="ENCUTGW">     -2.00000000</i>
   <i name="ENCUTGWSOFT">     -2.00000000</i>
   <i name="ENCUTLF">     -1.00000000</i>
   <i type="int" name="LMAXMP2">    -1</i>
   <i name="SCISSOR">      0.00000000</i>
   <i type="int" name="NOMEGA">     0</i>
   <i type="int" name="NOMEGAR">     0</i>
   <i type="int" name="NBANDSGW">    -1</i>
   <i type="int" name="NBANDSO">    -1</i>
   <i type="int" name="NBANDSV">    -1</i>
   <i type="int" name="NELM">    70</i>
   <i type="int" name="NELMHF">     1</i>
   <i type="int" name="DIM">     3</i>
   <i type="int" name="ANTIRES">     0</i>
   <i name="OMEGAMAX">    -30.00000000</i>
   <i name="OMEGAMIN">    -30.00000000</i>
   <i name="OMEGATL">   -200.00000000</i>
   <i type="int" name="OMEGAGRID">     0</i>
   <i name="CSHIFT">     -0.10000000</i>
   <i type="logical" name="SELFENERGY"> F  </i>
   <i type="logical" name="LSPECTRAL"> F  </i>
   <i type="logical" name="LSPECTRALGW"> F  </i>
   <i type="logical" name="LSINGLES"> F  </i>
   <i type="logical" name="LFERMIGW"> F  </i>
   <i type="logical" name="ODDONLYGW"> F  </i>
   <i type="logical" name="EVENONLYGW"> F  </i>
   <i type="int" name="NKREDLFX">     1</i>
   <i type="int" name="NKREDLFY">     1</i>
   <i type="int" name="NKREDLFZ">     1</i>
   <i type="int" name="MAXMEM">  1800</i>
   <i type="int" name="TELESCOPE">     0</i>
   <i type="int" name="TAUPAR">     1</i>
   <i type="int" name="OMEGAPAR">    -1</i>
   <i name="LAMBDA">      1.00000000</i>
  </separator>
  <separator name="External order field" >
   <i name="OFIELD_KAPPA">      0.00000000</i>
   <v name="OFIELD_K">      0.00000000      0.00000000      0.00000000</v>
   <i name="OFIELD_Q6_NEAR">      0.00000000</i>
   <i name="OFIELD_Q6_FAR">      0.00000000</i>
   <i name="OFIELD_A">      0.00000000</i>
  </separator>
 </parameters>
 <atominfo>
  <atoms>      36 </atoms>
  <types>       4 </types>
  <array name="atoms" >
   <dimension dim="1">ion</dimension>
   <field type="string">element</field>
   <field type="int">atomtype</field>
   <set>
    <rc><c>Hf</c><c>   1</c></rc>
    <rc><c>Hf</c><c>   1</c></rc>
    <rc><c>Hf</c><c>   1</c></rc>
    <rc><c>Hf</c><c>   1</c></rc>
    <rc><c>Hf</c><c>   1</c></rc>
    <rc><c>Hf</c><c>   1</c></rc>
    <rc><c>Hf</c><c>   1</c></rc>
    <rc><c>Hf</c><c>   1</c></rc>
    <rc><c>Hf</c><c>   1</c></rc>
    <rc><c>Hf</c><c>   1</c></rc>
    <rc><c>Hf</c><c>   1</c></rc>
    <rc><c>Ta</c><c>   2</c></rc>
    <rc><c>Ta</c><c>   2</c></rc>
    <rc><c>Ta</c><c>   2</c></rc>
    <rc><c>Ta</c><c>   2</c></rc>
    <rc><c>Ta</c><c>   2</c></rc>
    <rc><c>Zr</c><c>   3</c></rc>
    <rc><c>Zr</c><c>   3</c></rc>
    <rc><c>Zr</c><c>   3</c></rc>
    <rc><c>Zr</c><c>   3</c></rc>
    <rc><c>Zr</c><c>   3</c></rc>
    <rc><c>Zr</c><c>   3</c></rc>
    <rc><c>Zr</c><c>   3</c></rc>
    <rc><c>Zr</c><c>   3</c></rc>
    <rc><c>Zr</c><c>   3</c></rc>
    <rc><c>Nb</c><c>   4</c></rc>
    <rc><c>Nb</c><c>   4</c></rc>
    <rc><c>Nb</c><c>   4</c></rc>
    <rc><c>Nb</c><c>   4</c></rc>
    <rc><c>Nb</c><c>   4</c></rc>
    <rc><c>Nb</c><c>   4</c></rc>
    <rc><c>Nb</c><c>   4</c></rc>
    <rc><c>Nb</c><c>   4</c></rc>
    <rc><c>Nb</c><c>   4</c></rc>
    <rc><c>Nb</c><c>   4</c></rc>
    <rc><c>Nb</c><c>   4</c></rc>
   </set>
  </array>
  <array name="atomtypes" >
   <dimension dim="1">type</dimension>
   <field type="int">atomspertype</field>
   <field type="string">element</field>
   <field>mass</field>
   <field>valence</field>
   <field type="string">pseudopotential</field>
   <set>
    <rc><c>  11</c><c>Hf</c><c>    178.49000000</c><c>      4.00000000</c><c>  PAW_PBE Hf 20Jan2003                  </c></rc>
    <rc><c>   5</c><c>Ta</c><c>    180.94800000</c><c>      5.00000000</c><c>  PAW_PBE Ta 17Jan2003                  </c></rc>
    <rc><c>   9</c><c>Zr</c><c>     91.22400000</c><c>     12.00000000</c><c>  PAW_PBE Zr_sv 04Jan2005               </c></rc>
    <rc><c>  11</c><c>Nb</c><c>     92.91000000</c><c>     13.00000000</c><c>  PAW_PBE Nb_sv 25May2007               </c></rc>
   </set>
  </array>
 </atominfo>
 <structure name="initialpos" >
  <crystal>
   <varray name="basis" >
    <v>       6.99179488      -0.00017958       0.03514763 </v>
    <v>      -0.00011473      10.26769288      -0.00506313 </v>
    <v>       0.05185348      -0.00613562      10.17525450 </v>
   </varray>
   <i name="volume">    730.45854505 </i>
   <varray name="rec_basis" >
    <v>       0.14302845       0.00000124      -0.00072888 </v>
    <v>       0.00000221       0.09739289       0.00005872 </v>
    <v>      -0.00049405       0.00004846       0.09828019 </v>
   </varray>
  </crystal>
  <varray name="positions" >
   <v>       0.47836900       0.01349700       0.99921600 </v>
   <v>       0.26617000       0.50411700       0.16724800 </v>
   <v>       0.49385300       0.66277200       0.64843800 </v>
   <v>       0.25643600       0.50877100       0.84469900 </v>
   <v>       0.23271700       0.17337000       0.48669600 </v>
   <v>       0.00699400       0.32988100       0.00559700 </v>
   <v>       0.96753800       0.66764200       0.02268700 </v>
   <v>       0.27497300       0.82131900       0.16180700 </v>
   <v>       0.46866900       0.99916200       0.66027400 </v>
   <v>       0.76492700       0.83728700       0.50496500 </v>
   <v>       0.25963800       0.82060200       0.84557900 </v>
   <v>       0.73018800       0.49567400       0.17916100 </v>
   <v>       0.03837700       0.99820800       0.67015800 </v>
   <v>       0.51195800       0.66574100       0.34630900 </v>
   <v>       0.77071000       0.50363800       0.49446700 </v>
   <v>       0.98324300       0.66930100       0.32583900 </v>
   <v>       0.99888600       0.99019600       0.31522900 </v>
   <v>       0.00906800       0.00314700       0.00641700 </v>
   <v>       0.76429500       0.16661700       0.50184100 </v>
   <v>       0.74993700       0.16226600       0.82951000 </v>
   <v>       0.72420900       0.17204700       0.17065400 </v>
   <v>       0.49411900       0.33564600       0.65966600 </v>
   <v>       0.75599800       0.83904400       0.82285200 </v>
   <v>       0.22637400       0.49500600       0.49025700 </v>
   <v>       0.75976100       0.49886200       0.82457700 </v>
   <v>       0.26250000       0.17184400       0.17446100 </v>
   <v>       0.01774300       0.67082400       0.65601300 </v>
   <v>       0.53945300       0.66436700       0.00632800 </v>
   <v>       0.71904300       0.83241600       0.17862000 </v>
   <v>       0.50733200       0.34404800       0.34149300 </v>
   <v>       0.98524800       0.34208200       0.31619100 </v>
   <v>       0.01425200       0.32866400       0.68227300 </v>
   <v>       0.23993900       0.83013700       0.48974200 </v>
   <v>       0.48620200       0.32097200       0.99842400 </v>
   <v>       0.24798200       0.16819800       0.83406500 </v>
   <v>       0.49289600       0.99264400       0.33824700 </v>
  </varray>
 </structure>
 <calculation>
  <scstep>
   <time name="dav">    1.22    1.24</time>
   <time name="total">    1.40    1.75</time>
   <energy>
    <i name="alphaZ">   1629.74206193 </i>
    <i name="ewald"> -22847.00390851 </i>
    <i name="hartreedc">  -7917.49781914 </i>
    <i name="XCdc">    157.51650732 </i>
    <i name="pawpsdc">  24913.81507814 </i>
    <i name="pawaedc"> -23519.28478534 </i>
    <i name="eentropy">      0.01795260 </i>
    <i name="bandstr">   -323.40724686 </i>
    <i name="atom">  30151.97267598 </i>
    <i name="e_fr_energy">   2245.87051611 </i>
    <i name="e_wo_entrp">   2245.85256351 </i>
    <i name="e_0_energy">   2245.86453191 </i>
   </energy>
  </scstep>
  <scstep>
   <time name="dav">    1.09    1.14</time>
   <time name="total">    1.09    1.32</time>
   <energy>
    <i name="e_fr_energy">    -47.94919838 </i>
    <i name="e_wo_entrp">    -47.94450265 </i>
    <i name="e_0_energy">    -47.94763314 </i>
   </energy>
  </scstep>
  <scstep>
   <time name="dav">    1.60    1.67</time>
   <time name="total">    1.60    1.70</time>
   <energy>
    <i name="e_fr_energy">   -331.26821788 </i>
    <i name="e_wo_entrp">   -331.24989420 </i>
    <i name="e_0_energy">   -331.26210999 </i>
   </energy>
  </scstep>
  <scstep>
   <time name="dav">    1.59    1.67</time>
   <time name="total">    1.59    1.70</time>
   <energy>
    <i name="e_fr_energy">   -365.27181284 </i>
    <i name="e_wo_entrp">   -365.27911923 </i>
    <i name="e_0_energy">   -365.27424830 </i>
   </energy>
  </scstep>
  <scstep>
   <time name="dav">    1.46    1.52</time>
   <time name="total">    1.50    1.59</time>
   <energy>
    <i name="e_fr_energy">   -368.71241134 </i>
    <i name="e_wo_entrp">   -368.72349180 </i>
    <i name="e_0_energy">   -368.71610482 </i>
   </energy>
  </scstep>
  <scstep>
   <time name="diag">    0.12    0.12</time>
   <time name="diis">    0.80    0.82</time>
   <time name="orth">    0.01    0.01</time>
   <time name="total">    1.00    1.07</time>
   <energy>
    <i name="e_fr_energy">   -358.41086479 </i>
    <i name="e_wo_entrp">   -358.42136362 </i>
    <i name="e_0_energy">   -358.41436440 </i>
   </energy>
  </scstep>
  <scstep>
   <time name="diag">    0.12    0.12</time>
   <time name="diis">    0.82    0.85</time>
   <time name="orth">    0.01    0.01</time>
   <time name="total">    1.10    1.20</time>
   <energy>
    <i name="e_fr_energy">   -357.89491428 </i>
    <i name="e_wo_entrp">   -357.89934306 </i>
    <i name="e_0_energy">   -357.89639054 </i>
   </energy>
  </scstep>
  <scstep>
   <time name="diag">    0.11    0.11</time>
   <time name="diis">    0.86    0.89</time>
   <time name="orth">    0.01    0.01</time>
   <time name="total">    1.05    1.13</time>
   <energy>
    <i name="e_fr_energy">   -354.76808309 </i>
    <i name="e_wo_entrp">   -354.77568907 </i>
    <i name="e_0_energy">   -354.77061842 </i>
   </energy>
  </scstep>
  <scstep>
   <time name="diag">    0.09    0.09</time>
   <time name="diis">    0.87    0.88</time>
   <time name="orth">    0.01    0.01</time>
   <time name="total">    1.05    1.10</time>
   <energy>
    <i name="e_fr_energy">   -354.53912280 </i>
    <i name="e_wo_entrp">   -354.55162356 </i>
    <i name="e_0_energy">   -354.54328972 </i>
   </energy>
  </scstep>
  <scstep>
   <time name="diag">    0.15    0.16</time>
   <time name="diis">    0.90    0.91</time>
   <time name="orth">    0.01    0.01</time>
   <time name="total">    1.16    1.22</time>
   <energy>
    <i name="e_fr_energy">   -354.49430480 </i>
    <i name="e_wo_entrp">   -354.50372672 </i>
    <i name="e_0_energy">   -354.49744544 </i>
   </energy>
  </scstep>
  <scstep>
   <time name="diag">    0.09    0.09</time>
   <time name="diis">    0.86    0.89</time>
   <time name="orth">    0.01    0.01</time>
   <time name="total">    1.03    1.11</time>
   <energy>
    <i name="e_fr_energy">   -354.46741005 </i>
    <i name="e_wo_entrp">   -354.47782137 </i>
    <i name="e_0_energy">   -354.47088049 </i>
   </energy>
  </scstep>
  <scstep>
   <time name="diag">    0.12    0.13</time>
   <time name="diis">    0.82    0.88</time>
   <time name="orth">    0.01    0.01</time>
   <time name="total">    1.03    1.14</time>
   <energy>
    <i name="e_fr_energy">   -354.46116192 </i>
    <i name="e_wo_entrp">   -354.47244655 </i>
    <i name="e_0_energy">   -354.46492346 </i>
   </energy>
  </scstep>
  <scstep>
   <time name="diag">    0.10    0.11</time>
   <time name="diis">    0.89    0.94</time>
   <time name="orth">    0.01    0.01</time>
   <time name="total">    1.08    1.17</time>
   <energy>
    <i name="e_fr_energy">   -354.45934954 </i>
    <i name="e_wo_entrp">   -354.46975948 </i>
    <i name="e_0_energy">   -354.46281952 </i>
   </energy>
  </scstep>
  <scstep>
   <time name="diag">    0.10    0.10</time>
   <time name="diis">    0.88    0.90</time>
   <time name="orth">    0.01    0.01</time>
   <time name="total">    1.06    1.13</time>
   <energy>
    <i name="e_fr_energy">   -354.45968862 </i>
    <i name="e_wo_entrp">   -354.47030258 </i>
    <i name="e_0_energy">   -354.46322661 </i>
   </energy>
  </scstep>
  <scstep>
   <time name="diag">    0.11    0.11</time>
   <time name="diis">    0.84    0.89</time>
   <time name="orth">    0.01    0.01</time>
   <time name="total">    1.03    1.12</time>
   <energy>
    <i name="e_fr_energy">   -354.45978790 </i>
    <i name="e_wo_entrp">   -354.47033103 </i>
    <i name="e_0_energy">   -354.46330227 </i>
   </energy>
  </scstep>
  <scstep>
   <time name="diag">    0.09    0.09</time>
   <time name="diis">    0.74    0.78</time>
   <time name="orth">    0.01    0.01</time>
   <time name="total">    0.92    1.00</time>
   <energy>
    <i name="e_fr_energy">   -354.45987178 </i>
    <i name="e_wo_entrp">   -354.47047048 </i>
    <i name="e_0_energy">   -354.46340468 </i>
   </energy>
  </scstep>
  <scstep>
   <time name="diag">    0.09    0.09</time>
   <time name="diis">    0.63    0.65</time>
   <time name="orth">    0.01    0.01</time>
   <time name="total">    1.00    1.08</time>
   <energy>
    <i name="e_fr_energy">   -354.45990134 </i>
    <i name="e_wo_entrp">   -354.47051834 </i>
    <i name="e_0_energy">   -354.46344034 </i>
   </energy>
  </scstep>
  <scstep>
   <time name="diag">    0.09    0.09</time>
   <time name="diis">    0.65    0.65</time>
   <time name="orth">    0.01    0.01</time>
   <time name="total">    0.82    0.88</time>
   <energy>
    <i name="e_fr_energy">   -354.45992518 </i>
    <i name="e_wo_entrp">   -354.47053744 </i>
    <i name="e_0_energy">   -354.46346260 </i>
   </energy>
  </scstep>
  <scstep>
   <time name="diag">    0.09    0.09</time>
   <time name="diis">    0.60    0.62</time>
   <time name="orth">    0.01    0.01</time>
   <time name="total">    0.77    0.84</time>
   <energy>
    <i name="e_fr_energy">   -354.45993213 </i>
    <i name="e_wo_entrp">   -354.47055032 </i>
    <i name="e_0_energy">   -354.46347153 </i>
   </energy>
  </scstep>
  <scstep>
   <time name="diag">    0.09    0.09</time>
   <time name="diis">    0.56    0.59</time>
   <time name="orth">    0.01    0.01</time>
   <time name="total">    0.70    0.77</time>
   <energy>
    <i name="alphaZ">   1629.74206193 </i>
    <i name="ewald"> -22847.00390851 </i>
    <i name="hartreedc">  -7648.33486060 </i>
    <i name="XCdc">    152.75316590 </i>
    <i name="pawpsdc">  37282.91263884 </i>
    <i name="pawaedc"> -35858.10209435 </i>
    <i name="eentropy">      0.01061939 </i>
    <i name="bandstr">  -3218.41023425 </i>
    <i name="atom">  30151.97267598 </i>
    <i name="e_fr_energy">   -354.45993566 </i>
    <i name="e_wo_entrp">   -354.47055505 </i>
    <i name="e_0_energy">   -354.46347546 </i>
   </energy>
  </scstep>
  <structure>
   <crystal>
    <varray name="basis" >
     <v>       6.99179488      -0.00017958       0.03514763 </v>
     <v>      -0.00011473      10.26769288      -0.00506313 </v>
     <v>       0.05185348      -0.00613562      10.17525450 </v>
    </varray>
    <i name="volume">    730.45854505 </i>
    <varray name="rec_basis" >
     <v>       0.14302845       0.00000124      -0.00072888 </v>
     <v>       0.00000221       0.09739289       0.00005872 </v>
     <v>      -0.00049405       0.00004846       0.09828019 </v>
    </varray>
   </crystal>
   <varray name="positions" >
    <v>       0.47836900       0.01349700       0.99921600 </v>
    <v>       0.26617000       0.50411700       0.16724800 </v>
    <v>       0.49385300       0.66277200       0.64843800 </v>
    <v>       0.25643600       0.50877100       0.84469900 </v>
    <v>       0.23271700       0.17337000       0.48669600 </v>
    <v>       0.00699400       0.32988100       0.00559700 </v>
    <v>       0.96753800       0.66764200       0.02268700 </v>
    <v>       0.27497300       0.82131900       0.16180700 </v>
    <v>       0.46866900       0.99916200       0.66027400 </v>
    <v>       0.76492700       0.83728700       0.50496500 </v>
    <v>       0.25963800       0.82060200       0.84557900 </v>
    <v>       0.73018800       0.49567400       0.17916100 </v>
    <v>       0.03837700       0.99820800       0.67015800 </v>
    <v>       0.51195800       0.66574100       0.34630900 </v>
    <v>       0.77071000       0.50363800       0.49446700 </v>
    <v>       0.98324300       0.66930100       0.32583900 </v>
    <v>       0.99888600       0.99019600       0.31522900 </v>
    <v>       0.00906800       0.00314700       0.00641700 </v>
    <v>       0.76429500       0.16661700       0.50184100 </v>
    <v>       0.74993700       0.16226600       0.82951000 </v>
    <v>       0.72420900       0.17204700       0.17065400 </v>
    <v>       0.49411900       0.33564600       0.65966600 </v>
    <v>       0.75599800       0.83904400       0.82285200 </v>
    <v>       0.22637400       0.49500600       0.49025700 </v>
    <v>       0.75976100       0.49886200       0.82457700 </v>
    <v>       0.26250000       0.17184400       0.17446100 </v>
    <v>       0.01774300       0.67082400       0.65601300 </v>
    <v>       0.53945300       0.66436700       0.00632800 </v>
    <v>       0.71904300       0.83241600       0.17862000 </v>
    <v>       0.50733200       0.34404800       0.34149300 </v>
    <v>       0.98524800       0.34208200       0.31619100 </v>
    <v>       0.01425200       0.32866400       0.68227300 </v>
    <v>       0.23993900       0.83013700       0.48974200 </v>
    <v>       0.48620200       0.32097200       0.99842400 </v>
    <v>       0.24798200       0.16819800       0.83406500 </v>
    <v>       0.49289600       0.99264400       0.33824700 </v>
   </varray>
  </structure>
  <varray name="forces" >
   <v>       0.23010108      -0.09900045       0.01091199 </v>
   <v>      -0.00969106      -0.00274286      -0.02582980 </v>
   <v>      -0.00553468       0.00780941       0.03682498 </v>
   <v>      -0.02548971       0.01085844       0.01327016 </v>
   <v>      -0.02915178       0.00102205       0.00100699 </v>
   <v>       0.02409519      -0.01581458       0.00322645 </v>
   <v>       0.00771908       0.01001655      -0.01149660 </v>
   <v>      -0.13909912      -0.35524646       0.22832702 </v>
   <v>       0.01348771       0.00052089      -0.07315192 </v>
   <v>       0.01182825       0.00266309       0.00643666 </v>
   <v>      -0.21466616      -0.40820968      -0.19652550 </v>
   <v>       0.02489263      -0.01853046       0.00163419 </v>
   <v>       0.05600219       0.00611968       0.01525719 </v>
   <v>       0.00837909       0.02635303      -0.01140483 </v>
   <v>       0.01181972      -0.02429239      -0.00674871 </v>
   <v>      -0.01857859       0.05331801      -0.01655505 </v>
   <v>       0.02538244       0.00683530      -0.03510932 </v>
   <v>      -0.08165125      -0.03185545      -0.01031159 </v>
   <v>       0.03611361       0.01651555       0.00137863 </v>
   <v>       0.27886744       0.18702042      -0.24684184 </v>
   <v>       0.15633045       0.25816925       0.23618550 </v>
   <v>      -0.02546653      -0.02981540       0.00879647 </v>
   <v>       0.18356959      -0.13568655      -0.20652906 </v>
   <v>      -0.02234792      -0.00724695       0.01295054 </v>
   <v>       0.01337508      -0.01256119      -0.00223769 </v>
   <v>      -0.21227613       0.38684308       0.43392695 </v>
   <v>      -0.00074328       0.02983733       0.02390395 </v>
   <v>       0.00972126       0.01984571       0.01131268 </v>
   <v>       0.09877037      -0.23173178       0.23585293 </v>
   <v>      -0.01148588      -0.01863408      -0.00974145 </v>
   <v>       0.02278395      -0.04955390      -0.00071111 </v>
   <v>      -0.01162991      -0.02786029       0.00297006 </v>
   <v>      -0.03823379      -0.01822434       0.01123835 </v>
   <v>      -0.00892509      -0.00238116       0.02145352 </v>
   <v>      -0.37035272       0.46536578      -0.42134232 </v>
   <v>       0.01208448       0.00027441      -0.04232842 </v>
  </varray>
  <varray name="stress" >
   <v>       7.19342570       0.03209199      -0.52293706 </v>
   <v>       0.03209199       7.25966563       0.09292728 </v>
   <v>      -0.52293705       0.09292735       7.37100423 </v>
  </varray>
  <energy>
   <i name="e_fr_energy">   -354.45993566 </i>
   <i name="e_wo_entrp">   -354.46347546 </i>
   <i name="e_0_energy">      0.01061939 </i>
  </energy>
  <time name="totalsc">   24.84   27.05</time>
 </calculation>
 <calculation>
  <scstep>
   <time name="dav">    1.34    1.46</time>
   <time name="total">    1.51    1.78</time>
   <energy>
    <i name="alphaZ">   1623.24028763 </i>
    <i name="ewald"> -22815.70169947 </i>
    <i name="hartreedc">  -7639.03420092 </i>
    <i name="XCdc">    151.36900704 </i>
    <i name="pawpsdc">  37282.95693704 </i>
    <i name="pawaedc"> -35858.14652529 </i>
    <i name="eentropy">      0.00970424 </i>
    <i name="bandstr">  -3251.19847098 </i>
    <i name="atom">  30151.97267598 </i>
    <i name="e_fr_energy">   -354.53228473 </i>
    <i name="e_wo_entrp">   -354.54198897 </i>
    <i name="e_0_energy">   -354.53551948 </i>
   </energy>
  </scstep>
  <scstep>
   <time name="diag">    0.14    0.15</time>
   <time name="diis">    0.84    0.89</time>
   <time name="orth">    0.01    0.01</time>
   <time name="total">    1.11    1.24</time>
   <energy>
    <i name="e_fr_energy">   -354.51424870 </i>
    <i name="e_wo_entrp">   -354.52512411 </i>
    <i name="e_0_energy">   -354.51787383 </i>
   </energy>
  </scstep>
  <scstep>
   <time name="diag">    0.09    0.10</time>
   <time name="diis">    0.83    0.87</time>
   <time name="orth">    0.01    0.01</time>
   <time name="total">    1.00    1.08</time>
   <energy>
    <i name="e_fr_energy">   -354.50202815 </i>
    <i name="e_wo_entrp">   -354.51299277 </i>
    <i name="e_0_energy">   -354.50568302 </i>
   </energy>
  </scstep>
  <scstep>
   <time name="diag">    0.13    0.14</time>
   <time name="diis">    0.86    0.90</time>
   <time name="orth">    0.01    0.01</time>
   <time name="total">    1.07    1.20</time>
   <energy>
    <i name="e_fr_energy">   -354.49656299 </i>
    <i name="e_wo_entrp">   -354.50735672 </i>
    <i name="e_0_energy">   -354.50016090 </i>
   </energy>
  </scstep>
  <scstep>
   <time name="diag">    0.09    0.09</time>
   <time name="diis">    0.87    0.92</time>
   <time name="orth">    0.01    0.01</time>
   <time name="total">    1.05    1.14</time>
   <energy>
    <i name="e_fr_energy">   -354.49558761 </i>
    <i name="e_wo_entrp">   -354.50632973 </i>
    <i name="e_0_energy">   -354.49916831 </i>
   </energy>
  </scstep>
  <scstep>
   <time name="diag">    0.11    0.11</time>
   <time name="diis">    0.86    0.91</time>
   <time name="orth">    0.01    0.01</time>
   <time name="total">    1.05    1.15</time>
   <energy>
    <i name="e_fr_energy">   -354.49561498 </i>
    <i name="e_wo_entrp">   -354.50655055 </i>
    <i name="e_0_energy">   -354.49926017 </i>
   </energy>
  </scstep>
  <scstep>
   <time name="diag">    0.11    0.11</time>
   <time name="diis">    0.83    0.87</time>
   <time name="orth">    0.01    0.01</time>
   <time name="total">    1.02    1.11</time>
   <energy>
    <i name="e_fr_energy">   -354.49561055 </i>
    <i name="e_wo_entrp">   -354.50647660 </i>
    <i name="e_0_energy">   -354.49923257 </i>
   </energy>
  </scstep>
  <scstep>
   <time name="diag">    0.11    0.11</time>
   <time name="diis">    0.80    0.84</time>
   <time name="orth">    0.01    0.01</time>
   <time name="total">    0.99    1.08</time>
   <energy>
    <i name="e_fr_energy">   -354.49564891 </i>
    <i name="e_wo_entrp">   -354.50642614 </i>
    <i name="e_0_energy">   -354.49924132 </i>
   </energy>
  </scstep>
  <scstep>
   <time name="diag">    0.12    0.12</time>
   <time name="diis">    0.61    0.64</time>
   <time name="orth">    0.01    0.01</time>
   <time name="total">    0.84    0.92</time>
   <energy>
    <i name="e_fr_energy">   -354.49567196 </i>
    <i name="e_wo_entrp">   -354.50650214 </i>
    <i name="e_0_energy">   -354.49928202 </i>
   </energy>
  </scstep>
  <scstep>
   <time name="diag">    0.09    0.09</time>
   <time name="diis">    0.59    0.62</time>
   <time name="orth">    0.01    0.01</time>
   <time name="total">    0.76    0.83</time>
   <energy>
    <i name="e_fr_energy">   -354.49568433 </i>
    <i name="e_wo_entrp">   -354.50651140 </i>
    <i name="e_0_energy">   -354.49929335 </i>
   </energy>
  </scstep>
  <scstep>
   <time name="diag">    0.11    0.11</time>
   <time name="diis">    0.55    0.57</time>
   <time name="orth">    0.01    0.01</time>
   <time name="total">    0.71    0.77</time>
   <energy>
    <i name="alphaZ">   1623.24028763 </i>
    <i name="ewald"> -22815.70169947 </i>
    <i name="hartreedc">  -7659.00499559 </i>
    <i name="XCdc">    152.27365113 </i>
    <i name="pawpsdc">  37102.22204918 </i>
    <i name="pawaedc"> -35677.68015068 </i>
    <i name="eentropy">      0.01084287 </i>
    <i name="bandstr">  -3231.82834354 </i>
    <i name="atom">  30151.97267598 </i>
    <i name="e_fr_energy">   -354.49568250 </i>
    <i name="e_wo_entrp">   -354.50652536 </i>
    <i name="e_0_energy">   -354.49929679 </i>
   </energy>
  </scstep>
  <structure>
   <crystal>
    <varray name="basis" >
     <v>       7.00100999      -0.00013809       0.03452496 </v>
     <v>      -0.00005400      10.28135511      -0.00489508 </v>
     <v>       0.05094653      -0.00597017      10.18899640 </v>
    </varray>
    <i name="volume">    733.38434515 </i>
    <varray name="rec_basis" >
     <v>       0.14284006       0.00000041      -0.00071422 </v>
     <v>       0.00000164       0.09726347       0.00005698 </v>
     <v>      -0.00048401       0.00004673       0.09814754 </v>
    </varray>
   </crystal>
   <varray name="positions" >
    <v>       0.47884520       0.01335747       0.99922981 </v>
    <v>       0.26615021       0.50411311       0.16721133 </v>
    <v>       0.49384115       0.66278304       0.64849042 </v>
    <v>       0.25638310       0.50878632       0.84471807 </v>
    <v>       0.23265664       0.17337144       0.48669764 </v>
    <v>       0.00704384       0.32985871       0.00560141 </v>
    <v>       0.96755410       0.66765611       0.02267060 </v>
    <v>       0.27468265       0.82081845       0.16213252 </v>
    <v>       0.46869769       0.99916267       0.66016985 </v>
    <v>       0.76495142       0.83729076       0.50497407 </v>
    <v>       0.25919570       0.82002644       0.84530071 </v>
    <v>       0.73023951       0.49564788       0.17916313 </v>
    <v>       0.03849276       0.99821664       0.67017931 </v>
    <v>       0.51197547       0.66577814       0.34629274 </v>
    <v>       0.77073454       0.50360375       0.49445730 </v>
    <v>       0.98320472       0.66937614       0.32581562 </v>
    <v>       0.99893891       0.99020561       0.31517888 </v>
    <v>       0.00889909       0.00310209       0.00640289 </v>
    <v>       0.76436974       0.16664028       0.50184271 </v>
    <v>       0.75051687       0.16252941       0.82915703 </v>
    <v>       0.72453012       0.17241111       0.17098901 </v>
    <v>       0.49406619       0.33560398       0.65967867 </v>
    <v>       0.75638017       0.83885257       0.82255683 </v>
    <v>       0.22632760       0.49499580       0.49027558 </v>
    <v>       0.75978871       0.49884429       0.82457371 </v>
    <v>       0.26205601       0.17238964       0.17508000 </v>
    <v>       0.01774121       0.67086608       0.65604703 </v>
    <v>       0.53947300       0.66439498       0.00634404 </v>
    <v>       0.71924496       0.83208957       0.17895461 </v>
    <v>       0.50730833       0.34402173       0.34147921 </v>
    <v>       0.98529517       0.34201215       0.31618979 </v>
    <v>       0.01422789       0.32862473       0.68227729 </v>
    <v>       0.23985974       0.83011132       0.48975825 </v>
    <v>       0.48618330       0.32096866       0.99845458 </v>
    <v>       0.24721981       0.16885359       0.83346866 </v>
    <v>       0.49292146       0.99264435       0.33818671 </v>
   </varray>
  </structure>
  <varray name="forces" >
   <v>       0.18329428      -0.06417752       0.01084992 </v>
   <v>      -0.00054243      -0.00587376      -0.02435866 </v>
   <v>      -0.00470408       0.00035302       0.01673703 </v>
   <v>      -0.02071799       0.00131416       0.01365414 </v>
   <v>      -0.02335976      -0.00605685       0.00404362 </v>
   <v>       0.02670299      -0.00894970       0.00785098 </v>
   <v>      -0.01242833       0.00000821      -0.00214084 </v>
   <v>      -0.10648989      -0.32210373       0.20046151 </v>
   <v>      -0.00211187       0.00037010      -0.05854298 </v>
   <v>       0.01303865       0.00310348      -0.00182794 </v>
   <v>      -0.19514485      -0.35670106      -0.16461416 </v>
   <v>       0.01369618      -0.01391608       0.00408955 </v>
   <v>       0.06506835       0.00792866       0.00704083 </v>
   <v>       0.01910365       0.01234830      -0.00406389 </v>
   <v>       0.01756520      -0.01522460      -0.01684481 </v>
   <v>      -0.02817059       0.04020269      -0.00947192 </v>
   <v>       0.02435591       0.00228281      -0.03065300 </v>
   <v>      -0.06333790      -0.02079338      -0.01487615 </v>
   <v>       0.02901198       0.00896422      -0.00339346 </v>
   <v>       0.26077490       0.15717893      -0.22197315 </v>
   <v>       0.13035464       0.23912426       0.21220991 </v>
   <v>      -0.02387065      -0.01970094      -0.00102980 </v>
   <v>       0.16942361      -0.11558049      -0.19268317 </v>
   <v>      -0.03408921      -0.00212540       0.01094609 </v>
   <v>       0.00914039      -0.01115659       0.00201133 </v>
   <v>      -0.16775653       0.34542155       0.38575874 </v>
   <v>       0.00234409       0.01959937       0.00554394 </v>
   <v>       0.01867530       0.01928056       0.02472648 </v>
   <v>       0.07807882      -0.21049671       0.21480410 </v>
   <v>      -0.01046470      -0.00230612      -0.00313640 </v>
   <v>       0.01865106      -0.02900810       0.00328834 </v>
   <v>      -0.00846803      -0.01452947      -0.00583429 </v>
   <v>      -0.03255670      -0.01290277       0.01375765 </v>
   <v>      -0.02052641      -0.01575564       0.03098495 </v>
   <v>      -0.33036774       0.39542961      -0.37339245 </v>
   <v>       0.00582765      -0.00555103      -0.03992203 </v>
  </varray>
  <varray name="stress" >
   <v>       1.94052227       0.04877302      -0.46740691 </v>
   <v>       0.04877304       1.97705505       0.06476804 </v>
   <v>      -0.46740689       0.06476811       2.10536367 </v>
  </varray>
  <energy>
   <i name="e_fr_energy">   -354.49568250 </i>
   <i name="e_wo_entrp">   -354.49929679 </i>
   <i name="e_0_energy">      0.01084287 </i>
  </energy>
  <time name="totalsc">   12.90   14.30</time>
 </calculation>
 <calculation>
  <scstep>
   <time name="dav">    1.24    1.30</time>
   <time name="total">    1.41    1.65</time>
   <energy>
    <i name="alphaZ">   1608.87444767 </i>
    <i name="ewald"> -22745.46621949 </i>
    <i name="hartreedc">  -7638.97059887 </i>
    <i name="XCdc">    149.20055771 </i>
    <i name="pawpsdc">  37102.39234487 </i>
    <i name="pawaedc"> -35677.90976090 </i>
    <i name="eentropy">      0.00925617 </i>
    <i name="bandstr">  -3304.81587317 </i>
    <i name="atom">  30151.97267598 </i>
    <i name="e_fr_energy">   -354.71317003 </i>
    <i name="e_wo_entrp">   -354.72242620 </i>
    <i name="e_0_energy">   -354.71625542 </i>
   </energy>
  </scstep>
  <scstep>
   <time name="diag">    0.10    0.10</time>
   <time name="diis">    0.79    0.83</time>
   <time name="orth">    0.01    0.01</time>
   <time name="total">    1.00    1.08</time>
   <energy>
    <i name="e_fr_energy">   -354.62275983 </i>
    <i name="e_wo_entrp">   -354.63383073 </i>
    <i name="e_0_energy">   -354.62645013 </i>
   </energy>
  </scstep>
  <scstep>
   <time name="diag">    0.09    0.09</time>
   <time name="diis">    0.85    0.88</time>
   <time name="orth">    0.01    0.01</time>
   <time name="total">    1.07    1.15</time>
   <energy>
    <i name="e_fr_energy">   -354.55897576 </i>
    <i name="e_wo_entrp">   -354.57071994 </i>
    <i name="e_0_energy">   -354.56289049 </i>
   </energy>
  </scstep>
  <scstep>
   <time name="diag">    0.10    0.10</time>
   <time name="diis">    0.87    0.89</time>
   <time name="orth">    0.01    0.01</time>
   <time name="total">    1.05    1.11</time>
   <energy>
    <i name="e_fr_energy">   -354.53254209 </i>
    <i name="e_wo_entrp">   -354.54374632 </i>
    <i name="e_0_energy">   -354.53627683 </i>
   </energy>
  </scstep>
  <scstep>
   <time name="diag">    0.09    0.09</time>
   <time name="diis">    0.86    0.89</time>
   <time name="orth">    0.01    0.01</time>
   <time name="total">    1.03    1.11</time>
   <energy>
    <i name="e_fr_energy">   -354.52744639 </i>
    <i name="e_wo_entrp">   -354.53858132 </i>
    <i name="e_0_energy">   -354.53115803 </i>
   </energy>
  </scstep>
  <scstep>
   <time name="diag">    0.14    0.15</time>
   <time name="diis">    0.88    0.93</time>
   <time name="orth">    0.01    0.01</time>
   <time name="total">    1.12    1.21</time>
   <energy>
    <i name="e_fr_energy">   -354.52765339 </i>
    <i name="e_wo_entrp">   -354.53918724 </i>
    <i name="e_0_energy">   -354.53149801 </i>
   </energy>
  </scstep>
  <scstep>
   <time name="diag">    0.09    0.09</time>
   <time name="diis">    0.91    0.96</time>
   <time name="orth">    0.01    0.01</time>
   <time name="total">    1.08    1.18</time>
   <energy>
    <i name="e_fr_energy">   -354.52778696 </i>
    <i name="e_wo_entrp">   -354.53918621 </i>
    <i name="e_0_energy">   -354.53158671 </i>
   </energy>
  </scstep>
  <scstep>
   <time name="diag">    0.09    0.09</time>
   <time name="diis">    1.05    1.10</time>
   <time name="orth">    0.01    0.01</time>
   <time name="total">    1.23    1.32</time>
   <energy>
    <i name="e_fr_energy">   -354.52803940 </i>
    <i name="e_wo_entrp">   -354.53925998 </i>
    <i name="e_0_energy">   -354.53177960 </i>
   </energy>
  </scstep>
  <scstep>
   <time name="diag">    0.09    0.10</time>
   <time name="diis">    0.84    0.89</time>
   <time name="orth">    0.01    0.01</time>
   <time name="total">    1.20    1.29</time>
   <energy>
    <i name="e_fr_energy">   -354.52818689 </i>
    <i name="e_wo_entrp">   -354.53951214 </i>
    <i name="e_0_energy">   -354.53196197 </i>
   </energy>
  </scstep>
  <scstep>
   <time name="diag">    0.15    0.15</time>
   <time name="diis">    1.27    1.32</time>
   <time name="orth">    0.01    0.01</time>
   <time name="total">    1.50    1.60</time>
   <energy>
    <i name="e_fr_energy">   -354.52830816 </i>
    <i name="e_wo_entrp">   -354.53962451 </i>
    <i name="e_0_energy">   -354.53208027 </i>
   </energy>
  </scstep>
  <scstep>
   <time name="diag">    0.13    0.14</time>
   <time name="diis">    1.60    1.65</time>
   <time name="orth">    0.01    0.01</time>
   <time name="total">    1.82    1.92</time>
   <energy>
    <i name="e_fr_energy">   -354.52834156 </i>
    <i name="e_wo_entrp">   -354.53969563 </i>
    <i name="e_0_energy">   -354.53212625 </i>
   </energy>
  </scstep>
  <scstep>
   <time name="diag">    0.09    0.09</time>
   <time name="diis">    0.64    0.66</time>
   <time name="orth">    0.01    0.01</time>
   <time name="total">    0.81    0.88</time>
   <energy>
    <i name="e_fr_energy">   -354.52833897 </i>
    <i name="e_wo_entrp">   -354.53966565 </i>
    <i name="e_0_energy">   -354.53211453 </i>
   </energy>
  </scstep>
  <scstep>
   <time name="diag">    0.11    0.11</time>
   <time name="diis">    0.53    0.55</time>
   <time name="orth">    0.01    0.01</time>
   <time name="total">    0.70    0.78</time>
   <energy>
    <i name="alphaZ">   1608.87444767 </i>
    <i name="ewald"> -22745.46621949 </i>
    <i name="hartreedc">  -7683.11686448 </i>
    <i name="XCdc">    151.19938180 </i>
    <i name="pawpsdc">  36709.59338271 </i>
    <i name="pawaedc"> -35286.04810880 </i>
    <i name="eentropy">      0.01132703 </i>
    <i name="bandstr">  -3261.54836125 </i>
    <i name="atom">  30151.97267598 </i>
    <i name="e_fr_energy">   -354.52833884 </i>
    <i name="e_wo_entrp">   -354.53966587 </i>
    <i name="e_0_energy">   -354.53211452 </i>
   </energy>
  </scstep>
  <structure>
   <crystal>
    <varray name="basis" >
     <v>       7.02154681      -0.00004564       0.03313728 </v>
     <v>       0.00008134      10.31180280      -0.00452055 </v>
     <v>       0.04892530      -0.00560145      10.21962162 </v>
    </varray>
    <i name="volume">    739.93282514 </i>
    <varray name="rec_basis" >
     <v>       0.14242198      -0.00000142      -0.00068183 </v>
     <v>       0.00000038       0.09697628       0.00005315 </v>
     <v>      -0.00046181       0.00004290       0.09785322 </v>
    </varray>
   </crystal>
   <varray name="positions" >
    <v>       0.47990506       0.01304692       0.99926061 </v>
    <v>       0.26610616       0.50410446       0.16712971 </v>
    <v>       0.49381481       0.66280761       0.64860710 </v>
    <v>       0.25626535       0.50882040       0.84476049 </v>
    <v>       0.23252231       0.17337465       0.48670129 </v>
    <v>       0.00715478       0.32980911       0.00561122 </v>
    <v>       0.96758993       0.66768751       0.02263410 </v>
    <v>       0.27403653       0.81970440       0.16285696 </v>
    <v>       0.46876152       0.99916417       0.65993807 </v>
    <v>       0.76500576       0.83729913       0.50499427 </v>
    <v>       0.25821122       0.81874545       0.84468132 </v>
    <v>       0.73035416       0.49558975       0.17916789 </v>
    <v>       0.03875043       0.99823587       0.67022674 </v>
    <v>       0.51201433       0.66586079       0.34625654 </v>
    <v>       0.77078915       0.50352753       0.49443571 </v>
    <v>       0.98311950       0.66954337       0.32576359 </v>
    <v>       0.99905666       0.99022699       0.31506735 </v>
    <v>       0.00852314       0.00300213       0.00637148 </v>
    <v>       0.76453609       0.16669210       0.50184654 </v>
    <v>       0.75180735       0.16311568       0.82837154 </v>
    <v>       0.72524493       0.17322146       0.17173464 </v>
    <v>       0.49394866       0.33551046       0.65970687 </v>
    <v>       0.75723066       0.83842654       0.82189996 </v>
    <v>       0.22622434       0.49497308       0.49031691 </v>
    <v>       0.75985038       0.49880488       0.82456640 </v>
    <v>       0.26106803       0.17360401       0.17645757 </v>
    <v>       0.01773724       0.67095973       0.65612276 </v>
    <v>       0.53951753       0.66445726       0.00637973 </v>
    <v>       0.71969458       0.83136303       0.17969935 </v>
    <v>       0.50725563       0.34396325       0.34144853 </v>
    <v>       0.98540016       0.34185669       0.31618711 </v>
    <v>       0.01417424       0.32853733       0.68228683 </v>
    <v>       0.23968333       0.83005417       0.48979439 </v>
    <v>       0.48614168       0.32096123       0.99852263 </v>
    <v>       0.24552325       0.17031271       0.83214132 </v>
    <v>       0.49297811       0.99264513       0.33805252 </v>
   </varray>
  </structure>
  <varray name="forces" >
   <v>       0.08907320       0.00351945       0.01283286 </v>
   <v>       0.01813423      -0.01221954      -0.02153994 </v>
   <v>      -0.00166292      -0.01642836      -0.02584729 </v>
   <v>      -0.00956695      -0.02008998       0.01370745 </v>
   <v>      -0.00983283      -0.02046413       0.01160796 </v>
   <v>       0.03293467       0.00692763       0.01774187 </v>
   <v>      -0.05495225      -0.02264392       0.01717052 </v>
   <v>      -0.03732846      -0.25306499       0.14294207 </v>
   <v>      -0.03421108      -0.00037864      -0.02821679 </v>
   <v>       0.01582309       0.00219354      -0.01996312 </v>
   <v>      -0.15519985      -0.24803171      -0.09855102 </v>
   <v>      -0.00993882      -0.00388652       0.00876681 </v>
   <v>       0.08441604       0.01073855      -0.00933737 </v>
   <v>       0.04211281      -0.01853456       0.01190080 </v>
   <v>       0.02931857       0.00547890      -0.03886209 </v>
   <v>      -0.04785369       0.01037242       0.00622433 </v>
   <v>       0.02265264      -0.00787378      -0.02267219 </v>
   <v>      -0.02415228       0.00360653      -0.02809794 </v>
   <v>       0.01282642      -0.00546599      -0.01493469 </v>
   <v>       0.22417178       0.09421087      -0.16784081 </v>
   <v>       0.07325366       0.19890007       0.16270802 </v>
   <v>      -0.01965507       0.00276998      -0.02055946 </v>
   <v>       0.14119943      -0.07393829      -0.16123176 </v>
   <v>      -0.05879966       0.01003442       0.00732153 </v>
   <v>      -0.00129436      -0.00794280       0.01225367 </v>
   <v>      -0.07356169       0.26414826       0.28904107 </v>
   <v>       0.01031794      -0.00286402      -0.03571953 </v>
   <v>       0.03860044       0.01753504       0.05405311 </v>
   <v>       0.03234284      -0.16550847       0.17086817 </v>
   <v>      -0.00862796       0.03133927       0.00866081 </v>
   <v>       0.00952967       0.01481703       0.01353477 </v>
   <v>      -0.00198783       0.01753407      -0.02693372 </v>
   <v>      -0.02059337      -0.00345169       0.01937918 </v>
   <v>      -0.04805184      -0.04409680       0.05055802 </v>
   <v>      -0.25122871       0.25239011      -0.27417324 </v>
   <v>      -0.00820781      -0.01963196      -0.03679205 </v>
  </varray>
  <varray name="stress" >
   <v>      -9.71976630       0.06992128      -0.31315255 </v>
   <v>       0.06992127      -9.81064696      -0.01836959 </v>
   <v>      -0.31315251      -0.01836967      -9.56995169 </v>
  </varray>
  <energy>
   <i name="e_fr_energy">   -354.52833884 </i>
   <i name="e_wo_entrp">   -354.53211452 </i>
   <i name="e_0_energy">      0.01132703 </i>
  </energy>
  <time name="totalsc">   16.70   18.25</time>
 </calculation>
 <calculation>
  <scstep>
   <time name="dav">    1.06    1.12</time>
   <time name="total">    1.19    1.43</time>
   <energy>
    <i name="alphaZ">   1611.68419009 </i>
    <i name="ewald"> -22756.60601645 </i>
    <i name="hartreedc">  -7689.52227192 </i>
    <i name="XCdc">    151.81864897 </i>
    <i name="pawpsdc">  36709.08795962 </i>
    <i name="pawaedc"> -35285.58153904 </i>
    <i name="eentropy">      0.01012628 </i>
    <i name="bandstr">  -3247.41806530 </i>
    <i name="atom">  30151.97267598 </i>
    <i name="e_fr_energy">   -354.55429178 </i>
    <i name="e_wo_entrp">   -354.56441806 </i>
    <i name="e_0_energy">   -354.55766721 </i>
   </energy>
  </scstep>
  <scstep>
   <time name="diag">    0.10    0.10</time>
   <time name="diis">    0.77    0.80</time>
   <time name="orth">    0.01    0.01</time>
   <time name="total">    0.95    1.02</time>
   <energy>
    <i name="e_fr_energy">   -354.56381309 </i>
    <i name="e_wo_entrp">   -354.57481673 </i>
    <i name="e_0_energy">   -354.56748097 </i>
   </energy>
  </scstep>
  <scstep>
   <time name="diag">    0.09    0.09</time>
   <time name="diis">    0.84    0.89</time>
   <time name="orth">    0.01    0.01</time>
   <time name="total">    1.05    1.13</time>
   <energy>
    <i name="e_fr_energy">   -354.55912648 </i>
    <i name="e_wo_entrp">   -354.56889109 </i>
    <i name="e_0_energy">   -354.56238135 </i>
   </energy>
  </scstep>
  <scstep>
   <time name="diag">    0.09    0.09</time>
   <time name="diis">    0.83    0.88</time>
   <time name="orth">    0.01    0.01</time>
   <time name="total">    1.00    1.09</time>
   <energy>
    <i name="e_fr_energy">   -354.55777299 </i>
    <i name="e_wo_entrp">   -354.56808816 </i>
    <i name="e_0_energy">   -354.56121138 </i>
   </energy>
  </scstep>
  <scstep>
   <time name="diag">    0.09    0.09</time>
   <time name="diis">    0.93    0.97</time>
   <time name="orth">    0.01    0.01</time>
   <time name="total">    1.11    1.18</time>
   <energy>
    <i name="e_fr_energy">   -354.55756225 </i>
    <i name="e_wo_entrp">   -354.56784512 </i>
    <i name="e_0_energy">   -354.56098987 </i>
   </energy>
  </scstep>
  <scstep>
   <time name="diag">    0.10    0.10</time>
   <time name="diis">    0.92    0.95</time>
   <time name="orth">    0.01    0.01</time>
   <time name="total">    1.10    1.16</time>
   <energy>
    <i name="e_fr_energy">   -354.55759925 </i>
    <i name="e_wo_entrp">   -354.56781307 </i>
    <i name="e_0_energy">   -354.56100386 </i>
   </energy>
  </scstep>
  <scstep>
   <time name="diag">    0.09    0.09</time>
   <time name="diis">    0.83    0.87</time>
   <time name="orth">    0.01    0.01</time>
   <time name="total">    1.03    1.11</time>
   <energy>
    <i name="e_fr_energy">   -354.55760210 </i>
    <i name="e_wo_entrp">   -354.56787492 </i>
    <i name="e_0_energy">   -354.56102637 </i>
   </energy>
  </scstep>
  <scstep>
   <time name="diag">    0.17    0.17</time>
   <time name="diis">    0.67    0.70</time>
   <time name="orth">    0.01    0.01</time>
   <time name="total">    0.92    0.99</time>
   <energy>
    <i name="e_fr_energy">   -354.55762638 </i>
    <i name="e_wo_entrp">   -354.56791243 </i>
    <i name="e_0_energy">   -354.56105506 </i>
   </energy>
  </scstep>
  <scstep>
   <time name="diag">    0.12    0.13</time>
   <time name="diis">    0.57    0.59</time>
   <time name="orth">    0.01    0.01</time>
   <time name="total">    0.77    0.85</time>
   <energy>
    <i name="e_fr_energy">   -354.55764562 </i>
    <i name="e_wo_entrp">   -354.56792749 </i>
    <i name="e_0_energy">   -354.56107291 </i>
   </energy>
  </scstep>
  <scstep>
   <time name="diag">    0.10    0.10</time>
   <time name="diis">    0.58    0.59</time>
   <time name="orth">    0.01    0.01</time>
   <time name="total">    0.77    0.85</time>
   <energy>
    <i name="e_fr_energy">   -354.55765733 </i>
    <i name="e_wo_entrp">   -354.56793041 </i>
    <i name="e_0_energy">   -354.56108169 </i>
   </energy>
  </scstep>
  <scstep>
   <time name="diag">    0.10    0.10</time>
   <time name="diis">    0.40    0.45</time>
   <time name="orth">    0.01    0.02</time>
   <time name="total">    0.55    0.64</time>
   <energy>
    <i name="alphaZ">   1611.68419009 </i>
    <i name="ewald"> -22756.60601645 </i>
    <i name="hartreedc">  -7681.08848220 </i>
    <i name="XCdc">    151.43726188 </i>
    <i name="pawpsdc">  36784.52409555 </i>
    <i name="pawaedc"> -35360.95944830 </i>
    <i name="eentropy">      0.01027742 </i>
    <i name="bandstr">  -3255.53221762 </i>
    <i name="atom">  30151.97267598 </i>
    <i name="e_fr_energy">   -354.55766366 </i>
    <i name="e_wo_entrp">   -354.56794107 </i>
    <i name="e_0_energy">   -354.56108946 </i>
   </energy>
  </scstep>
  <structure>
   <crystal>
    <varray name="basis" >
     <v>       7.01735706       0.00006748       0.03224034 </v>
     <v>       0.00024746      10.30559685      -0.00441486 </v>
     <v>       0.04761693      -0.00549498      10.21403121 </v>
    </varray>
    <i name="volume">    738.64285738 </i>
    <varray name="rec_basis" >
     <v>       0.14250685      -0.00000371      -0.00066436 </v>
     <v>      -0.00000117       0.09703467       0.00005221 </v>
     <v>      -0.00044982       0.00004195       0.09790666 </v>
    </varray>
   </crystal>
   <varray name="positions" >
    <v>       0.48043157       0.01294490       0.99928687 </v>
    <v>       0.26612451       0.50408622       0.16707447 </v>
    <v>       0.49380297       0.66279548       0.64861450 </v>
    <v>       0.25620734       0.50880700       0.84479234 </v>
    <v>       0.23245814       0.17335019       0.48671721 </v>
    <v>       0.00725306       0.32980077       0.00563676 </v>
    <v>       0.96750125       0.66767000       0.02264355 </v>
    <v>       0.27374546       0.81900662       0.16328543 </v>
    <v>       0.46872086       0.99916420       0.65982328 </v>
    <v>       0.76505359       0.83730472       0.50497594 </v>
    <v>       0.25758994       0.81799659       0.84434560 </v>
    <v>       0.73037514       0.49556498       0.17918063 </v>
    <v>       0.03899367       0.99825587       0.67023074 </v>
    <v>       0.51210480       0.66586597       0.34625888 </v>
    <v>       0.77086199       0.50350823       0.49437917 </v>
    <v>       0.98300246       0.66961365       0.32575388 </v>
    <v>       0.99913876       0.99022446       0.31500043 </v>
    <v>       0.00835024       0.00297236       0.00632543 </v>
    <v>       0.76461676       0.16670302       0.50182896 </v>
    <v>       0.75266221       0.16343417       0.82788961 </v>
    <v>       0.72562291       0.17374771       0.17219493 </v>
    <v>       0.49387251       0.33548186       0.65969074 </v>
    <v>       0.75778250       0.83818808       0.82147082 </v>
    <v>       0.22608103       0.49497784       0.49034065 </v>
    <v>       0.75986904       0.49878146       0.82457935 </v>
    <v>       0.26059209       0.17435029       0.17729444 </v>
    <v>       0.01775512       0.67098822       0.65610362 </v>
    <v>       0.53960313       0.66450055       0.00645986 </v>
    <v>       0.71990658       0.83090742       0.18016966 </v>
    <v>       0.50722167       0.34398236       0.34144899 </v>
    <v>       0.98545350       0.34182194       0.31620321 </v>
    <v>       0.01415245       0.32852927       0.68225617 </v>
    <v>       0.23958493       0.83003028       0.48983132 </v>
    <v>       0.48603884       0.32090364       0.99860993 </v>
    <v>       0.24448322       0.17112784       0.83134243 </v>
    <v>       0.49298278       0.99262086       0.33796021 </v>
   </varray>
  </structure>
  <varray name="forces" >
   <v>       0.06007156       0.01700302       0.01077055 </v>
   <v>       0.01757345      -0.01476014      -0.02454034 </v>
   <v>       0.00476310      -0.02454690      -0.02786795 </v>
   <v>      -0.00062910      -0.03044322       0.01178591 </v>
   <v>       0.00363465      -0.03019898       0.01413473 </v>
   <v>       0.02256959       0.01534927       0.02129695 </v>
   <v>      -0.05402421      -0.03068912       0.00700693 </v>
   <v>      -0.02026773      -0.20344866       0.10766217 </v>
   <v>      -0.02390880       0.00007906      -0.00936234 </v>
   <v>       0.00905596       0.01076257      -0.02450886 </v>
   <v>      -0.12894875      -0.18543220      -0.06315705 </v>
   <v>      -0.01623774      -0.00585420      -0.01141156 </v>
   <v>       0.06478465       0.01030151      -0.01769357 </v>
   <v>       0.03303280      -0.03259343       0.02149818 </v>
   <v>       0.02641836       0.00283729      -0.02674794 </v>
   <v>      -0.03676927      -0.00152976       0.01650645 </v>
   <v>       0.01816042      -0.00592182      -0.01818735 </v>
   <v>      -0.02020832       0.01083474      -0.03414457 </v>
   <v>      -0.00398363      -0.01459408      -0.01940678 </v>
   <v>       0.19438280       0.05902396      -0.13515683 </v>
   <v>       0.05835783       0.16116174       0.13193088 </v>
   <v>      -0.01085392       0.01310495      -0.02552856 </v>
   <v>       0.12115474      -0.04979865      -0.13314439 </v>
   <v>      -0.05749770       0.01488649       0.01264942 </v>
   <v>      -0.01259543      -0.00847937       0.02139628 </v>
   <v>      -0.04085175       0.21348396       0.23441570 </v>
   <v>       0.00526198      -0.02186798      -0.03929397 </v>
   <v>       0.02885098       0.01105604       0.04422735 </v>
   <v>       0.02631143      -0.11268365       0.12793073 </v>
   <v>      -0.02022186       0.03127486       0.01793389 </v>
   <v>       0.01772687       0.02475105       0.02874655 </v>
   <v>      -0.00817292       0.04507632      -0.04682860 </v>
   <v>      -0.00709852       0.00517516       0.01544989 </v>
   <v>      -0.04125837      -0.03771728       0.04861493 </v>
   <v>      -0.19931980       0.17745717      -0.21058505 </v>
   <v>      -0.00926336      -0.01305969      -0.02639179 </v>
  </varray>
  <varray name="stress" >
   <v>      -7.39220022       0.07657034      -0.24135822 </v>
   <v>       0.07657034      -7.49563783      -0.04636048 </v>
   <v>      -0.24135820      -0.04636052      -7.21040811 </v>
  </varray>
  <energy>
   <i name="e_fr_energy">   -354.55766366 </i>
   <i name="e_wo_entrp">   -354.56108946 </i>
   <i name="e_0_energy">      0.01027742 </i>
  </energy>
  <time name="totalsc">   12.81   14.23</time>
 </calculation>
 <calculation>
  <scstep>
   <time name="dav">    1.95    2.05</time>
   <time name="total">    2.14    2.44</time>
   <energy>
    <i name="alphaZ">   1619.71155952 </i>
    <i name="ewald"> -22786.30944328 </i>
    <i name="hartreedc">  -7701.32562534 </i>
    <i name="XCdc">    153.21769357 </i>
    <i name="pawpsdc">  36784.74062411 </i>
    <i name="pawaedc"> -35361.15514098 </i>
    <i name="eentropy">      0.00691210 </i>
    <i name="bandstr">  -3215.43197144 </i>
    <i name="atom">  30151.97267598 </i>
    <i name="e_fr_energy">   -354.57271575 </i>
    <i name="e_wo_entrp">   -354.57962786 </i>
    <i name="e_0_energy">   -354.57501979 </i>
   </energy>
  </scstep>
  <scstep>
   <time name="diag">    0.13    0.14</time>
   <time name="diis">    0.90    0.92</time>
   <time name="orth">    0.02    0.02</time>
   <time name="total">    1.12    1.18</time>
   <energy>
    <i name="e_fr_energy">   -354.65033211 </i>
    <i name="e_wo_entrp">   -354.66006565 </i>
    <i name="e_0_energy">   -354.65357663 </i>
   </energy>
  </scstep>
  <scstep>
   <time name="diag">    0.16    0.16</time>
   <time name="diis">    0.92    0.98</time>
   <time name="orth">    0.02    0.02</time>
   <time name="total">    1.18    1.27</time>
   <energy>
    <i name="e_fr_energy">   -354.61048950 </i>
    <i name="e_wo_entrp">   -354.61644295 </i>
    <i name="e_0_energy">   -354.61247398 </i>
   </energy>
  </scstep>
  <scstep>
   <time name="diag">    0.10    0.10</time>
   <time name="diis">    0.84    0.88</time>
   <time name="orth">    0.01    0.02</time>
   <time name="total">    1.02    1.12</time>
   <energy>
    <i name="e_fr_energy">   -354.60000582 </i>
    <i name="e_wo_entrp">   -354.60747471 </i>
    <i name="e_0_energy">   -354.60249545 </i>
   </energy>
  </scstep>
  <scstep>
   <time name="diag">    0.13    0.13</time>
   <time name="diis">    0.87    0.91</time>
   <time name="orth">    0.01    0.01</time>
   <time name="total">    1.08    1.18</time>
   <energy>
    <i name="e_fr_energy">   -354.59845285 </i>
    <i name="e_wo_entrp">   -354.60580230 </i>
    <i name="e_0_energy">   -354.60090267 </i>
   </energy>
  </scstep>
  <scstep>
   <time name="diag">    0.09    0.10</time>
   <time name="diis">    0.92    0.97</time>
   <time name="orth">    0.01    0.01</time>
   <time name="total">    1.11    1.20</time>
   <energy>
    <i name="e_fr_energy">   -354.59877957 </i>
    <i name="e_wo_entrp">   -354.60597765 </i>
    <i name="e_0_energy">   -354.60117893 </i>
   </energy>
  </scstep>
  <scstep>
   <time name="diag">    0.12    0.12</time>
   <time name="diis">    1.01    1.04</time>
   <time name="orth">    0.01    0.01</time>
   <time name="total">    1.22    1.30</time>
   <energy>
    <i name="e_fr_energy">   -354.59877481 </i>
    <i name="e_wo_entrp">   -354.60611842 </i>
    <i name="e_0_energy">   -354.60122268 </i>
   </energy>
  </scstep>
  <scstep>
   <time name="diag">    0.15    0.16</time>
   <time name="diis">    1.28    1.47</time>
   <time name="orth">    0.01    0.01</time>
   <time name="total">    2.09    2.33</time>
   <energy>
    <i name="e_fr_energy">   -354.59895091 </i>
    <i name="e_wo_entrp">   -354.60630502 </i>
    <i name="e_0_energy">   -354.60140228 </i>
   </energy>
  </scstep>
  <scstep>
   <time name="diag">    0.09    0.10</time>
   <time name="diis">    0.76    0.97</time>
   <time name="orth">    0.01    0.02</time>
   <time name="total">    0.93    1.21</time>
   <energy>
    <i name="e_fr_energy">   -354.59905475 </i>
    <i name="e_wo_entrp">   -354.60640872 </i>
    <i name="e_0_energy">   -354.60150607 </i>
   </energy>
  </scstep>
  <scstep>
   <time name="diag">    0.09    0.55</time>
   <time name="diis">    0.92    0.99</time>
   <time name="orth">    0.04    0.04</time>
   <time name="total">    1.33    2.64</time>
   <energy>
    <i name="e_fr_energy">   -354.59912118 </i>
    <i name="e_wo_entrp">   -354.60644723 </i>
    <i name="e_0_energy">   -354.60156320 </i>
   </energy>
  </scstep>
  <scstep>
   <time name="diag">    0.09    0.10</time>
   <time name="diis">    0.62    0.66</time>
   <time name="orth">    0.01    0.01</time>
   <time name="total">    0.80    0.87</time>
   <energy>
    <i name="e_fr_energy">   -354.59915296 </i>
    <i name="e_wo_entrp">   -354.60649606 </i>
    <i name="e_0_energy">   -354.60160066 </i>
   </energy>
  </scstep>
  <scstep>
   <time name="diag">    0.09    0.09</time>
   <time name="diis">    0.56    0.59</time>
   <time name="orth">    0.01    0.01</time>
   <time name="total">    0.72    0.79</time>
   <energy>
    <i name="alphaZ">   1619.71155952 </i>
    <i name="ewald"> -22786.30944328 </i>
    <i name="hartreedc">  -7677.84521609 </i>
    <i name="XCdc">    152.14993034 </i>
    <i name="pawpsdc">  37015.84244777 </i>
    <i name="pawaedc"> -35591.64065610 </i>
    <i name="eentropy">      0.00734191 </i>
    <i name="bandstr">  -3238.48779935 </i>
    <i name="atom">  30151.97267598 </i>
    <i name="e_fr_energy">   -354.59915930 </i>
    <i name="e_wo_entrp">   -354.60650121 </i>
    <i name="e_0_energy">   -354.60160660 </i>
   </energy>
  </scstep>
  <structure>
   <crystal>
    <varray name="basis" >
     <v>       7.00544095       0.00038920       0.02968933 </v>
     <v>       0.00071991      10.28794647      -0.00411424 </v>
     <v>       0.04389578      -0.00519216      10.19813148 </v>
    </varray>
    <i name="volume">    734.98210738 </i>
    <varray name="rec_basis" >
     <v>       0.14274879      -0.00001023      -0.00061444 </v>
     <v>      -0.00000561       0.09720115       0.00004951 </v>
     <v>      -0.00041558       0.00003924       0.09805899 </v>
    </varray>
   </crystal>
   <varray name="positions" >
    <v>       0.48192994       0.01265455       0.99936172 </v>
    <v>       0.26617670       0.50403430       0.16691730 </v>
    <v>       0.49376928       0.66276099       0.64863557 </v>
    <v>       0.25604225       0.50876886       0.84488297 </v>
    <v>       0.23227552       0.17328060       0.48676249 </v>
    <v>       0.00753276       0.32977705       0.00570946 </v>
    <v>       0.96724888       0.66762017       0.02267042 </v>
    <v>       0.27291740       0.81702084       0.16450468 </v>
    <v>       0.46860508       0.99916427       0.65949664 </v>
    <v>       0.76518969       0.83732064       0.50492379 </v>
    <v>       0.25582178       0.81586551       0.84339015 </v>
    <v>       0.73043486       0.49549449       0.17921690 </v>
    <v>       0.03968589       0.99831276       0.67024219 </v>
    <v>       0.51236224       0.66588072       0.34626555 </v>
    <v>       0.77106924       0.50345330       0.49421828 </v>
    <v>       0.98266935       0.66981363       0.32572624 </v>
    <v>       0.99937235       0.99021728       0.31480999 </v>
    <v>       0.00785818       0.00288765       0.00619434 </v>
    <v>       0.76484632       0.16673409       0.50177894 </v>
    <v>       0.75509472       0.16434049       0.82651837 </v>
    <v>       0.72669879       0.17524529       0.17350482 </v>
    <v>       0.49365579       0.33540046       0.65964480 </v>
    <v>       0.75935272       0.83750946       0.82024977 </v>
    <v>       0.22567321       0.49499137       0.49040818 </v>
    <v>       0.75992213       0.49871482       0.82461619 </v>
    <v>       0.25923806       0.17647407       0.17967579 </v>
    <v>       0.01780601       0.67106929       0.65604918 </v>
    <v>       0.53984676       0.66462371       0.00668793 </v>
    <v>       0.72051018       0.82961082       0.18150807 </v>
    <v>       0.50712501       0.34403675       0.34145031 </v>
    <v>       0.98560531       0.34172302       0.31624903 </v>
    <v>       0.01409041       0.32850631       0.68216893 </v>
    <v>       0.23930492       0.82996231       0.48993637 </v>
    <v>       0.48574621       0.32073974       0.99885833 </v>
    <v>       0.24152303       0.17344759       0.82906880 </v>
    <v>       0.49299601       0.99255177       0.33769752 </v>
   </varray>
  </structure>
  <varray name="forces" >
   <v>      -0.01275524       0.04705725       0.00890342 </v>
   <v>       0.01507826      -0.02331287      -0.03155338 </v>
   <v>       0.02381333      -0.04764005      -0.03478116 </v>
   <v>       0.02572166      -0.06173860       0.00694576 </v>
   <v>       0.04428224      -0.05850165       0.02254847 </v>
   <v>      -0.00823846       0.03908021       0.03333066 </v>
   <v>      -0.04931799      -0.05281693      -0.02242770 </v>
   <v>       0.02877450      -0.05873088       0.00853949 </v>
   <v>       0.00930329       0.00298283       0.04448134 </v>
   <v>      -0.01087539       0.03568167      -0.03795652 </v>
   <v>      -0.05464148      -0.00541083       0.03680055 </v>
   <v>      -0.03490231      -0.01229690      -0.06996721 </v>
   <v>       0.00520544       0.00641082      -0.04391398 </v>
   <v>       0.00519428      -0.07647610       0.05240083 </v>
   <v>       0.01752756      -0.00601579       0.00953294 </v>
   <v>      -0.00178492      -0.04089131       0.05091381 </v>
   <v>       0.00450673       0.00083790      -0.00641995 </v>
   <v>      -0.00727037       0.02788611      -0.05269207 </v>
   <v>      -0.05570225      -0.04054876      -0.03269309 </v>
   <v>       0.10094196      -0.04292064      -0.04101864 </v>
   <v>       0.01574757       0.04758657       0.04238265 </v>
   <v>       0.01764938       0.04507061      -0.03957049 </v>
   <v>       0.06322655       0.01770210      -0.05034811 </v>
   <v>      -0.05213111       0.02978980       0.02841777 </v>
   <v>      -0.04682529      -0.00969634       0.04814967 </v>
   <v>       0.05057568       0.07367978       0.07950368 </v>
   <v>      -0.00986530      -0.07887349      -0.05274879 </v>
   <v>       0.00020090      -0.00816088       0.01487774 </v>
   <v>       0.00900482       0.04323067       0.00474729 </v>
   <v>      -0.05251440       0.03209715       0.04674240 </v>
   <v>       0.03881461       0.05785850       0.07884713 </v>
   <v>      -0.03330663       0.13618593      -0.11756636 </v>
   <v>       0.03192065       0.02889963       0.00410820 </v>
   <v>      -0.02228961      -0.02021144       0.04037779 </v>
   <v>      -0.04242821      -0.03320334      -0.02899171 </v>
   <v>      -0.01264047       0.00540928       0.00009757 </v>
  </varray>
  <varray name="stress" >
   <v>      -0.18719271       0.07438876      -0.03886815 </v>
   <v>       0.07438879      -0.30729206      -0.12888443 </v>
   <v>      -0.03886815      -0.12888442       0.15768331 </v>
  </varray>
  <energy>
   <i name="e_fr_energy">   -354.59915930 </i>
   <i name="e_wo_entrp">   -354.60160660 </i>
   <i name="e_0_energy">      0.00734191 </i>
  </energy>
  <time name="totalsc">   16.63   19.61</time>
 </calculation>
 <calculation>
  <scstep>
   <time name="dav">    1.09    1.15</time>
   <time name="total">    1.22    1.43</time>
   <energy>
    <i name="alphaZ">   1620.97000478 </i>
    <i name="ewald"> -22790.68114419 </i>
    <i name="hartreedc">  -7681.30566493 </i>
    <i name="XCdc">    152.43098332 </i>
    <i name="pawpsdc">  37016.36901822 </i>
    <i name="pawaedc"> -35592.12907320 </i>
    <i name="eentropy">      0.00682686 </i>
    <i name="bandstr">  -3232.23278890 </i>
    <i name="atom">  30151.97267598 </i>
    <i name="e_fr_energy">   -354.59916206 </i>
    <i name="e_wo_entrp">   -354.60598892 </i>
    <i name="e_0_energy">   -354.60143768 </i>
   </energy>
  </scstep>
  <scstep>
   <time name="diag">    0.10    0.10</time>
   <time name="diis">    0.76    0.79</time>
   <time name="orth">    0.01    0.01</time>
   <time name="total">    0.97    1.03</time>
   <energy>
    <i name="e_fr_energy">   -354.60106343 </i>
    <i name="e_wo_entrp">   -354.60830898 </i>
    <i name="e_0_energy">   -354.60347861 </i>
   </energy>
  </scstep>
  <scstep>
   <time name="diag">    0.09    0.10</time>
   <time name="diis">    0.80    0.85</time>
   <time name="orth">    0.01    0.01</time>
   <time name="total">    1.00    1.09</time>
   <energy>
    <i name="e_fr_energy">   -354.60016571 </i>
    <i name="e_wo_entrp">   -354.60683789 </i>
    <i name="e_0_energy">   -354.60238977 </i>
   </energy>
  </scstep>
  <scstep>
   <time name="diag">    0.09    0.09</time>
   <time name="diis">    0.88    0.93</time>
   <time name="orth">    0.01    0.01</time>
   <time name="total">    1.05    1.14</time>
   <energy>
    <i name="e_fr_energy">   -354.59991248 </i>
    <i name="e_wo_entrp">   -354.60683048 </i>
    <i name="e_0_energy">   -354.60221848 </i>
   </energy>
  </scstep>
  <scstep>
   <time name="diag">    0.09    0.09</time>
   <time name="diis">    0.92    0.97</time>
   <time name="orth">    0.01    0.01</time>
   <time name="total">    1.09    1.18</time>
   <energy>
    <i name="e_fr_energy">   -354.59988338 </i>
    <i name="e_wo_entrp">   -354.60678140 </i>
    <i name="e_0_energy">   -354.60218272 </i>
   </energy>
  </scstep>
  <scstep>
[...]
       <r>    7.2649    1.0000 </r>
       <r>    7.3117    1.0000 </r>
       <r>    7.3377    1.0000 </r>
       <r>    7.3962    1.0000 </r>
       <r>    7.4229    1.0000 </r>
       <r>    7.4662    1.0001 </r>
       <r>    7.4976    1.0003 </r>
       <r>    7.5304    1.0008 </r>
       <r>    7.5631    1.0020 </r>
       <r>    7.6147    1.0072 </r>
       <r>    7.6375    1.0116 </r>
       <r>    7.6519    1.0151 </r>
       <r>    7.6846    1.0247 </r>
       <r>    7.7187    1.0338 </r>
       <r>    7.7298    1.0352 </r>
       <r>    7.8222    0.9404 </r>
       <r>    7.8506    0.8467 </r>
       <r>    7.9051    0.5804 </r>
       <r>    7.9400    0.3853 </r>
       <r>    7.9845    0.1684 </r>
       <r>    8.0220    0.0460 </r>
       <r>    8.0412    0.0071 </r>
       <r>    8.0875   -0.0335 </r>
       <r>    8.1194   -0.0339 </r>
       <r>    8.1506   -0.0258 </r>
       <r>    8.1876   -0.0149 </r>
       <r>    8.2127   -0.0092 </r>
       <r>    8.2730   -0.0021 </r>
       <r>    8.3219   -0.0005 </r>
       <r>    8.3558   -0.0002 </r>
       <r>    8.3835   -0.0001 </r>
       <r>    8.4419   -0.0000 </r>
       <r>    8.4727   -0.0000 </r>
       <r>    8.4912   -0.0000 </r>
       <r>    8.5300   -0.0000 </r>
       <r>    8.6007   -0.0000 </r>
       <r>    8.6707   -0.0000 </r>
       <r>    8.7113   -0.0000 </r>
       <r>    8.7707   -0.0000 </r>
       <r>    8.7894   -0.0000 </r>
       <r>    8.8719   -0.0000 </r>
       <r>    9.0585   -0.0000 </r>
       <r>    9.1848   -0.0000 </r>
       <r>    9.3107   -0.0000 </r>
       <r>    9.6929   -0.0000 </r>
       <r>    9.7890   -0.0000 </r>
       <r>    9.8349   -0.0000 </r>
       <r>    9.8839   -0.0000 </r>
       <r>    9.9427   -0.0000 </r>
      </set>
     </set>
    </set>
   </array>
  </eigenvalues>
  <separator name="orbital magnetization" >
   <v name="MAGDIPOLOUT">      0.00000000      0.00000000      0.00000000</v>
  </separator>
  <dos>
   <i name="efermi">      7.91945049 </i>
   <total>
    <array>
     <dimension dim="1">gridpoints</dimension>
     <dimension dim="2">spin</dimension>
     <field>energy</field>
     <field>total</field>
     <field>integrated</field>
     <set>
      <set comment="spin 1">
       <r>   -49.2154     0.0000     0.0000 </r>
       <r>   -49.0087     0.0000     0.0000 </r>
       <r>   -48.8021     0.0000     0.0000 </r>
       <r>   -48.5955     0.0000     0.0000 </r>
       <r>   -48.3889     0.0000     0.0000 </r>
       <r>   -48.1822     0.0000     0.0000 </r>
       <r>   -47.9756     0.0000     0.0000 </r>
       <r>   -47.7690    -0.0000    -0.0000 </r>
       <r>   -47.5623    -0.0000    -0.0000 </r>
       <r>   -47.3557    -0.0000    -0.0000 </r>
       <r>   -47.1491    -0.0000    -0.0000 </r>
       <r>   -46.9425    -0.0000    -0.0000 </r>
       <r>   -46.7358    -0.0498    -0.0103 </r>
       <r>   -46.5292    -1.5377    -0.3280 </r>
       <r>   -46.3226    32.0036     6.2848 </r>
       <r>   -46.1160    69.2932    20.6027 </r>
       <r>   -45.9093     7.3953    22.1308 </r>
       <r>   -45.7027    -0.6234    22.0019 </r>
       <r>   -45.4961    -0.0094    22.0000 </r>
       <r>   -45.2894    -0.0000    22.0000 </r>
       <r>   -45.0828    -0.0000    22.0000 </r>
       <r>   -44.8762     0.0000    22.0000 </r>
       <r>   -44.6696     0.0000    22.0000 </r>
       <r>   -44.4629     0.0000    22.0000 </r>
       <r>   -44.2563     0.0000    22.0000 </r>
       <r>   -44.0497     0.0000    22.0000 </r>
       <r>   -43.8431     0.0000    22.0000 </r>
       <r>   -43.6364     0.0000    22.0000 </r>
       <r>   -43.4298     0.0000    22.0000 </r>
       <r>   -43.2232     0.0000    22.0000 </r>
       <r>   -43.0165     0.0000    22.0000 </r>
       <r>   -42.8099     0.0000    22.0000 </r>
       <r>   -42.6033     0.0000    22.0000 </r>
       <r>   -42.3967     0.0000    22.0000 </r>
       <r>   -42.1900     0.0000    22.0000 </r>
       <r>   -41.9834     0.0000    22.0000 </r>
       <r>   -41.7768    -0.0000    22.0000 </r>
       <r>   -41.5701    -0.0000    22.0000 </r>
       <r>   -41.3635    -0.0000    22.0000 </r>
       <r>   -41.1569    -0.0000    22.0000 </r>
       <r>   -40.9503    -0.0000    22.0000 </r>
       <r>   -40.7436    -0.0359    21.9926 </r>
       <r>   -40.5370    -1.2765    21.7288 </r>
       <r>   -40.3304    25.1699    26.9296 </r>
       <r>   -40.1238    54.0287    38.0934 </r>
       <r>   -39.9171     9.8513    40.1290 </r>
       <r>   -39.7105    -0.6082    40.0033 </r>
       <r>   -39.5039    -0.0161    40.0000 </r>
       <r>   -39.2972    -0.0000    40.0000 </r>
       <r>   -39.0906    -0.0000    40.0000 </r>
       <r>   -38.8840     0.0000    40.0000 </r>
       <r>   -38.6774     0.0000    40.0000 </r>
       <r>   -38.4707     0.0000    40.0000 </r>
       <r>   -38.2641     0.0000    40.0000 </r>
       <r>   -38.0575     0.0000    40.0000 </r>
       <r>   -37.8509     0.0000    40.0000 </r>
       <r>   -37.6442     0.0000    40.0000 </r>
       <r>   -37.4376     0.0000    40.0000 </r>
       <r>   -37.2310     0.0000    40.0000 </r>
       <r>   -37.0243     0.0000    40.0000 </r>
       <r>   -36.8177     0.0000    40.0000 </r>
       <r>   -36.6111     0.0000    40.0000 </r>
       <r>   -36.4045     0.0000    40.0000 </r>
       <r>   -36.1978     0.0000    40.0000 </r>
       <r>   -35.9912     0.0000    40.0000 </r>
       <r>   -35.7846     0.0000    40.0000 </r>
       <r>   -35.5779     0.0000    40.0000 </r>
       <r>   -35.3713     0.0000    40.0000 </r>
       <r>   -35.1647     0.0000    40.0000 </r>
       <r>   -34.9581     0.0000    40.0000 </r>
       <r>   -34.7514     0.0000    40.0000 </r>
       <r>   -34.5448     0.0000    40.0000 </r>
       <r>   -34.3382     0.0000    40.0000 </r>
       <r>   -34.1316     0.0000    40.0000 </r>
       <r>   -33.9249     0.0000    40.0000 </r>
       <r>   -33.7183     0.0000    40.0000 </r>
       <r>   -33.5117     0.0000    40.0000 </r>
       <r>   -33.3050     0.0000    40.0000 </r>
       <r>   -33.0984     0.0000    40.0000 </r>
       <r>   -32.8918     0.0000    40.0000 </r>
       <r>   -32.6852     0.0000    40.0000 </r>
       <r>   -32.4785     0.0000    40.0000 </r>
       <r>   -32.2719     0.0000    40.0000 </r>
       <r>   -32.0653     0.0000    40.0000 </r>
       <r>   -31.8586     0.0000    40.0000 </r>
       <r>   -31.6520     0.0000    40.0000 </r>
       <r>   -31.4454     0.0000    40.0000 </r>
       <r>   -31.2388     0.0000    40.0000 </r>
       <r>   -31.0321     0.0000    40.0000 </r>
       <r>   -30.8255     0.0000    40.0000 </r>
       <r>   -30.6189     0.0000    40.0000 </r>
       <r>   -30.4123     0.0000    40.0000 </r>
       <r>   -30.2056     0.0000    40.0000 </r>
       <r>   -29.9990     0.0000    40.0000 </r>
       <r>   -29.7924     0.0000    40.0000 </r>
       <r>   -29.5857     0.0000    40.0000 </r>
       <r>   -29.3791     0.0000    40.0000 </r>
       <r>   -29.1725     0.0000    40.0000 </r>
       <r>   -28.9659     0.0000    40.0000 </r>
       <r>   -28.7592     0.0000    40.0000 </r>
       <r>   -28.5526     0.0000    40.0000 </r>
       <r>   -28.3460     0.0000    40.0000 </r>
       <r>   -28.1394     0.0000    40.0000 </r>
       <r>   -27.9327     0.0000    40.0000 </r>
       <r>   -27.7261     0.0000    40.0000 </r>
       <r>   -27.5195     0.0000    40.0000 </r>
       <r>   -27.3128     0.0000    40.0000 </r>
       <r>   -27.1062     0.0000    40.0000 </r>
       <r>   -26.8996     0.0000    40.0000 </r>
       <r>   -26.6930     0.0000    40.0000 </r>
       <r>   -26.4863     0.0000    40.0000 </r>
       <r>   -26.2797     0.0000    40.0000 </r>
       <r>   -26.0731     0.0000    40.0000 </r>
       <r>   -25.8664     0.0000    40.0000 </r>
       <r>   -25.6598     0.0000    40.0000 </r>
       <r>   -25.4532     0.0000    40.0000 </r>
       <r>   -25.2466     0.0000    40.0000 </r>
       <r>   -25.0399     0.0000    40.0000 </r>
       <r>   -24.8333     0.0000    40.0000 </r>
       <r>   -24.6267     0.0000    40.0000 </r>
       <r>   -24.4201     0.0000    40.0000 </r>
       <r>   -24.2134     0.0000    40.0000 </r>
       <r>   -24.0068    -0.0000    40.0000 </r>
       <r>   -23.8002    -0.0000    40.0000 </r>
       <r>   -23.5935    -0.0000    40.0000 </r>
       <r>   -23.3869    -0.0000    40.0000 </r>
       <r>   -23.1803    -0.0066    39.9986 </r>
       <r>   -22.9737    -0.9165    39.8093 </r>
       <r>   -22.7670    11.6531    42.2171 </r>
       <r>   -22.5604    56.9726    53.9893 </r>
       <r>   -22.3538   120.1457    78.8147 </r>
       <r>   -22.1472    93.1685    98.0659 </r>
       <r>   -21.9405    34.1561   105.1235 </r>
       <r>   -21.7339     4.6633   106.0870 </r>
       <r>   -21.5273    -0.4177   106.0007 </r>
       <r>   -21.3206    -0.0035   106.0000 </r>
       <r>   -21.1140    -0.0000   106.0000 </r>
       <r>   -20.9074    -0.0000   106.0000 </r>
       <r>   -20.7008     0.0000   106.0000 </r>
       <r>   -20.4941     0.0000   106.0000 </r>
       <r>   -20.2875     0.0000   106.0000 </r>
       <r>   -20.0809    -0.0000   106.0000 </r>
       <r>   -19.8742    -0.0000   106.0000 </r>
       <r>   -19.6676    -0.0000   106.0000 </r>
       <r>   -19.4610    -0.0000   106.0000 </r>
       <r>   -19.2544    -0.0004   105.9999 </r>
       <r>   -19.0477    -0.2020   105.9582 </r>
       <r>   -18.8411     1.4078   106.2491 </r>
       <r>   -18.6345    26.4982   111.7243 </r>
       <r>   -18.4279    60.4150   124.2077 </r>
       <r>   -18.2212   105.2844   145.9624 </r>
       <r>   -18.0146    64.8990   159.3723 </r>
       <r>   -17.8080     3.5184   160.0993 </r>
       <r>   -17.6013    -0.4776   160.0006 </r>
       <r>   -17.3947    -0.0030   160.0000 </r>
       <r>   -17.1881    -0.0000   160.0000 </r>
       <r>   -16.9815    -0.0000   160.0000 </r>
       <r>   -16.7748     0.0000   160.0000 </r>
       <r>   -16.5682     0.0000   160.0000 </r>
       <r>   -16.3616     0.0000   160.0000 </r>
       <r>   -16.1550     0.0000   160.0000 </r>
       <r>   -15.9483     0.0000   160.0000 </r>
       <r>   -15.7417     0.0000   160.0000 </r>
       <r>   -15.5351     0.0000   160.0000 </r>
       <r>   -15.3284     0.0000   160.0000 </r>
       <r>   -15.1218     0.0000   160.0000 </r>
       <r>   -14.9152     0.0000   160.0000 </r>
       <r>   -14.7086     0.0000   160.0000 </r>
       <r>   -14.5019     0.0000   160.0000 </r>
       <r>   -14.2953     0.0000   160.0000 </r>
       <r>   -14.0887     0.0000   160.0000 </r>
       <r>   -13.8820     0.0000   160.0000 </r>
       <r>   -13.6754     0.0000   160.0000 </r>
       <r>   -13.4688     0.0000   160.0000 </r>
       <r>   -13.2622     0.0000   160.0000 </r>
       <r>   -13.0555     0.0000   160.0000 </r>
       <r>   -12.8489     0.0000   160.0000 </r>
       <r>   -12.6423     0.0000   160.0000 </r>
       <r>   -12.4357     0.0000   160.0000 </r>
       <r>   -12.2290     0.0000   160.0000 </r>
       <r>   -12.0224     0.0000   160.0000 </r>
       <r>   -11.8158     0.0000   160.0000 </r>
       <r>   -11.6091     0.0000   160.0000 </r>
       <r>   -11.4025     0.0000   160.0000 </r>
       <r>   -11.1959     0.0000   160.0000 </r>
       <r>   -10.9893     0.0000   160.0000 </r>
       <r>   -10.7826     0.0000   160.0000 </r>
       <r>   -10.5760     0.0000   160.0000 </r>
       <r>   -10.3694     0.0000   160.0000 </r>
       <r>   -10.1628     0.0000   160.0000 </r>
       <r>    -9.9561     0.0000   160.0000 </r>
       <r>    -9.7495     0.0000   160.0000 </r>
       <r>    -9.5429     0.0000   160.0000 </r>
       <r>    -9.3362     0.0000   160.0000 </r>
       <r>    -9.1296     0.0000   160.0000 </r>
       <r>    -8.9230     0.0000   160.0000 </r>
       <r>    -8.7164     0.0000   160.0000 </r>
       <r>    -8.5097     0.0000   160.0000 </r>
       <r>    -8.3031     0.0000   160.0000 </r>
       <r>    -8.0965     0.0000   160.0000 </r>
       <r>    -7.8898     0.0000   160.0000 </r>
       <r>    -7.6832     0.0000   160.0000 </r>
       <r>    -7.4766     0.0000   160.0000 </r>
       <r>    -7.2700     0.0000   160.0000 </r>
       <r>    -7.0633     0.0000   160.0000 </r>
       <r>    -6.8567     0.0000   160.0000 </r>
       <r>    -6.6501     0.0000   160.0000 </r>
       <r>    -6.4435     0.0000   160.0000 </r>
       <r>    -6.2368     0.0000   160.0000 </r>
       <r>    -6.0302     0.0000   160.0000 </r>
       <r>    -5.8236     0.0000   160.0000 </r>
       <r>    -5.6169     0.0000   160.0000 </r>
       <r>    -5.4103     0.0000   160.0000 </r>
       <r>    -5.2037     0.0000   160.0000 </r>
       <r>    -4.9971     0.0000   160.0000 </r>
       <r>    -4.7904     0.0000   160.0000 </r>
       <r>    -4.5838     0.0000   160.0000 </r>
       <r>    -4.3772     0.0000   160.0000 </r>
       <r>    -4.1705     0.0000   160.0000 </r>
       <r>    -3.9639     0.0000   160.0000 </r>
       <r>    -3.7573     0.0000   160.0000 </r>
       <r>    -3.5507     0.0000   160.0000 </r>
       <r>    -3.3440     0.0000   160.0000 </r>
       <r>    -3.1374     0.0000   160.0000 </r>
       <r>    -2.9308     0.0000   160.0000 </r>
       <r>    -2.7242     0.0000   160.0000 </r>
       <r>    -2.5175     0.0000   160.0000 </r>
       <r>    -2.3109     0.0000   160.0000 </r>
       <r>    -2.1043     0.0000   160.0000 </r>
       <r>    -1.8976     0.0000   160.0000 </r>
       <r>    -1.6910     0.0000   160.0000 </r>
       <r>    -1.4844     0.0000   160.0000 </r>
       <r>    -1.2778     0.0000   160.0000 </r>
       <r>    -1.0711     0.0000   160.0000 </r>
       <r>    -0.8645     0.0000   160.0000 </r>
       <r>    -0.6579     0.0000   160.0000 </r>
       <r>    -0.4513     0.0000   160.0000 </r>
       <r>    -0.2446     0.0000   160.0000 </r>
       <r>    -0.0380    -0.0000   160.0000 </r>
       <r>     0.1686    -0.0000   160.0000 </r>
       <r>     0.3753    -0.0000   160.0000 </r>
       <r>     0.5819    -0.0000   160.0000 </r>
       <r>     0.7885    -0.0000   160.0000 </r>
       <r>     0.9951    -0.0019   159.9996 </r>
       <r>     1.2018     0.0032   160.0003 </r>
       <r>     1.4084     0.3658   160.0758 </r>
       <r>     1.6150     1.4002   160.3652 </r>
       <r>     1.8217     1.7687   160.7306 </r>
       <r>     2.0283     2.4421   161.2352 </r>
       <r>     2.2349     3.9399   162.0493 </r>
       <r>     2.4415     2.4729   162.5603 </r>
       <r>     2.6482     2.4495   163.0664 </r>
       <r>     2.8548     4.8784   164.0744 </r>
       <r>     3.0614     3.3059   164.7575 </r>
       <r>     3.2680     5.8620   165.9688 </r>
       <r>     3.4747     6.0489   167.2186 </r>
       <r>     3.6813     7.9994   168.8715 </r>
       <r>     3.8879    10.0996   170.9584 </r>
       <r>     4.0946     8.0415   172.6200 </r>
       <r>     4.3012    12.6220   175.2280 </r>
       <r>     4.5078    18.3646   179.0227 </r>
       <r>     4.7144    22.2477   183.6196 </r>
       <r>     4.9211    26.6349   189.1231 </r>
       <r>     5.1277    32.4704   195.8324 </r>
       <r>     5.3343    37.5196   203.5850 </r>
       <r>     5.5409    41.5900   212.1787 </r>
       <r>     5.7476    38.2444   220.0810 </r>
       <r>     5.9542    36.4855   227.6199 </r>
       <r>     6.1608    36.4254   235.1464 </r>
       <r>     6.3675    24.2135   240.1496 </r>
       <r>     6.5741    30.3000   246.4104 </r>
       <r>     6.7807    56.4128   258.0668 </r>
       <r>     6.9873    59.6903   270.4005 </r>
       <r>     7.1940    56.8438   282.1460 </r>
       <r>     7.4006    53.2660   293.1522 </r>
       <r>     7.6072    56.0210   304.7277 </r>
       <r>     7.8139    50.4096   315.1437 </r>
       <r>     8.0205    46.5605   324.7644 </r>
       <r>     8.2271    49.4190   334.9757 </r>
       <r>     8.4337    50.7527   345.4627 </r>
       <r>     8.6404    38.6977   353.4587 </r>
       <r>     8.8470    33.2189   360.3226 </r>
       <r>     9.0536    26.2497   365.7465 </r>
       <r>     9.2602    17.8287   369.4304 </r>
       <r>     9.4669    15.5475   372.6430 </r>
       <r>     9.6735    22.1373   377.2172 </r>
       <r>     9.8801    25.8439   382.5572 </r>
       <r>    10.0868     7.4415   384.0948 </r>
       <r>    10.2934    -0.4497   384.0019 </r>
       <r>    10.5000    -0.0092   384.0000 </r>
       <r>    10.7066    -0.0000   384.0000 </r>
       <r>    10.9133    -0.0000   384.0000 </r>
       <r>    11.1199     0.0000   384.0000 </r>
       <r>    11.3265     0.0000   384.0000 </r>
       <r>    11.5331     0.0000   384.0000 </r>
       <r>    11.7398     0.0000   384.0000 </r>
       <r>    11.9464     0.0000   384.0000 </r>
       <r>    12.1530     0.0000   384.0000 </r>
       <r>    12.3597     0.0000   384.0000 </r>
       <r>    12.5663     0.0000   384.0000 </r>
       <r>    12.7729     0.0000   384.0000 </r>
      </set>
     </set>
    </array>
   </total>
  </dos>
 </calculation>
 <structure name="finalpos" >
  <crystal>
   <varray name="basis" >
    <v>       7.00836974       0.00711519       0.02035075 </v>
    <v>       0.01058754      10.27268497      -0.00016586 </v>
    <v>       0.03026231      -0.00121715      10.20825758 </v>
   </varray>
   <i name="volume">    734.93410497 </i>
   <varray name="rec_basis" >
    <v>       0.14268791      -0.00014707      -0.00042301 </v>
    <v>      -0.00009886       0.09734564       0.00001190 </v>
    <v>      -0.00028446       0.00000187       0.09796075 </v>
   </varray>
  </crystal>
  <varray name="positions" >
   <v>       0.48376477       0.01310584       0.99853362 </v>
   <v>       0.26676588       0.50394156       0.16641453 </v>
   <v>       0.49592296       0.66337364       0.64912648 </v>
   <v>       0.25610797       0.50689437       0.84416069 </v>
   <v>       0.23535811       0.17201355       0.48835937 </v>
   <v>       0.00717565       0.32979508       0.00757286 </v>
   <v>       0.96520736       0.66585355       0.02249738 </v>
   <v>       0.27316116       0.81551479       0.16401614 </v>
   <v>       0.46821862       0.99835017       0.66358316 </v>
   <v>       0.76383963       0.83832227       0.50342581 </v>
   <v>       0.25150093       0.81456737       0.84411103 </v>
   <v>       0.72875929       0.49452165       0.17837887 </v>
   <v>       0.04045171       0.99801983       0.66800304 </v>
   <v>       0.51346131       0.66533838       0.34615415 </v>
   <v>       0.77230502       0.50343077       0.49450993 </v>
   <v>       0.98267372       0.66957004       0.32616965 </v>
   <v>       0.00299783       0.99032521       0.31491996 </v>
   <v>       0.00832909       0.00435448       0.00582513 </v>
   <v>       0.76179672       0.16521642       0.50028724 </v>
   <v>       0.76008904       0.16417928       0.82468670 </v>
   <v>       0.72851993       0.17576083       0.17625136 </v>
   <v>       0.49598861       0.33619515       0.65874464 </v>
   <v>       0.76365057       0.83742685       0.81890425 </v>
   <v>       0.22506759       0.49698889       0.49173721 </v>
   <v>       0.75384696       0.49699146       0.82863224 </v>
   <v>       0.26140915       0.17869939       0.18208439 </v>
   <v>       0.01482570       0.66858349       0.65486735 </v>
   <v>       0.53918518       0.66568515       0.00647322 </v>
   <v>       0.72173007       0.83049925       0.18104080 </v>
   <v>       0.50524713       0.34455695       0.34273192 </v>
   <v>       0.98751709       0.34317137       0.31962429 </v>
   <v>       0.00870820       0.33200046       0.67738301 </v>
   <v>       0.24283938       0.83009009       0.48931399 </v>
   <v>       0.48478829       0.31924764       0.00021844 </v>
   <v>       0.23684898       0.17476505       0.82651452 </v>
   <v>       0.49193737       0.99265871       0.33474264 </v>
  </varray>
 </structure>
</modeling>
