<?xml version="1.0" encoding="ISO-8859-1"?>
<modeling>
 <generator>
  <i name="program" type="string">vasp </i>
  <i name="version" type="string">5.4.1  </i>
  <i name="subversion" type="string">05Feb16 (build Jan 29 2020 16:04:39) complex                          parallel </i>
  <i name="platform" type="string">IFC91_ompi </i>
  <i name="date" type="string">2020 06 15 </i>
  <i name="time" type="string">04:08:41 </i>
 </generator>
 <incar>
  <i type="string" name="SYSTEM"> automatically generated by mexm</i>
  <i type="int" name="ISTART">     0</i>
  <i type="string" name="PREC">accurate               ! avoid wrap aro</i>
  <i type="string" name="ALGO"> Fast                   ! blocked Davids</i>
  <i type="int" name="ISPIN">     1</i>
  <i type="int" name="ICHARG">     2</i>
  <i type="int" name="NELM">    70</i>
  <i type="int" name="IBRION">     2</i>
  <i name="EDIFF">      0.00001000</i>
  <i name="EDIFFG">     -0.01000000</i>
  <i type="int" name="NSW">   300</i>
  <i type="int" name="ISIF">     3</i>
  <i type="int" name="ISYM">     1</i>
  <i name="ENCUT">    300.00000000</i>
  <i name="POTIM">      0.15000000</i>
  <i type="string" name="LREAL"> Auto                  ! unpublished met</i>
  <i type="int" name="ISMEAR">     1</i>
  <i name="SIGMA">      0.15000000</i>
  <i type="logical" name="LWAVE"> F  </i>
  <i type="logical" name="LCHARG"> F  </i>
  <i type="logical" name="LVTOT"> F  </i>
  <v type="int" name="KPOINT_BSE">    -1     0     0     0</v>
  <i type="int" name="NELM">    70</i>
 </incar>
 <kpoints>
  <generation param="Gamma">
   <v type="int" name="divisions">       3        3        3 </v>
   <v name="usershift">      0.00000000       0.00000000       0.00000000 </v>
   <v name="genvec1">      0.33333333       0.00000000      -0.00000000 </v>
   <v name="genvec2">      0.00000000       0.33333333      -0.00000000 </v>
   <v name="genvec3">     -0.00000000      -0.00000000       0.33333333 </v>
   <v name="shift">      0.00000000       0.00000000       0.00000000 </v>
  </generation>
  <varray name="kpointlist" >
   <v>       0.00000000       0.00000000       0.00000000 </v>
   <v>       0.33333333      -0.00000000      -0.00000000 </v>
   <v>       0.00000000       0.33333333       0.00000000 </v>
   <v>       0.33333333       0.33333333       0.00000000 </v>
   <v>      -0.33333333       0.33333333       0.00000000 </v>
   <v>       0.00000000       0.00000000       0.33333333 </v>
   <v>       0.33333333       0.00000000       0.33333333 </v>
   <v>      -0.33333333      -0.00000000       0.33333333 </v>
   <v>       0.00000000       0.33333333       0.33333333 </v>
   <v>       0.33333333       0.33333333       0.33333333 </v>
   <v>      -0.33333333       0.33333333       0.33333333 </v>
   <v>      -0.00000000      -0.33333333       0.33333333 </v>
   <v>       0.33333333      -0.33333333       0.33333333 </v>
   <v>      -0.33333333      -0.33333333       0.33333333 </v>
  </varray>
  <varray name="weights" >
   <v>       0.03703704 </v>
   <v>       0.07407407 </v>
   <v>       0.07407407 </v>
   <v>       0.07407407 </v>
   <v>       0.07407407 </v>
   <v>       0.07407407 </v>
   <v>       0.07407407 </v>
   <v>       0.07407407 </v>
   <v>       0.07407407 </v>
   <v>       0.07407407 </v>
   <v>       0.07407407 </v>
   <v>       0.07407407 </v>
   <v>       0.07407407 </v>
   <v>       0.07407407 </v>
  </varray>
 </kpoints>
 <parameters>
  <separator name="general" >
   <i type="string" name="SYSTEM">automatically generated by mexm</i>
   <i type="logical" name="LCOMPAT"> F  </i>
  </separator>
  <separator name="electronic" >
   <i type="string" name="PREC">accura</i>
   <i name="ENMAX">    300.00000000</i>
   <i name="ENAUG">    461.25700000</i>
   <i name="EDIFF">      0.00001000</i>
   <i type="int" name="IALGO">    68</i>
   <i type="int" name="IWAVPR">    11</i>
   <i type="int" name="NBANDS">   172</i>
   <i name="NELECT">    287.00000000</i>
   <i type="int" name="TURBO">     0</i>
   <i type="int" name="IRESTART">     0</i>
   <i type="int" name="NREBOOT">     0</i>
   <i type="int" name="NMIN">     0</i>
   <i name="EREF">      0.00000000</i>
   <separator name="electronic smearing" >
    <i type="int" name="ISMEAR">     1</i>
    <i name="SIGMA">      0.15000000</i>
    <i name="KSPACING">      0.50000000</i>
    <i type="logical" name="KGAMMA"> T  </i>
   </separator>
   <separator name="electronic projectors" >
    <i type="logical" name="LREAL"> T  </i>
    <v name="ROPT">     -0.00025000     -0.00025000     -0.00025000     -0.00025000</v>
    <i type="int" name="LMAXPAW">  -100</i>
    <i type="int" name="LMAXMIX">     2</i>
    <i type="logical" name="NLSPLINE"> F  </i>
   </separator>
   <separator name="electronic startup" >
    <i type="int" name="ISTART">     0</i>
    <i type="int" name="ICHARG">     2</i>
    <i type="int" name="INIWAV">     1</i>
   </separator>
   <separator name="electronic spin" >
    <i type="int" name="ISPIN">     1</i>
    <i type="logical" name="LNONCOLLINEAR"> F  </i>
    <v name="MAGMOM">      1.00000000      1.00000000      1.00000000      1.00000000      1.00000000      1.00000000      1.00000000      1.00000000      1.00000000      1.00000000      1.00000000      1.00000000      1.00000000      1.00000000      1.00000000      1.00000000      1.00000000      1.00000000      1.00000000      1.00000000
      1.00000000      1.00000000      1.00000000      1.00000000      1.00000000      1.00000000      1.00000000      1.00000000      1.00000000      1.00000000      1.00000000      1.00000000      1.00000000      1.00000000      1.00000000      1.00000000</v>
    <i name="NUPDOWN">     -1.00000000</i>
    <i type="logical" name="LSORBIT"> F  </i>
    <v name="SAXIS">      0.00000000      0.00000000      1.00000000</v>
    <i type="logical" name="LSPIRAL"> F  </i>
    <v name="QSPIRAL">      0.00000000      0.00000000      0.00000000</v>
    <i type="logical" name="LZEROZ"> F  </i>
   </separator>
   <separator name="electronic exchange-correlation" >
    <i type="logical" name="LASPH"> F  </i>
    <i type="logical" name="LMETAGGA"> F  </i>
   </separator>
   <separator name="electronic convergence" >
    <i type="int" name="NELM">    70</i>
    <i type="int" name="NELMDL">    -5</i>
    <i type="int" name="NELMIN">     2</i>
    <i name="ENINI">    300.00000000</i>
    <separator name="electronic convergence detail" >
     <i type="logical" name="LDIAG"> T  </i>
     <i type="logical" name="LSUBROT"> F  </i>
     <i name="WEIMIN">      0.00100000</i>
     <i name="EBREAK">      0.00000001</i>
     <i name="DEPER">      0.30000000</i>
     <i type="int" name="NRMM">     4</i>
     <i name="TIME">      0.40000000</i>
    </separator>
   </separator>
   <separator name="electronic mixer" >
    <i name="AMIX">      0.40000000</i>
    <i name="BMIX">      1.00000000</i>
    <i name="AMIN">      0.10000000</i>
    <i name="AMIX_MAG">      1.60000000</i>
    <i name="BMIX_MAG">      1.00000000</i>
    <separator name="electronic mixer details" >
     <i type="int" name="IMIX">     4</i>
     <i type="logical" name="MIXFIRST"> F  </i>
     <i type="int" name="MAXMIX">   -45</i>
     <i name="WC">    100.00000000</i>
     <i type="int" name="INIMIX">     1</i>
     <i type="int" name="MIXPRE">     1</i>
     <i type="int" name="MREMOVE">     5</i>
    </separator>
   </separator>
   <separator name="electronic dipolcorrection" >
    <i type="logical" name="LDIPOL"> F  </i>
    <i type="logical" name="LMONO"> F  </i>
    <i type="int" name="IDIPOL">     0</i>
    <i name="EPSILON">      1.00000000</i>
    <v name="DIPOL">   -100.00000000   -100.00000000   -100.00000000</v>
    <i name="EFIELD">      0.00000000</i>
   </separator>
  </separator>
  <separator name="grids" >
   <i type="int" name="NGX">    40</i>
   <i type="int" name="NGY">    60</i>
   <i type="int" name="NGZ">    60</i>
   <i type="int" name="NGXF">    80</i>
   <i type="int" name="NGYF">   120</i>
   <i type="int" name="NGZF">   120</i>
   <i type="logical" name="ADDGRID"> F  </i>
  </separator>
  <separator name="ionic" >
   <i type="int" name="NSW">   300</i>
   <i type="int" name="IBRION">     2</i>
   <i type="int" name="ISIF">     3</i>
   <i name="PSTRESS">      0.00000000</i>
   <i name="EDIFFG">     -0.01000000</i>
   <i type="int" name="NFREE">     1</i>
   <i name="POTIM">      0.15000000</i>
   <i name="SMASS">     -3.00000000</i>
   <i name="SCALEE">      1.00000000</i>
  </separator>
  <separator name="ionic md" >
   <i name="TEBEG">      0.00010000</i>
   <i name="TEEND">      0.00010000</i>
   <i type="int" name="NBLOCK">     1</i>
   <i type="int" name="KBLOCK">   300</i>
   <i type="int" name="NPACO">   256</i>
   <i name="APACO">     16.00000000</i>
  </separator>
  <separator name="symmetry" >
   <i type="int" name="ISYM">     1</i>
   <i name="SYMPREC">      0.00001000</i>
  </separator>
  <separator name="dos" >
   <i type="logical" name="LORBIT"> F  </i>
   <v name="RWIGS">     -1.00000000     -1.00000000     -1.00000000     -1.00000000</v>
   <i type="int" name="NEDOS">   301</i>
   <i name="EMIN">     10.00000000</i>
   <i name="EMAX">    -10.00000000</i>
   <i name="EFERMI">      0.00000000</i>
  </separator>
  <separator name="writing" >
   <i type="int" name="NWRITE">     2</i>
   <i type="logical" name="LWAVE"> F  </i>
   <i type="logical" name="LCHARG"> F  </i>
   <i type="logical" name="LPARD"> F  </i>
   <i type="logical" name="LVTOT"> F  </i>
   <i type="logical" name="LVHAR"> F  </i>
   <i type="logical" name="LELF"> F  </i>
   <i type="logical" name="LOPTICS"> F  </i>
   <v name="STM">      0.00000000      0.00000000      0.00000000      0.00000000      0.00000000      0.00000000      0.00000000</v>
  </separator>
  <separator name="performance" >
   <i type="int" name="NPAR">     4</i>
   <i type="int" name="NSIM">     4</i>
   <i type="int" name="NBLK">    -1</i>
   <i type="logical" name="LPLANE"> T  </i>
   <i type="logical" name="LSCALAPACK"> T  </i>
   <i type="logical" name="LSCAAWARE"> F  </i>
   <i type="logical" name="LSCALU"> F  </i>
   <i type="logical" name="LASYNC"> F  </i>
   <i type="logical" name="LORBITALREAL"> F  </i>
  </separator>
  <separator name="miscellaneous" >
   <i type="int" name="IDIOT">     3</i>
   <i type="logical" name="LMUSIC"> F  </i>
   <v name="POMASS">    178.49000000     92.91000000    180.94800000     91.22400000</v>
   <v name="DARWINR">      0.00000000      0.00000000      0.00000000      0.00000000</v>
   <v name="DARWINV">      1.00000000      1.00000000      1.00000000      1.00000000</v>
   <i type="logical" name="LCORR"> T  </i>
  </separator>
  <i type="logical" name="GGA_COMPAT"> T  </i>
  <i type="logical" name="LBERRY"> F  </i>
  <i type="int" name="ICORELEVEL">     0</i>
  <i type="logical" name="LDAU"> F  </i>
  <i type="int" name="I_CONSTRAINED_M">     0</i>
  <separator name="electronic exchange-correlation" >
   <i type="string" name="GGA">--</i>
   <i type="int" name="VOSKOWN">     0</i>
   <i type="logical" name="LHFCALC"> F  </i>
   <i type="string" name="PRECFOCK"></i>
   <i type="logical" name="LSYMGRAD"> F  </i>
   <i type="logical" name="LHFONE"> F  </i>
   <i type="logical" name="LRHFCALC"> F  </i>
   <i type="logical" name="LTHOMAS"> F  </i>
   <i type="logical" name="LMODELHF"> F  </i>
   <i name="ENCUT4O">     -1.00000000</i>
   <i type="int" name="EXXOEP">     0</i>
   <i type="int" name="FOURORBIT">     0</i>
   <i name="AEXX">      0.00000000</i>
   <i name="HFALPHA">      0.00000000</i>
   <i name="MCALPHA">      0.00000000</i>
   <i name="ALDAX">      1.00000000</i>
   <i name="AGGAX">      1.00000000</i>
   <i name="ALDAC">      1.00000000</i>
   <i name="AGGAC">      1.00000000</i>
   <i type="int" name="NKREDX">     1</i>
   <i type="int" name="NKREDY">     1</i>
   <i type="int" name="NKREDZ">     1</i>
   <i type="logical" name="SHIFTRED"> F  </i>
   <i type="logical" name="ODDONLY"> F  </i>
   <i type="logical" name="EVENONLY"> F  </i>
   <i type="int" name="LMAXFOCK">     0</i>
   <i type="int" name="NMAXFOCKAE">     0</i>
   <i type="logical" name="LFOCKAEDFT"> F  </i>
   <i name="HFSCREEN">      0.00000000</i>
   <i name="HFSCREENC">      0.00000000</i>
   <i type="int" name="NBANDSGWLOW">     0</i>
  </separator>
  <separator name="vdW DFT" >
   <i type="logical" name="LUSE_VDW"> F  </i>
   <i name="Zab_VDW">     -0.84910000</i>
   <i name="PARAM1">      0.12340000</i>
   <i name="PARAM2">      1.00000000</i>
   <i name="PARAM3">      0.00000000</i>
  </separator>
  <separator name="model GW" >
   <i type="int" name="MODEL_GW">     0</i>
   <i name="MODEL_EPS0">     12.41406228</i>
   <i name="MODEL_ALPHA">      1.00000000</i>
  </separator>
  <separator name="linear response parameters" >
   <i type="logical" name="LEPSILON"> F  </i>
   <i type="logical" name="LRPA"> F  </i>
   <i type="logical" name="LNABLA"> F  </i>
   <i type="logical" name="LVEL"> F  </i>
   <i type="int" name="KINTER">     0</i>
   <i name="CSHIFT">      0.10000000</i>
   <i name="OMEGAMAX">     -1.00000000</i>
   <i name="DEG_THRESHOLD">      0.00200000</i>
  </separator>
  <separator name="orbital magnetization" >
   <i type="logical" name="NUCIND"> F  </i>
   <v name="MAGPOS">      0.00000000      0.00000000      0.00000000</v>
   <i type="logical" name="LNICSALL"> T  </i>
   <i type="logical" name="ORBITALMAG"> F  </i>
   <i type="logical" name="LMAGBLOCH"> F  </i>
   <i type="logical" name="LCHIMAG"> F  </i>
   <i type="logical" name="LGAUGE"> T  </i>
   <i type="int" name="MAGATOM">     0</i>
   <v name="MAGDIPOL">      0.00000000      0.00000000      0.00000000</v>
   <v name="AVECCONST">      0.00000000      0.00000000      0.00000000</v>
  </separator>
  <separator name="response functions" >
   <i type="logical" name="LADDER"> F  </i>
   <i type="logical" name="LFXC"> F  </i>
   <i type="logical" name="LHARTREE"> T  </i>
   <i type="int" name="IBSE">     0</i>
   <v type="int" name="KPOINT">    -1     0     0     0</v>
   <i type="logical" name="LTCTE"> F  </i>
   <i type="logical" name="LTETE"> F  </i>
   <i type="logical" name="LTRIPLET"> F  </i>
   <i type="logical" name="LFXCEPS"> F  </i>
   <i type="logical" name="LFXHEG"> F  </i>
   <i type="int" name="NATURALO">     0</i>
   <i type="logical" name="L2ORDER"> F  </i>
   <i type="logical" name="LUSEW"> F  </i>
   <i name="ENCUTGW">     -2.00000000</i>
   <i name="ENCUTGWSOFT">     -2.00000000</i>
   <i name="ENCUTLF">     -1.00000000</i>
   <i type="int" name="LMAXMP2">    -1</i>
   <i name="SCISSOR">      0.00000000</i>
   <i type="int" name="NOMEGA">     0</i>
   <i type="int" name="NOMEGAR">     0</i>
   <i type="int" name="NBANDSGW">    -1</i>
   <i type="int" name="NBANDSO">    -1</i>
   <i type="int" name="NBANDSV">    -1</i>
   <i type="int" name="NELM">    70</i>
   <i type="int" name="NELMHF">     1</i>
   <i type="int" name="DIM">     3</i>
   <i type="int" name="ANTIRES">     0</i>
   <i name="OMEGAMAX">    -30.00000000</i>
   <i name="OMEGAMIN">    -30.00000000</i>
   <i name="OMEGATL">   -200.00000000</i>
   <i type="int" name="OMEGAGRID">     0</i>
   <i name="CSHIFT">     -0.10000000</i>
   <i type="logical" name="SELFENERGY"> F  </i>
   <i type="logical" name="LSPECTRAL"> F  </i>
   <i type="logical" name="LSPECTRALGW"> F  </i>
   <i type="logical" name="LSINGLES"> F  </i>
   <i type="logical" name="LFERMIGW"> F  </i>
   <i type="logical" name="ODDONLYGW"> F  </i>
   <i type="logical" name="EVENONLYGW"> F  </i>
   <i type="int" name="NKREDLFX">     1</i>
   <i type="int" name="NKREDLFY">     1</i>
   <i type="int" name="NKREDLFZ">     1</i>
   <i type="int" name="MAXMEM">  1800</i>
   <i type="int" name="TELESCOPE">     0</i>
   <i type="int" name="TAUPAR">     1</i>
   <i type="int" name="OMEGAPAR">    -1</i>
   <i name="LAMBDA">      1.00000000</i>
  </separator>
  <separator name="External order field" >
   <i name="OFIELD_KAPPA">      0.00000000</i>
   <v name="OFIELD_K">      0.00000000      0.00000000      0.00000000</v>
   <i name="OFIELD_Q6_NEAR">      0.00000000</i>
   <i name="OFIELD_Q6_FAR">      0.00000000</i>
   <i name="OFIELD_A">      0.00000000</i>
  </separator>
 </parameters>
 <atominfo>
  <atoms>      36 </atoms>
  <types>       4 </types>
  <array name="atoms" >
   <dimension dim="1">ion</dimension>
   <field type="string">element</field>
   <field type="int">atomtype</field>
   <set>
    <rc><c>Hf</c><c>   1</c></rc>
    <rc><c>Hf</c><c>   1</c></rc>
    <rc><c>Hf</c><c>   1</c></rc>
    <rc><c>Hf</c><c>   1</c></rc>
    <rc><c>Hf</c><c>   1</c></rc>
    <rc><c>Hf</c><c>   1</c></rc>
    <rc><c>Hf</c><c>   1</c></rc>
    <rc><c>Hf</c><c>   1</c></rc>
    <rc><c>Hf</c><c>   1</c></rc>
    <rc><c>Hf</c><c>   1</c></rc>
    <rc><c>Nb</c><c>   2</c></rc>
    <rc><c>Nb</c><c>   2</c></rc>
    <rc><c>Nb</c><c>   2</c></rc>
    <rc><c>Nb</c><c>   2</c></rc>
    <rc><c>Nb</c><c>   2</c></rc>
    <rc><c>Ta</c><c>   3</c></rc>
    <rc><c>Ta</c><c>   3</c></rc>
    <rc><c>Ta</c><c>   3</c></rc>
    <rc><c>Ta</c><c>   3</c></rc>
    <rc><c>Ta</c><c>   3</c></rc>
    <rc><c>Ta</c><c>   3</c></rc>
    <rc><c>Ta</c><c>   3</c></rc>
    <rc><c>Ta</c><c>   3</c></rc>
    <rc><c>Ta</c><c>   3</c></rc>
    <rc><c>Ta</c><c>   3</c></rc>
    <rc><c>Zr</c><c>   4</c></rc>
    <rc><c>Zr</c><c>   4</c></rc>
    <rc><c>Zr</c><c>   4</c></rc>
    <rc><c>Zr</c><c>   4</c></rc>
    <rc><c>Zr</c><c>   4</c></rc>
    <rc><c>Zr</c><c>   4</c></rc>
    <rc><c>Zr</c><c>   4</c></rc>
    <rc><c>Zr</c><c>   4</c></rc>
    <rc><c>Zr</c><c>   4</c></rc>
    <rc><c>Zr</c><c>   4</c></rc>
    <rc><c>Zr</c><c>   4</c></rc>
   </set>
  </array>
  <array name="atomtypes" >
   <dimension dim="1">type</dimension>
   <field type="int">atomspertype</field>
   <field type="string">element</field>
   <field>mass</field>
   <field>valence</field>
   <field type="string">pseudopotential</field>
   <set>
    <rc><c>  10</c><c>Hf</c><c>    178.49000000</c><c>      4.00000000</c><c>  PAW_PBE Hf 20Jan2003                  </c></rc>
    <rc><c>   5</c><c>Nb</c><c>     92.91000000</c><c>     13.00000000</c><c>  PAW_PBE Nb_sv 25May2007               </c></rc>
    <rc><c>  10</c><c>Ta</c><c>    180.94800000</c><c>      5.00000000</c><c>  PAW_PBE Ta 17Jan2003                  </c></rc>
    <rc><c>  11</c><c>Zr</c><c>     91.22400000</c><c>     12.00000000</c><c>  PAW_PBE Zr_sv 04Jan2005               </c></rc>
   </set>
  </array>
 </atominfo>
 <structure name="initialpos" >
  <crystal>
   <varray name="basis" >
    <v>       7.02331601       0.01970881      -0.01689042 </v>
    <v>       0.02929136      10.29610130      -0.01290975 </v>
    <v>      -0.02531068      -0.01316914      10.30046607 </v>
   </varray>
   <i name="volume">    744.84373657 </i>
   <varray name="rec_basis" >
    <v>       0.14238486      -0.00040463       0.00034936 </v>
    <v>      -0.00027226       0.09712507       0.00012351 </v>
    <v>       0.00023314       0.00012106       0.09708371 </v>
   </varray>
  </crystal>
  <varray name="positions" >
   <v>       0.96591400       0.32092400       0.67648400 </v>
   <v>       0.75669700       0.16256900       0.16116200 </v>
   <v>       0.01864600       0.99736200       0.67290500 </v>
   <v>       0.97905200       0.34913500       0.32336300 </v>
   <v>       0.22908200       0.49627500       0.51219000 </v>
   <v>       0.00180500       0.66542700       0.31805600 </v>
   <v>       0.47446500       0.97778700       0.01453800 </v>
   <v>       0.50079800       0.99931400       0.33339000 </v>
   <v>       0.53164000       0.32854300       0.65273300 </v>
   <v>       0.73836800       0.83531700       0.83273400 </v>
   <v>       0.02385800       0.68280700       0.67913400 </v>
   <v>       0.26480400       0.82804000       0.82485800 </v>
   <v>       0.51045600       0.34745500       0.00036000 </v>
   <v>       0.74568900       0.50533000       0.84262100 </v>
   <v>       0.24236700       0.18201600       0.16096100 </v>
   <v>       0.75279400       0.83998100       0.16401000 </v>
   <v>       0.98583500       0.34674600       0.00140800 </v>
   <v>       0.99560200       0.98830000       0.32886400 </v>
   <v>       0.26556900       0.48841600       0.15085700 </v>
   <v>       0.24506900       0.83029200       0.18665600 </v>
   <v>       0.24215100       0.83455600       0.49273500 </v>
   <v>       0.48204400       0.99555400       0.65529600 </v>
   <v>       0.73234900       0.49668700       0.14813600 </v>
   <v>       0.77118800       0.14689300       0.49053300 </v>
   <v>       0.50014400       0.66779000       0.00530000 </v>
   <v>       0.50009100       0.66419800       0.32636200 </v>
   <v>       0.72902600       0.15652000       0.84627500 </v>
   <v>       0.02137500       0.99081500       0.99877100 </v>
   <v>       0.22785400       0.17042200       0.49637400 </v>
   <v>       0.26931200       0.17690100       0.83739300 </v>
   <v>       0.00225500       0.66511600       0.00588800 </v>
   <v>       0.51502000       0.33562000       0.33861800 </v>
   <v>       0.78171900       0.52491500       0.51539700 </v>
   <v>       0.48640800       0.67161900       0.66620800 </v>
   <v>       0.75937100       0.83603100       0.50492300 </v>
   <v>       0.25118600       0.49433400       0.83451800 </v>
  </varray>
 </structure>
 <calculation>
  <scstep>
   <time name="dav">    0.96    0.97</time>
   <time name="total">    1.11    1.49</time>
   <energy>
    <i name="alphaZ">   1435.57332943 </i>
    <i name="ewald"> -18417.14679692 </i>
    <i name="hartreedc">  -6400.82479383 </i>
    <i name="XCdc">   -364.81965827 </i>
    <i name="pawpsdc">  20341.95372253 </i>
    <i name="pawaedc"> -18710.88631023 </i>
    <i name="eentropy">      0.00267639 </i>
    <i name="bandstr">   -117.09749050 </i>
    <i name="atom">  23966.86378612 </i>
    <i name="e_fr_energy">   1733.61846472 </i>
    <i name="e_wo_entrp">   1733.61578833 </i>
    <i name="e_0_energy">   1733.61757259 </i>
   </energy>
  </scstep>
  <scstep>
   <time name="dav">    1.15    1.17</time>
   <time name="total">    1.19    1.36</time>
   <energy>
    <i name="e_fr_energy">    -86.73359791 </i>
    <i name="e_wo_entrp">    -86.73829647 </i>
    <i name="e_0_energy">    -86.73516410 </i>
   </energy>
  </scstep>
  <scstep>
   <time name="dav">    1.51    1.54</time>
   <time name="total">    1.51    1.59</time>
   <energy>
    <i name="e_fr_energy">   -338.95120676 </i>
    <i name="e_wo_entrp">   -338.94636399 </i>
    <i name="e_0_energy">   -338.94959250 </i>
   </energy>
  </scstep>
  <scstep>
   <time name="dav">    1.35    1.42</time>
   <time name="total">    1.35    1.45</time>
   <energy>
    <i name="e_fr_energy">   -370.37665831 </i>
    <i name="e_wo_entrp">   -370.38532355 </i>
    <i name="e_0_energy">   -370.37954672 </i>
   </energy>
  </scstep>
  <scstep>
   <time name="dav">    1.30    1.36</time>
   <time name="total">    1.34    1.44</time>
   <energy>
    <i name="e_fr_energy">   -373.64847784 </i>
    <i name="e_wo_entrp">   -373.65822268 </i>
    <i name="e_0_energy">   -373.65172612 </i>
   </energy>
  </scstep>
  <scstep>
   <time name="diag">    0.08    0.08</time>
   <time name="diis">    0.74    0.77</time>
   <time name="orth">    0.01    0.01</time>
   <time name="total">    0.90    0.96</time>
   <energy>
    <i name="e_fr_energy">   -363.53008922 </i>
    <i name="e_wo_entrp">   -363.53976386 </i>
    <i name="e_0_energy">   -363.53331410 </i>
   </energy>
  </scstep>
  <scstep>
   <time name="diag">    0.08    0.08</time>
   <time name="diis">    0.71    0.74</time>
   <time name="orth">    0.01    0.01</time>
   <time name="total">    0.86    0.94</time>
   <energy>
    <i name="e_fr_energy">   -365.00829680 </i>
    <i name="e_wo_entrp">   -365.01270221 </i>
    <i name="e_0_energy">   -365.00976527 </i>
   </energy>
  </scstep>
  <scstep>
   <time name="diag">    0.08    0.08</time>
   <time name="diis">    0.83    0.84</time>
   <time name="orth">    0.01    0.01</time>
   <time name="total">    0.99    1.03</time>
   <energy>
    <i name="e_fr_energy">   -359.04700586 </i>
    <i name="e_wo_entrp">   -359.05970626 </i>
    <i name="e_0_energy">   -359.05123933 </i>
   </energy>
  </scstep>
  <scstep>
   <time name="diag">    0.16    0.16</time>
   <time name="diis">    0.74    0.75</time>
   <time name="orth">    0.01    0.01</time>
   <time name="total">    0.98    1.01</time>
   <energy>
    <i name="e_fr_energy">   -358.75707945 </i>
    <i name="e_wo_entrp">   -358.77207586 </i>
    <i name="e_0_energy">   -358.76207825 </i>
   </energy>
  </scstep>
  <scstep>
   <time name="diag">    0.08    0.08</time>
   <time name="diis">    0.85    0.89</time>
   <time name="orth">    0.01    0.01</time>
   <time name="total">    1.01    1.10</time>
   <energy>
    <i name="e_fr_energy">   -358.71899977 </i>
    <i name="e_wo_entrp">   -358.73630108 </i>
    <i name="e_0_energy">   -358.72476688 </i>
   </energy>
  </scstep>
  <scstep>
   <time name="diag">    0.09    0.10</time>
   <time name="diis">    0.76    0.79</time>
   <time name="orth">    0.01    0.01</time>
   <time name="total">    0.93    1.00</time>
   <energy>
    <i name="e_fr_energy">   -358.68788539 </i>
    <i name="e_wo_entrp">   -358.70530450 </i>
    <i name="e_0_energy">   -358.69369176 </i>
   </energy>
  </scstep>
  <scstep>
   <time name="diag">    0.08    0.08</time>
   <time name="diis">    0.77    0.87</time>
   <time name="orth">    0.01    0.01</time>
   <time name="total">    0.92    1.06</time>
   <energy>
    <i name="e_fr_energy">   -358.68475798 </i>
    <i name="e_wo_entrp">   -358.70273408 </i>
    <i name="e_0_energy">   -358.69075001 </i>
   </energy>
  </scstep>
  <scstep>
   <time name="diag">    0.07    0.08</time>
   <time name="diis">    0.80    0.84</time>
   <time name="orth">    0.01    0.01</time>
   <time name="total">    0.95    1.03</time>
   <energy>
    <i name="e_fr_energy">   -358.68432188 </i>
    <i name="e_wo_entrp">   -358.70236355 </i>
    <i name="e_0_energy">   -358.69033577 </i>
   </energy>
  </scstep>
  <scstep>
   <time name="diag">    0.07    0.08</time>
   <time name="diis">    0.74    0.78</time>
   <time name="orth">    0.01    0.01</time>
   <time name="total">    0.89    0.97</time>
   <energy>
    <i name="e_fr_energy">   -358.68470326 </i>
    <i name="e_wo_entrp">   -358.70243902 </i>
    <i name="e_0_energy">   -358.69061518 </i>
   </energy>
  </scstep>
  <scstep>
   <time name="diag">    0.07    0.08</time>
   <time name="diis">    0.73    0.76</time>
   <time name="orth">    0.01    0.01</time>
   <time name="total">    0.88    0.95</time>
   <energy>
    <i name="e_fr_energy">   -358.68507538 </i>
    <i name="e_wo_entrp">   -358.70301677 </i>
    <i name="e_0_energy">   -358.69105584 </i>
   </energy>
  </scstep>
  <scstep>
   <time name="diag">    0.08    0.08</time>
   <time name="diis">    0.67    0.70</time>
   <time name="orth">    0.01    0.01</time>
   <time name="total">    0.83    0.88</time>
   <energy>
    <i name="e_fr_energy">   -358.68520746 </i>
    <i name="e_wo_entrp">   -358.70313802 </i>
    <i name="e_0_energy">   -358.69118431 </i>
   </energy>
  </scstep>
  <scstep>
   <time name="diag">    0.08    0.08</time>
   <time name="diis">    0.59    0.61</time>
   <time name="orth">    0.01    0.01</time>
   <time name="total">    0.74    0.80</time>
   <energy>
    <i name="e_fr_energy">   -358.68527402 </i>
    <i name="e_wo_entrp">   -358.70322891 </i>
    <i name="e_0_energy">   -358.69125899 </i>
   </energy>
  </scstep>
  <scstep>
   <time name="diag">    0.08    0.08</time>
   <time name="diis">    0.61    0.61</time>
   <time name="orth">    0.01    0.01</time>
   <time name="total">    0.77    0.80</time>
   <energy>
    <i name="e_fr_energy">   -358.68532086 </i>
    <i name="e_wo_entrp">   -358.70330394 </i>
    <i name="e_0_energy">   -358.69131522 </i>
   </energy>
  </scstep>
  <scstep>
   <time name="diag">    0.12    0.12</time>
   <time name="diis">    0.57    0.60</time>
   <time name="orth">    0.01    0.01</time>
   <time name="total">    0.77    0.85</time>
   <energy>
    <i name="e_fr_energy">   -358.68533957 </i>
    <i name="e_wo_entrp">   -358.70333298 </i>
    <i name="e_0_energy">   -358.69133737 </i>
   </energy>
  </scstep>
  <scstep>
   <time name="diag">    0.07    0.07</time>
   <time name="diis">    0.47    0.48</time>
   <time name="orth">    0.01    0.01</time>
   <time name="total">    0.63    0.66</time>
   <energy>
    <i name="e_fr_energy">   -358.68534619 </i>
    <i name="e_wo_entrp">   -358.70334474 </i>
    <i name="e_0_energy">   -358.69134571 </i>
   </energy>
  </scstep>
  <scstep>
   <time name="diag">    0.07    0.08</time>
   <time name="diis">    0.45    0.45</time>
   <time name="orth">    0.01    0.01</time>
   <time name="total">    0.57    0.61</time>
   <energy>
    <i name="alphaZ">   1435.57332943 </i>
    <i name="ewald"> -18417.14679692 </i>
    <i name="hartreedc">  -6166.31246188 </i>
    <i name="XCdc">   -364.00093498 </i>
    <i name="pawpsdc">  33129.08112447 </i>
    <i name="pawaedc"> -31484.30147690 </i>
    <i name="eentropy">      0.01800129 </i>
    <i name="bandstr">  -2458.45992078 </i>
    <i name="atom">  23966.86378612 </i>
    <i name="e_fr_energy">   -358.68535015 </i>
    <i name="e_wo_entrp">   -358.70335144 </i>
    <i name="e_0_energy">   -358.69135058 </i>
   </energy>
  </scstep>
  <structure>
   <crystal>
    <varray name="basis" >
     <v>       7.02331601       0.01970881      -0.01689042 </v>
     <v>       0.02929136      10.29610130      -0.01290975 </v>
     <v>      -0.02531068      -0.01316914      10.30046607 </v>
    </varray>
    <i name="volume">    744.84373657 </i>
    <varray name="rec_basis" >
     <v>       0.14238486      -0.00040463       0.00034936 </v>
     <v>      -0.00027226       0.09712507       0.00012351 </v>
     <v>       0.00023314       0.00012106       0.09708371 </v>
    </varray>
   </crystal>
   <varray name="positions" >
    <v>       0.96591400       0.32092400       0.67648400 </v>
    <v>       0.75669700       0.16256900       0.16116200 </v>
    <v>       0.01864600       0.99736200       0.67290500 </v>
    <v>       0.97905200       0.34913500       0.32336300 </v>
    <v>       0.22908200       0.49627500       0.51219000 </v>
    <v>       0.00180500       0.66542700       0.31805600 </v>
    <v>       0.47446500       0.97778700       0.01453800 </v>
    <v>       0.50079800       0.99931400       0.33339000 </v>
    <v>       0.53164000       0.32854300       0.65273300 </v>
    <v>       0.73836800       0.83531700       0.83273400 </v>
    <v>       0.02385800       0.68280700       0.67913400 </v>
    <v>       0.26480400       0.82804000       0.82485800 </v>
    <v>       0.51045600       0.34745500       0.00036000 </v>
    <v>       0.74568900       0.50533000       0.84262100 </v>
    <v>       0.24236700       0.18201600       0.16096100 </v>
    <v>       0.75279400       0.83998100       0.16401000 </v>
    <v>       0.98583500       0.34674600       0.00140800 </v>
    <v>       0.99560200       0.98830000       0.32886400 </v>
    <v>       0.26556900       0.48841600       0.15085700 </v>
    <v>       0.24506900       0.83029200       0.18665600 </v>
    <v>       0.24215100       0.83455600       0.49273500 </v>
    <v>       0.48204400       0.99555400       0.65529600 </v>
    <v>       0.73234900       0.49668700       0.14813600 </v>
    <v>       0.77118800       0.14689300       0.49053300 </v>
    <v>       0.50014400       0.66779000       0.00530000 </v>
    <v>       0.50009100       0.66419800       0.32636200 </v>
    <v>       0.72902600       0.15652000       0.84627500 </v>
    <v>       0.02137500       0.99081500       0.99877100 </v>
    <v>       0.22785400       0.17042200       0.49637400 </v>
    <v>       0.26931200       0.17690100       0.83739300 </v>
    <v>       0.00225500       0.66511600       0.00588800 </v>
    <v>       0.51502000       0.33562000       0.33861800 </v>
    <v>       0.78171900       0.52491500       0.51539700 </v>
    <v>       0.48640800       0.67161900       0.66620800 </v>
    <v>       0.75937100       0.83603100       0.50492300 </v>
    <v>       0.25118600       0.49433400       0.83451800 </v>
   </varray>
  </structure>
  <varray name="forces" >
   <v>      -0.01431861      -0.00286811      -0.02409399 </v>
   <v>      -0.01894062      -0.04447457       0.01200835 </v>
   <v>       0.00441133       0.02697239      -0.00065728 </v>
   <v>       0.30673216      -0.29338456      -0.14210937 </v>
   <v>      -0.02699406       0.02176557      -0.01182911 </v>
   <v>       0.02420344      -0.03169271      -0.00239519 </v>
   <v>      -0.19565497       0.31164064       0.17402465 </v>
   <v>      -0.22110573       0.19520212      -0.18423552 </v>
   <v>      -0.00632397       0.00379126      -0.01562666 </v>
   <v>       0.00196082      -0.02811934      -0.01182563 </v>
   <v>       0.00573372      -0.00397721       0.02527475 </v>
   <v>      -0.01401049       0.02259921      -0.04069275 </v>
   <v>      -0.28873324      -0.29835337       0.17448028 </v>
   <v>       0.00799027       0.02291675       0.00581431 </v>
   <v>      -0.11225468      -0.08185805      -0.03508511 </v>
   <v>       0.02621293       0.04159758       0.00944358 </v>
   <v>       0.35868298      -0.32787829       0.16240475 </v>
   <v>       0.22242037       0.25675719      -0.15964854 </v>
   <v>       0.05843316       0.07765274      -0.03173516 </v>
   <v>      -0.00750146      -0.04446103       0.02316004 </v>
   <v>       0.00134749      -0.00408505      -0.00338514 </v>
   <v>      -0.00956374      -0.00237332       0.00872566 </v>
   <v>       0.00135225       0.04292389       0.01404098 </v>
   <v>      -0.02291063      -0.00709789       0.00290980 </v>
   <v>      -0.01286469       0.00846025       0.00104683 </v>
   <v>      -0.01317667      -0.00807827       0.01621001 </v>
   <v>       0.03366340      -0.00908369      -0.00848063 </v>
   <v>       0.15866111       0.29918575       0.28754829 </v>
   <v>      -0.03249344      -0.03401588      -0.05140714 </v>
   <v>       0.03715109       0.03641329       0.03022111 </v>
   <v>      -0.00978771       0.00780425      -0.01241374 </v>
   <v>      -0.23267128      -0.17906532      -0.23297718 </v>
   <v>      -0.00613284       0.02142019       0.00957281 </v>
   <v>       0.00602961      -0.01818173      -0.02170499 </v>
   <v>      -0.00696422      -0.01070503       0.01926717 </v>
   <v>      -0.00258310       0.03265035       0.01414977 </v>
  </varray>
  <varray name="stress" >
   <v>      -7.40535563       0.78734348      -0.85056122 </v>
   <v>       0.78734351      -6.82681475      -0.73712160 </v>
   <v>      -0.85056119      -0.73712161      -5.52187271 </v>
  </varray>
  <energy>
   <i name="e_fr_energy">   -358.68535015 </i>
   <i name="e_wo_entrp">   -358.69135058 </i>
   <i name="e_0_energy">      0.01800129 </i>
  </energy>
  <time name="totalsc">   21.90   24.03</time>
 </calculation>
 <calculation>
  <scstep>
   <time name="dav">    1.14    1.16</time>
   <time name="total">    1.28    1.51</time>
   <energy>
    <i name="alphaZ">   1440.88666628 </i>
    <i name="ewald"> -18440.43289013 </i>
    <i name="hartreedc">  -6173.34073560 </i>
    <i name="XCdc">   -362.98590699 </i>
    <i name="pawpsdc">  33129.00088221 </i>
    <i name="pawaedc"> -31484.22049084 </i>
    <i name="eentropy">      0.01817870 </i>
    <i name="bandstr">  -2434.52674166 </i>
    <i name="atom">  23966.86378612 </i>
    <i name="e_fr_energy">   -358.73725191 </i>
    <i name="e_wo_entrp">   -358.75543060 </i>
    <i name="e_0_energy">   -358.74331147 </i>
   </energy>
  </scstep>
  <scstep>
   <time name="diag">    0.09    0.13</time>
   <time name="diis">    0.72    0.74</time>
   <time name="orth">    0.01    0.01</time>
   <time name="total">    0.89    0.97</time>
   <energy>
    <i name="e_fr_energy">   -358.72327579 </i>
    <i name="e_wo_entrp">   -358.74144645 </i>
    <i name="e_0_energy">   -358.72933268 </i>
   </energy>
  </scstep>
  <scstep>
   <time name="diag">    0.07    0.08</time>
   <time name="diis">    0.74    0.77</time>
   <time name="orth">    0.01    0.01</time>
   <time name="total">    0.89    0.96</time>
   <energy>
    <i name="e_fr_energy">   -358.71888617 </i>
    <i name="e_wo_entrp">   -358.73643040 </i>
    <i name="e_0_energy">   -358.72473425 </i>
   </energy>
  </scstep>
  <scstep>
   <time name="diag">    0.07    0.08</time>
   <time name="diis">    0.74    0.81</time>
   <time name="orth">    0.01    0.01</time>
   <time name="total">    0.93    1.04</time>
   <energy>
    <i name="e_fr_energy">   -358.71381426 </i>
    <i name="e_wo_entrp">   -358.73222158 </i>
    <i name="e_0_energy">   -358.71995003 </i>
   </energy>
  </scstep>
  <scstep>
   <time name="diag">    0.08    0.08</time>
   <time name="diis">    0.73    0.76</time>
   <time name="orth">    0.01    0.01</time>
   <time name="total">    0.88    0.95</time>
   <energy>
    <i name="e_fr_energy">   -358.71357674 </i>
    <i name="e_wo_entrp">   -358.73158501 </i>
    <i name="e_0_energy">   -358.71957950 </i>
   </energy>
  </scstep>
  <scstep>
   <time name="diag">    0.07    0.08</time>
   <time name="diis">    0.85    0.86</time>
   <time name="orth">    0.01    0.01</time>
   <time name="total">    1.00    1.05</time>
   <energy>
    <i name="e_fr_energy">   -358.71368100 </i>
    <i name="e_wo_entrp">   -358.73183067 </i>
    <i name="e_0_energy">   -358.71973089 </i>
   </energy>
  </scstep>
  <scstep>
   <time name="diag">    0.08    0.08</time>
   <time name="diis">    0.66    0.70</time>
   <time name="orth">    0.01    0.01</time>
   <time name="total">    0.82    0.89</time>
   <energy>
    <i name="e_fr_energy">   -358.71374878 </i>
    <i name="e_wo_entrp">   -358.73192601 </i>
    <i name="e_0_energy">   -358.71980786 </i>
   </energy>
  </scstep>
  <scstep>
   <time name="diag">    0.07    0.08</time>
   <time name="diis">    0.63    0.66</time>
   <time name="orth">    0.01    0.01</time>
   <time name="total">    0.78    0.84</time>
   <energy>
    <i name="e_fr_energy">   -358.71380742 </i>
    <i name="e_wo_entrp">   -358.73193915 </i>
    <i name="e_0_energy">   -358.71985133 </i>
   </energy>
  </scstep>
  <scstep>
   <time name="diag">    0.07    0.08</time>
   <time name="diis">    0.53    0.56</time>
   <time name="orth">    0.01    0.01</time>
   <time name="total">    0.79    0.85</time>
   <energy>
    <i name="e_fr_energy">   -358.71384019 </i>
    <i name="e_wo_entrp">   -358.73197975 </i>
    <i name="e_0_energy">   -358.71988671 </i>
   </energy>
  </scstep>
  <scstep>
   <time name="diag">    0.09    0.09</time>
   <time name="diis">    0.50    0.52</time>
   <time name="orth">    0.01    0.01</time>
   <time name="total">    0.69    0.75</time>
   <energy>
    <i name="e_fr_energy">   -358.71387905 </i>
    <i name="e_wo_entrp">   -358.73202127 </i>
    <i name="e_0_energy">   -358.71992646 </i>
   </energy>
  </scstep>
  <scstep>
   <time name="diag">    0.10    0.10</time>
   <time name="diis">    0.43    0.45</time>
   <time name="orth">    0.01    0.01</time>
   <time name="total">    0.61    0.68</time>
   <energy>
    <i name="e_fr_energy">   -358.71389331 </i>
    <i name="e_wo_entrp">   -358.73203571 </i>
    <i name="e_0_energy">   -358.71994078 </i>
   </energy>
  </scstep>
  <scstep>
   <time name="diag">    0.07    0.08</time>
   <time name="diis">    0.42    0.43</time>
   <time name="orth">    0.01    0.01</time>
   <time name="total">    0.55    0.59</time>
   <energy>
    <i name="alphaZ">   1440.88666628 </i>
    <i name="ewald"> -18440.43289013 </i>
    <i name="hartreedc">  -6159.54395115 </i>
    <i name="XCdc">   -363.58707594 </i>
    <i name="pawpsdc">  33294.22672117 </i>
    <i name="pawaedc"> -31649.20187080 </i>
    <i name="eentropy">      0.01814474 </i>
    <i name="bandstr">  -2447.94342614 </i>
    <i name="atom">  23966.86378612 </i>
    <i name="e_fr_energy">   -358.71389586 </i>
    <i name="e_wo_entrp">   -358.73204060 </i>
    <i name="e_0_energy">   -358.71994411 </i>
   </energy>
  </scstep>
  <structure>
   <crystal>
    <varray name="basis" >
     <v>       7.01360100       0.02071949      -0.01799219 </v>
     <v>       0.03076797      10.28297041      -0.01431954 </v>
     <v>      -0.02691504      -0.01457512      10.28984156 </v>
    </varray>
    <i name="volume">    742.09709051 </i>
    <varray name="rec_basis" >
     <v>       0.14258232      -0.00042611       0.00037235 </v>
     <v>      -0.00028694       0.09724921       0.00013700 </v>
     <v>       0.00024891       0.00013459       0.09718407 </v>
    </varray>
   </crystal>
   <varray name="positions" >
    <v>       0.96588439       0.32091998       0.67645009 </v>
    <v>       0.75665829       0.16250658       0.16117873 </v>
    <v>       0.01865493       0.99739990       0.67290414 </v>
    <v>       0.97968508       0.34872114       0.32316385 </v>
    <v>       0.22902619       0.49630568       0.51217333 </v>
    <v>       0.00185505       0.66538235       0.31805266 </v>
    <v>       0.47406087       0.97822615       0.01478240 </v>
    <v>       0.50034029       0.99958893       0.33313073 </v>
    <v>       0.53162687       0.32854833       0.65271103 </v>
    <v>       0.73837215       0.83527744       0.83271734 </v>
    <v>       0.02386997       0.68280143       0.67916953 </v>
    <v>       0.26477479       0.82807175       0.82480082 </v>
    <v>       0.50986363       0.34703706       0.00060366 </v>
    <v>       0.74570536       0.50536219       0.84262924 </v>
    <v>       0.24213598       0.18190131       0.16091118 </v>
    <v>       0.75284782       0.84003939       0.16402343 </v>
    <v>       0.98657688       0.34628399       0.00163683 </v>
    <v>       0.99605803       0.98865975       0.32864088 </v>
    <v>       0.26568880       0.48852487       0.15081274 </v>
    <v>       0.24505392       0.83022957       0.18668844 </v>
    <v>       0.24215378       0.83455025       0.49273024 </v>
    <v>       0.48202435       0.99555072       0.65530822 </v>
    <v>       0.73235161       0.49674736       0.14815581 </v>
    <v>       0.77114084       0.14688312       0.49053700 </v>
    <v>       0.50011745       0.66780194       0.00530144 </v>
    <v>       0.50006398       0.66418673       0.32638472 </v>
    <v>       0.72909538       0.15650708       0.84626318 </v>
    <v>       0.02170166       0.99123545       0.99917609 </v>
    <v>       0.22778698       0.17037422       0.49630160 </v>
    <v>       0.26938850       0.17695209       0.83743565 </v>
    <v>       0.00223472       0.66512699       0.00587054 </v>
    <v>       0.51454040       0.33536879       0.33828955 </v>
    <v>       0.78170628       0.52494515       0.51541047 </v>
    <v>       0.48642042       0.67159338       0.66617749 </v>
    <v>       0.75935681       0.83601601       0.50495003 </v>
    <v>       0.25118056       0.49437993       0.83453793 </v>
   </varray>
  </structure>
  <varray name="forces" >
   <v>      -0.00824815       0.00165036      -0.02196670 </v>
   <v>      -0.02586219      -0.04263579       0.00304443 </v>
   <v>      -0.00357981       0.02715795       0.00425142 </v>
   <v>       0.28249733      -0.26453239      -0.12571118 </v>
   <v>      -0.01661625       0.01684286      -0.01755366 </v>
   <v>       0.01796010      -0.03819827       0.00388565 </v>
   <v>      -0.16607738       0.29343989       0.15190396 </v>
   <v>      -0.20925335       0.18171677      -0.16709838 </v>
   <v>      -0.01171939       0.00841207      -0.01693832 </v>
   <v>       0.00445499      -0.01621954       0.00595890 </v>
   <v>      -0.01352024      -0.00934187       0.02548703 </v>
   <v>      -0.01252885       0.03132972      -0.02310041 </v>
   <v>      -0.26087293      -0.28077063       0.15311869 </v>
   <v>       0.00884772       0.01342945       0.00854354 </v>
   <v>      -0.10257585      -0.08590679      -0.01994556 </v>
   <v>       0.01624791       0.04287992       0.00521036 </v>
   <v>       0.33480433      -0.30923496       0.14699948 </v>
   <v>       0.20604615       0.23633110      -0.13641572 </v>
   <v>       0.04468359       0.09189221      -0.02045234 </v>
   <v>      -0.00095986      -0.04637275       0.01083809 </v>
   <v>       0.00670876      -0.00220518      -0.00630319 </v>
   <v>       0.00103692       0.00012658       0.01027799 </v>
   <v>       0.00921853       0.02238325       0.01893599 </v>
   <v>      -0.03022681      -0.00236933       0.00217204 </v>
   <v>      -0.01010784       0.01402039      -0.00831758 </v>
   <v>      -0.00197155      -0.01423303       0.02634263 </v>
   <v>       0.03382751      -0.01656202      -0.00446101 </v>
   <v>       0.13336488       0.27994683       0.25653925 </v>
   <v>      -0.02600305      -0.02659692      -0.04155703 </v>
   <v>       0.03361072       0.04037460       0.01704789 </v>
   <v>      -0.00887265       0.01458458      -0.01855738 </v>
   <v>      -0.21929911      -0.16186906      -0.20830776 </v>
   <v>      -0.01330830       0.00424423      -0.00701807 </v>
   <v>       0.01970154      -0.02593372      -0.02279302 </v>
   <v>      -0.01079526      -0.00149349       0.00299706 </v>
   <v>      -0.00061212       0.02371296       0.01294292 </v>
  </varray>
  <varray name="stress" >
   <v>      -2.73673558       0.57662502      -0.72262518 </v>
   <v>       0.57662499      -2.27324782      -0.56811562 </v>
   <v>      -0.72262517      -0.56811560      -0.96022025 </v>
  </varray>
  <energy>
   <i name="e_fr_energy">   -358.71389586 </i>
   <i name="e_wo_entrp">   -358.71994411 </i>
   <i name="e_0_energy">      0.01814474 </i>
  </energy>
  <time name="totalsc">   11.66   12.72</time>
 </calculation>
 <calculation>
  <scstep>
   <time name="dav">    0.94    0.98</time>
   <time name="total">    1.08    1.28</time>
   <energy>
    <i name="alphaZ">   1453.81714184 </i>
    <i name="ewald"> -18496.40736298 </i>
    <i name="hartreedc">  -6176.94092479 </i>
    <i name="XCdc">   -361.12711082 </i>
    <i name="pawpsdc">  33294.39956420 </i>
    <i name="pawaedc"> -31649.36262642 </i>
    <i name="eentropy">      0.01827603 </i>
    <i name="bandstr">  -2390.13929067 </i>
    <i name="atom">  23966.86378612 </i>
    <i name="e_fr_energy">   -358.87854749 </i>
    <i name="e_wo_entrp">   -358.89682352 </i>
    <i name="e_0_energy">   -358.88463950 </i>
   </energy>
  </scstep>
  <scstep>
   <time name="diag">    0.08    0.08</time>
   <time name="diis">    0.72    0.73</time>
   <time name="orth">    0.01    0.01</time>
   <time name="total">    0.88    0.92</time>
   <energy>
    <i name="e_fr_energy">   -358.79709339 </i>
    <i name="e_wo_entrp">   -358.81534260 </i>
    <i name="e_0_energy">   -358.80317646 </i>
   </energy>
  </scstep>
  <scstep>
   <time name="diag">    0.10    0.10</time>
   <time name="diis">    0.76    0.78</time>
   <time name="orth">    0.02    0.02</time>
   <time name="total">    0.94    1.01</time>
   <energy>
    <i name="e_fr_energy">   -358.77120736 </i>
    <i name="e_wo_entrp">   -358.78793371 </i>
    <i name="e_0_energy">   -358.77678281 </i>
   </energy>
  </scstep>
  <scstep>
   <time name="diag">    0.11    0.11</time>
   <time name="diis">    0.76    0.79</time>
   <time name="orth">    0.01    0.01</time>
   <time name="total">    0.94    1.02</time>
   <energy>
    <i name="e_fr_energy">   -358.74127999 </i>
    <i name="e_wo_entrp">   -358.76011804 </i>
    <i name="e_0_energy">   -358.74755934 </i>
   </energy>
  </scstep>
  <scstep>
   <time name="diag">    0.08    0.08</time>
   <time name="diis">    0.76    0.77</time>
   <time name="orth">    0.01    0.01</time>
   <time name="total">    0.91    0.95</time>
   <energy>
    <i name="e_fr_energy">   -358.73997883 </i>
    <i name="e_wo_entrp">   -358.75794293 </i>
    <i name="e_0_energy">   -358.74596686 </i>
   </energy>
  </scstep>
  <scstep>
   <time name="diag">    0.08    0.08</time>
   <time name="diis">    0.85    0.85</time>
   <time name="orth">    0.01    0.01</time>
   <time name="total">    1.00    1.04</time>
   <energy>
    <i name="e_fr_energy">   -358.74053313 </i>
    <i name="e_wo_entrp">   -358.75877758 </i>
    <i name="e_0_energy">   -358.74661462 </i>
   </energy>
  </scstep>
  <scstep>
   <time name="diag">    0.09    0.09</time>
   <time name="diis">    0.91    0.95</time>
   <time name="orth">    0.01    0.01</time>
   <time name="total">    1.09    1.18</time>
   <energy>
    <i name="e_fr_energy">   -358.74081578 </i>
    <i name="e_wo_entrp">   -358.75913050 </i>
    <i name="e_0_energy">   -358.74692069 </i>
   </energy>
  </scstep>
  <scstep>
   <time name="diag">    0.08    0.08</time>
   <time name="diis">    0.86    0.87</time>
   <time name="orth">    0.01    0.01</time>
   <time name="total">    1.05    1.09</time>
   <energy>
    <i name="e_fr_energy">   -358.74110781 </i>
    <i name="e_wo_entrp">   -358.75931454 </i>
    <i name="e_0_energy">   -358.74717672 </i>
   </energy>
  </scstep>
  <scstep>
   <time name="diag">    0.08    0.08</time>
   <time name="diis">    0.72    0.75</time>
   <time name="orth">    0.01    0.01</time>
   <time name="total">    0.87    0.95</time>
   <energy>
    <i name="e_fr_energy">   -358.74127325 </i>
    <i name="e_wo_entrp">   -358.75950174 </i>
    <i name="e_0_energy">   -358.74734941 </i>
   </energy>
  </scstep>
  <scstep>
   <time name="diag">    0.08    0.08</time>
   <time name="diis">    0.68    0.68</time>
   <time name="orth">    0.01    0.01</time>
   <time name="total">    0.83    0.87</time>
   <energy>
    <i name="e_fr_energy">   -358.74145632 </i>
    <i name="e_wo_entrp">   -358.75969543 </i>
    <i name="e_0_energy">   -358.74753602 </i>
   </energy>
  </scstep>
  <scstep>
   <time name="diag">    0.08    0.08</time>
   <time name="diis">    0.60    0.61</time>
   <time name="orth">    0.01    0.01</time>
   <time name="total">    0.76    0.80</time>
   <energy>
    <i name="e_fr_energy">   -358.74150925 </i>
    <i name="e_wo_entrp">   -358.75974095 </i>
    <i name="e_0_energy">   -358.74758648 </i>
   </energy>
  </scstep>
  <scstep>
   <time name="diag">    0.07    0.08</time>
   <time name="diis">    0.54    0.56</time>
   <time name="orth">    0.01    0.01</time>
   <time name="total">    0.70    0.75</time>
   <energy>
    <i name="e_fr_energy">   -358.74152085 </i>
    <i name="e_wo_entrp">   -358.75976448 </i>
    <i name="e_0_energy">   -358.74760206 </i>
   </energy>
  </scstep>
  <scstep>
   <time name="diag">    0.07    0.08</time>
   <time name="diis">    0.41    0.43</time>
   <time name="orth">    0.01    0.01</time>
   <time name="total">    0.53    0.58</time>
   <energy>
    <i name="alphaZ">   1453.81714184 </i>
    <i name="ewald"> -18496.40736298 </i>
    <i name="hartreedc">  -6143.84012630 </i>
    <i name="XCdc">   -362.57035894 </i>
    <i name="pawpsdc">  33706.77883036 </i>
    <i name="pawaedc"> -32060.97791460 </i>
    <i name="eentropy">      0.01823861 </i>
    <i name="bandstr">  -2422.42375766 </i>
    <i name="atom">  23966.86378612 </i>
    <i name="e_fr_energy">   -358.74152355 </i>
    <i name="e_wo_entrp">   -358.75976216 </i>
    <i name="e_0_energy">   -358.74760309 </i>
   </energy>
  </scstep>
  <structure>
   <crystal>
    <varray name="basis" >
     <v>       6.99015908       0.02315823      -0.02065071 </v>
     <v>       0.03433098      10.25128611      -0.01772131 </v>
     <v>      -0.03078628      -0.01796770      10.26420502 </v>
    </varray>
    <i name="volume">    735.49676368 </i>
    <varray name="rec_basis" >
     <v>       0.14306111      -0.00047836       0.00042826 </v>
     <v>      -0.00032268       0.09755011       0.00016980 </v>
     <v>       0.00028727       0.00016746       0.09742711 </v>
    </varray>
   </crystal>
   <varray name="positions" >
    <v>       0.96581282       0.32091027       0.67636818 </v>
    <v>       0.75656480       0.16235578       0.16121911 </v>
    <v>       0.01867648       0.99749145       0.67290207 </v>
    <v>       0.98121491       0.34772100       0.32268283 </v>
    <v>       0.22889130       0.49637981       0.51213305 </v>
    <v>       0.00197601       0.66527446       0.31804459 </v>
    <v>       0.47308427       0.97928732       0.01537279 </v>
    <v>       0.49923404       0.00025320       0.33250445 </v>
    <v>       0.53159512       0.32856119       0.65265796 </v>
    <v>       0.73838217       0.83518187       0.83267709 </v>
    <v>       0.02389890       0.68278799       0.67925534 </v>
    <v>       0.26470416       0.82814845       0.82466269 </v>
    <v>       0.50843265       0.34602753       0.00119192 </v>
    <v>       0.74574488       0.50543997       0.84264915 </v>
    <v>       0.24157779       0.18162427       0.16079075 </v>
    <v>       0.75297785       0.84018044       0.16405590 </v>
    <v>       0.98836986       0.34516764       0.00218959 </v>
    <v>       0.99715963       0.98952875       0.32810219 </v>
    <v>       0.26597819       0.48878785       0.15070591 </v>
    <v>       0.24501753       0.83007876       0.18676677 </v>
    <v>       0.24216051       0.83453634       0.49271874 </v>
    <v>       0.48197688       0.99554279       0.65533774 </v>
    <v>       0.73235788       0.49689319       0.14820368 </v>
    <v>       0.77102691       0.14685926       0.49054664 </v>
    <v>       0.50005328       0.66783081       0.00530492 </v>
    <v>       0.49999870       0.66415950       0.32643958 </v>
    <v>       0.72926303       0.15647586       0.84623465 </v>
    <v>       0.02249096       0.99225132       0.00015478 </v>
    <v>       0.22762502       0.17025878       0.49612669 </v>
    <v>       0.26957333       0.17707553       0.83753871 </v>
    <v>       0.00218571       0.66515353       0.00582836 </v>
    <v>       0.51338150       0.33476188       0.33749599 </v>
    <v>       0.78167555       0.52501800       0.51544300 </v>
    <v>       0.48645043       0.67153147       0.66610379 </v>
    <v>       0.75932254       0.83597982       0.50501531 </v>
    <v>       0.25116739       0.49449091       0.83458608 </v>
   </varray>
  </structure>
  <varray name="forces" >
   <v>       0.00643525       0.01354433      -0.01549205 </v>
   <v>      -0.04323726      -0.03759313      -0.01759669 </v>
   <v>      -0.02376276       0.02688469       0.01502878 </v>
   <v>       0.22515025      -0.19256239      -0.08430005 </v>
   <v>       0.00855529       0.00493086      -0.03080795 </v>
   <v>       0.00454547      -0.05481121       0.01930020 </v>
   <v>      -0.09197776       0.24668441       0.09546138 </v>
   <v>      -0.17975899       0.14830798      -0.12394222 </v>
   <v>      -0.02492463       0.02089900      -0.01961828 </v>
   <v>       0.01008459       0.01260302       0.04951934 </v>
   <v>      -0.05913064      -0.02071904       0.02584594 </v>
   <v>      -0.00873120       0.05208010       0.02004271 </v>
   <v>      -0.19211682      -0.23832989       0.10192794 </v>
   <v>       0.01060230      -0.00922039       0.01524696 </v>
   <v>      -0.07770468      -0.09606946       0.01896084 </v>
   <v>      -0.00866400       0.04549927      -0.00578458 </v>
   <v>       0.27415206      -0.26221959       0.10849434 </v>
   <v>       0.16514497       0.18624619      -0.07818334 </v>
   <v>       0.01011224       0.12800062       0.00771821 </v>
   <v>       0.01594856      -0.05272968      -0.01962023 </v>
   <v>       0.01987613       0.00203008      -0.01296657 </v>
   <v>       0.02583964       0.00568038       0.01337781 </v>
   <v>       0.02909157      -0.02721505       0.03011338 </v>
   <v>      -0.05005131       0.01034910       0.00149373 </v>
   <v>      -0.00420319       0.02776977      -0.03189406 </v>
   <v>       0.02509478      -0.02855236       0.05122047 </v>
   <v>       0.03452522      -0.03518614       0.00506190 </v>
   <v>       0.06946188       0.23092637       0.17683750 </v>
   <v>      -0.00847880      -0.00919267      -0.01520215 </v>
   <v>       0.02505633       0.04790341      -0.01813049 </v>
   <v>      -0.00632540       0.03105422      -0.03370390 </v>
   <v>      -0.18705718      -0.11803132      -0.14823400 </v>
   <v>      -0.03014374      -0.03764195      -0.04735239 </v>
   <v>       0.05239213      -0.04505340      -0.02583996 </v>
   <v>      -0.02011042       0.02098281      -0.03666413 </v>
   <v>       0.00431012       0.00275111       0.00968162 </v>
  </varray>
  <varray name="stress" >
   <v>       8.97212111       0.04720492      -0.41149212 </v>
   <v>       0.04720494       9.15127891      -0.12732363 </v>
   <v>      -0.41149205      -0.12732363      10.49258388 </v>
  </varray>
  <energy>
   <i name="e_fr_energy">   -358.74152355 </i>
   <i name="e_wo_entrp">   -358.74760309 </i>
   <i name="e_0_energy">      0.01823861 </i>
  </energy>
  <time name="totalsc">   13.12   14.09</time>
 </calculation>
 <calculation>
  <scstep>
   <time name="dav">    0.89    0.91</time>
   <time name="total">    1.02    1.19</time>
   <energy>
    <i name="alphaZ">   1452.49986040 </i>
    <i name="ewald"> -18491.75024838 </i>
    <i name="hartreedc">  -6141.07648212 </i>
    <i name="XCdc">   -362.81800553 </i>
    <i name="pawpsdc">  33707.37052724 </i>
    <i name="pawaedc"> -32061.54796666 </i>
    <i name="eentropy">      0.01830651 </i>
    <i name="bandstr">  -2428.32254845 </i>
    <i name="atom">  23966.86378612 </i>
    <i name="e_fr_energy">   -358.76277086 </i>
    <i name="e_wo_entrp">   -358.78107738 </i>
    <i name="e_0_energy">   -358.76887304 </i>
   </energy>
  </scstep>
  <scstep>
   <time name="diag">    0.08    0.08</time>
   <time name="diis">    0.80    0.81</time>
   <time name="orth">    0.01    0.01</time>
   <time name="total">    0.99    1.03</time>
   <energy>
    <i name="e_fr_energy">   -358.76722272 </i>
    <i name="e_wo_entrp">   -358.78612127 </i>
    <i name="e_0_energy">   -358.77352224 </i>
   </energy>
  </scstep>
  <scstep>
   <time name="diag">    0.09    0.09</time>
   <time name="diis">    0.87    0.88</time>
   <time name="orth">    0.01    0.01</time>
   <time name="total">    1.05    1.09</time>
   <energy>
    <i name="e_fr_energy">   -358.76383063 </i>
    <i name="e_wo_entrp">   -358.78231651 </i>
    <i name="e_0_energy">   -358.76999259 </i>
   </energy>
  </scstep>
  <scstep>
   <time name="diag">    0.11    0.12</time>
   <time name="diis">    0.81    0.84</time>
   <time name="orth">    0.01    0.01</time>
   <time name="total">    1.01    1.12</time>
   <energy>
    <i name="e_fr_energy">   -358.76354606 </i>
    <i name="e_wo_entrp">   -358.78211457 </i>
    <i name="e_0_energy">   -358.76973556 </i>
   </energy>
  </scstep>
  <scstep>
   <time name="diag">    0.07    0.09</time>
   <time name="diis">    0.72    0.83</time>
   <time name="orth">    0.01    0.01</time>
   <time name="total">    0.87    1.03</time>
   <energy>
    <i name="e_fr_energy">   -358.76340365 </i>
    <i name="e_wo_entrp">   -358.78199026 </i>
    <i name="e_0_energy">   -358.76959919 </i>
   </energy>
  </scstep>
  <scstep>
   <time name="diag">    0.08    0.08</time>
   <time name="diis">    0.75    0.76</time>
   <time name="orth">    0.01    0.01</time>
   <time name="total">    0.91    0.94</time>
   <energy>
    <i name="e_fr_energy">   -358.76338694 </i>
    <i name="e_wo_entrp">   -358.78197198 </i>
    <i name="e_0_energy">   -358.76958195 </i>
   </energy>
  </scstep>
  <scstep>
   <time name="diag">    0.07    0.08</time>
   <time name="diis">    0.62    0.64</time>
   <time name="orth">    0.01    0.01</time>
   <time name="total">    0.77    0.82</time>
   <energy>
    <i name="e_fr_energy">   -358.76338279 </i>
    <i name="e_wo_entrp">   -358.78195769 </i>
    <i name="e_0_energy">   -358.76957442 </i>
   </energy>
  </scstep>
  <scstep>
   <time name="diag">    0.08    0.08</time>
   <time name="diis">    0.43    0.48</time>
   <time name="orth">    0.01    0.01</time>
   <time name="total">    0.56    0.64</time>
   <energy>
    <i name="alphaZ">   1452.49986040 </i>
    <i name="ewald"> -18491.75024838 </i>
    <i name="hartreedc">  -6144.81007558 </i>
    <i name="XCdc">   -362.66059236 </i>
    <i name="pawpsdc">  33662.68897067 </i>
    <i name="pawaedc"> -32016.74712648 </i>
    <i name="eentropy">      0.01859705 </i>
    <i name="bandstr">  -2424.86655048 </i>
    <i name="atom">  23966.86378612 </i>
    <i name="e_fr_energy">   -358.76337903 </i>
    <i name="e_wo_entrp">   -358.78197608 </i>
    <i name="e_0_energy">   -358.76957805 </i>
   </energy>
  </scstep>
  <structure>
   <crystal>
    <varray name="basis" >
     <v>       6.99098736       0.02396458      -0.02184728 </v>
     <v>       0.03550952      10.25354619      -0.01894191 </v>
     <v>      -0.03252772      -0.01918139      10.27005521 </v>
    </varray>
    <i name="volume">    736.16379041 </i>
    <varray name="rec_basis" >
     <v>       0.14304442      -0.00049455       0.00045213 </v>
     <v>      -0.00033376       0.09752872       0.00018110 </v>
     <v>       0.00030368       0.00017883       0.09737176 </v>
    </varray>
   </crystal>
   <varray name="positions" >
    <v>       0.96579992       0.32092037       0.67632818 </v>
    <v>       0.75647489       0.16227335       0.16121422 </v>
    <v>       0.01864924       0.99754561       0.67291597 </v>
    <v>       0.98200362       0.34722742       0.32245452 </v>
    <v>       0.22886200       0.49640720       0.51209095 </v>
    <v>       0.00201984       0.66518836       0.31806072 </v>
    <v>       0.47265388       0.97985157       0.01564586 </v>
    <v>       0.49863864       0.00060051       0.33219274 </v>
    <v>       0.53154980       0.32858542       0.65262271 </v>
    <v>       0.73839973       0.83516489       0.83271274 </v>
    <v>       0.02382397       0.68276404       0.67930638 </v>
    <v>       0.26466994       0.82822242       0.82463992 </v>
    <v>       0.50772359       0.34548872       0.00146925 </v>
    <v>       0.74577214       0.50545482       0.84267001 </v>
    <v>       0.24129712       0.18144674       0.16077181 </v>
    <v>       0.75300507       0.84026769       0.16406031 </v>
    <v>       0.98931007       0.34457128       0.00246396 </v>
    <v>       0.99772995       0.98997426       0.32786279 </v>
    <v>       0.26608048       0.48899227       0.15068100 </v>
    <v>       0.24502926       0.82998146       0.18677167 </v>
    <v>       0.24219074       0.83453397       0.49270274 </v>
    <v>       0.48199910       0.99554582       0.65535979 </v>
    <v>       0.73240138       0.49691140       0.14824750 </v>
    <v>       0.77092089       0.14686215       0.49055090 </v>
    <v>       0.50002739       0.66786651       0.00527516 </v>
    <v>       0.50001474       0.66412352       0.32650593 </v>
    <v>       0.72936357       0.15643210       0.84623087 </v>
    <v>       0.02283087       0.99278596       0.00062589 </v>
    <v>       0.22756338       0.17021455       0.49605843 </v>
    <v>       0.26966519       0.17715959       0.83755286 </v>
    <v>       0.00216142       0.66519170       0.00578288 </v>
    <v>       0.51276095       0.33446219       0.33710902 </v>
    <v>       0.78162329       0.52500385       0.51540699 </v>
    <v>       0.48653416       0.67146866       0.66605633 </v>
    <v>       0.75928324       0.83598909       0.50499977 </v>
    <v>       0.25116951       0.49452754       0.83461020 </v>
   </varray>
  </structure>
  <varray name="forces" >
   <v>      -0.00070362       0.01622902      -0.01333708 </v>
   <v>      -0.04307944      -0.03224714      -0.02278375 </v>
   <v>      -0.02287832       0.01930764       0.01398275 </v>
   <v>       0.19134798      -0.15209628      -0.07525470 </v>
   <v>       0.00532356       0.00197535      -0.02641777 </v>
   <v>       0.00242196      -0.05172380       0.01371659 </v>
   <v>      -0.06598694       0.20548843       0.07610578 </v>
   <v>      -0.16092401       0.12141923      -0.10471778 </v>
   <v>      -0.01612846       0.02365936      -0.01969476 </v>
   <v>       0.00354471       0.02355012       0.06619662 </v>
   <v>      -0.06179571      -0.01527026       0.02655208 </v>
   <v>      -0.00112721       0.05505276       0.02427582 </v>
   <v>      -0.15490549      -0.18915309       0.09382146 </v>
   <v>       0.01043898      -0.02599439       0.03358297 </v>
   <v>      -0.06845461      -0.08996046       0.03118569 </v>
   <v>      -0.01345579       0.05375140      -0.01075339 </v>
   <v>       0.23482862      -0.21651918       0.10180074 </v>
   <v>       0.13890857       0.14535393      -0.05482279 </v>
   <v>       0.01096371       0.12870677      -0.00399345 </v>
   <v>       0.01567892      -0.05090316      -0.01577445 </v>
   <v>       0.01929408       0.01152493      -0.01801840 </v>
   <v>       0.02558560      -0.00383120       0.01039314 </v>
   <v>       0.02268955      -0.06029484       0.00440316 </v>
   <v>      -0.05012417       0.00630445      -0.00048499 </v>
   <v>       0.00623768       0.02494413      -0.03162829 </v>
   <v>       0.03031725      -0.02760958       0.04758229 </v>
   <v>       0.02806313      -0.03515413       0.00648212 </v>
   <v>       0.04840348       0.19329475       0.14688632 </v>
   <v>      -0.00695413      -0.00728913       0.00186031 </v>
   <v>       0.02682787       0.05209606      -0.03341672 </v>
   <v>      -0.00961976       0.03158602      -0.03047356 </v>
   <v>      -0.16584759      -0.09648231      -0.12724938 </v>
   <v>      -0.02287663      -0.05303363      -0.05638333 </v>
   <v>       0.05261458      -0.04078151      -0.02239449 </v>
   <v>      -0.01573957       0.04093443      -0.04794499 </v>
   <v>       0.00711122      -0.00683469       0.01671623 </v>
  </varray>
  <varray name="stress" >
   <v>       7.92420086      -0.14009205      -0.30963214 </v>
   <v>      -0.14009206       7.84454344      -0.01108618 </v>
   <v>      -0.30963216      -0.01108616       9.13075250 </v>
  </varray>
  <energy>
   <i name="e_fr_energy">   -358.76337903 </i>
   <i name="e_wo_entrp">   -358.76957805 </i>
   <i name="e_0_energy">      0.01859705 </i>
  </energy>
  <time name="totalsc">    8.71    9.52</time>
 </calculation>
 <calculation>
  <scstep>
   <time name="dav">    0.85    0.89</time>
   <time name="total">    0.99    1.16</time>
   <energy>
    <i name="alphaZ">   1448.55948506 </i>
    <i name="ewald"> -18476.83815013 </i>
    <i name="hartreedc">  -6137.31684288 </i>
    <i name="XCdc">   -363.40064748 </i>
    <i name="pawpsdc">  33663.14734331 </i>
    <i name="pawaedc"> -32017.23197858 </i>
    <i name="eentropy">      0.01836722 </i>
    <i name="bandstr">  -2442.60106383 </i>
    <i name="atom">  23966.86378612 </i>
    <i name="e_fr_energy">   -358.79970120 </i>
    <i name="e_wo_entrp">   -358.81806842 </i>
    <i name="e_0_energy">   -358.80582361 </i>
   </energy>
  </scstep>
  <scstep>
   <time name="diag">    0.07    0.08</time>
   <time name="diis">    0.77    0.78</time>
   <time name="orth">    0.01    0.01</time>
   <time name="total">    0.92    0.96</time>
   <energy>
    <i name="e_fr_energy">   -358.83770432 </i>
    <i name="e_wo_entrp">   -358.85775976 </i>
    <i name="e_0_energy">   -358.84438947 </i>
   </energy>
  </scstep>
  <scstep>
   <time name="diag">    0.08    0.08</time>
   <time name="diis">    0.75    0.79</time>
   <time name="orth">    0.01    0.01</time>
   <time name="total">    0.91    0.98</time>
   <energy>
    <i name="e_fr_energy">   -358.81062813 </i>
    <i name="e_wo_entrp">   -358.82951073 </i>
    <i name="e_0_energy">   -358.81692233 </i>
   </energy>
  </scstep>
  <scstep>
   <time name="diag">    0.08    0.08</time>
   <time name="diis">    0.84    0.87</time>
   <time name="orth">    0.01    0.01</time>
   <time name="total">    1.00    1.07</time>
   <energy>
    <i name="e_fr_energy">   -358.80784430 </i>
    <i name="e_wo_entrp">   -358.82696089 </i>
    <i name="e_0_energy">   -358.81421650 </i>
   </energy>
  </scstep>
  <scstep>
   <time name="diag">    0.07    0.08</time>
   <time name="diis">    0.79    0.83</time>
   <time name="orth">    0.01    0.01</time>
   <time name="total">    0.94    1.01</time>
   <energy>
    <i name="e_fr_energy">   -358.80663741 </i>
    <i name="e_wo_entrp">   -358.82578191 </i>
    <i name="e_0_energy">   -358.81301891 </i>
   </energy>
  </scstep>
  <scstep>
   <time name="diag">    0.07    0.08</time>
   <time name="diis">    0.77    0.80</time>
   <time name="orth">    0.01    0.01</time>
   <time name="total">    0.93    0.99</time>
   <energy>
    <i name="e_fr_energy">   -358.80651301 </i>
    <i name="e_wo_entrp">   -358.82566228 </i>
    <i name="e_0_energy">   -358.81289610 </i>
   </energy>
  </scstep>
  <scstep>
   <time name="diag">    0.07    0.08</time>
   <time name="diis">    0.80    0.82</time>
   <time name="orth">    0.01    0.01</time>
   <time name="total">    0.95    1.01</time>
   <energy>
    <i name="e_fr_energy">   -358.80652672 </i>
    <i name="e_wo_entrp">   -358.82564201 </i>
    <i name="e_0_energy">   -358.81289848 </i>
   </energy>
  </scstep>
  <scstep>
   <time name="diag">    0.07    0.08</time>
   <time name="diis">    0.66    0.68</time>
   <time name="orth">    0.01    0.01</time>
   <time name="total">    0.81    0.88</time>
   <energy>
    <i name="e_fr_energy">   -358.80653612 </i>
    <i name="e_wo_entrp">   -358.82571456 </i>
    <i name="e_0_energy">   -358.81292893 </i>
   </energy>
  </scstep>
  <scstep>
   <time name="diag">    0.08    0.08</time>
   <time name="diis">    0.63    0.65</time>
   <time name="orth">    0.01    0.01</time>
   <time name="total">    0.78    0.84</time>
   <energy>
    <i name="e_fr_energy">   -358.80654746 </i>
    <i name="e_wo_entrp">   -358.82567579 </i>
    <i name="e_0_energy">   -358.81292357 </i>
   </energy>
  </scstep>
  <scstep>
   <time name="diag">    0.07    0.08</time>
   <time name="diis">    0.52    0.56</time>
   <time name="orth">    0.01    0.01</time>
   <time name="total">    0.69    0.77</time>
   <energy>
    <i name="e_fr_energy">   -358.80655001 </i>
    <i name="e_wo_entrp">   -358.82570595 </i>
    <i name="e_0_energy">   -358.81293532 </i>
   </energy>
  </scstep>
  <scstep>
   <time name="diag">    0.13    0.13</time>
   <time name="diis">    0.48    0.50</time>
   <time name="orth">    0.01    0.01</time>
   <time name="total">    0.65    0.72</time>
   <energy>
    <i name="alphaZ">   1448.55948506 </i>
    <i name="ewald"> -18476.83815013 </i>
    <i name="hartreedc">  -6148.10986925 </i>
    <i name="XCdc">   -362.94772407 </i>
    <i name="pawpsdc">  33528.17048912 </i>
    <i name="pawaedc"> -31882.46998703 </i>
    <i name="eentropy">      0.01914838 </i>
    <i name="bandstr">  -2432.05372823 </i>
    <i name="atom">  23966.86378612 </i>
    <i name="e_fr_energy">   -358.80655003 </i>
    <i name="e_wo_entrp">   -358.82569841 </i>
    <i name="e_0_energy">   -358.81293282 </i>
   </energy>
  </scstep>
  <structure>
   <crystal>
    <varray name="basis" >
     <v>       6.99347220       0.02638364      -0.02543702 </v>
     <v>       0.03904517      10.26032646      -0.02260372 </v>
     <v>      -0.03775207      -0.02282248      10.28760576 </v>
    </varray>
    <i name="volume">    738.16630510 </i>
    <varray name="rec_basis" >
     <v>       0.14299444      -0.00054300       0.00052354 </v>
     <v>      -0.00036691       0.09746466       0.00021487 </v>
     <v>       0.00035276       0.00021280       0.09720611 </v>
    </varray>
   </crystal>
   <varray name="positions" >
    <v>       0.96576118       0.32095065       0.67620824 </v>
    <v>       0.75620523       0.16202611       0.16119951 </v>
    <v>       0.01856750       0.99770806       0.67295765 </v>
    <v>       0.98436954       0.34574675       0.32177010 </v>
    <v>       0.22877407       0.49648933       0.51196473 </v>
    <v>       0.00215138       0.66493011       0.31810906 </v>
    <v>       0.47136278       0.98154415       0.01646464 </v>
    <v>       0.49685226       0.00164223       0.33125805 </v>
    <v>       0.53141381       0.32865808       0.65251702 </v>
    <v>       0.73845243       0.83511395       0.83281962 </v>
    <v>       0.02359926       0.68269225       0.67945939 </v>
    <v>       0.26456725       0.82844429       0.82457164 </v>
    <v>       0.50559714       0.34387291       0.00230034 </v>
    <v>       0.74585391       0.50549938       0.84273259 </v>
    <v>       0.24045530       0.18091434       0.16071488 </v>
    <v>       0.75308670       0.84052937       0.16407357 </v>
    <v>       0.99213086       0.34278245       0.00328673 </v>
    <v>       0.99944030       0.99131029       0.32714533 </v>
    <v>       0.26638721       0.48960535       0.15060643 </v>
    <v>       0.24506449       0.82968963       0.18678635 </v>
    <v>       0.24228142       0.83452684       0.49265477 </v>
    <v>       0.48206577       0.99555490       0.65542591 </v>
    <v>       0.73253188       0.49696603       0.14837893 </v>
    <v>       0.77060288       0.14687087       0.49056363 </v>
    <v>       0.49994972       0.66797358       0.00518592 </v>
    <v>       0.50006293       0.66401564       0.32670487 </v>
    <v>       0.72966520       0.15630082       0.84621957 </v>
    <v>       0.02385055       0.99438964       0.00203874 </v>
    <v>       0.22737844       0.17008187       0.49585374 </v>
    <v>       0.26994071       0.17741170       0.83759535 </v>
    <v>       0.00208851       0.66530617       0.00564654 </v>
    <v>       0.51089941       0.33356335       0.33594847 </v>
    <v>       0.78146651       0.52496139       0.51529899 </v>
    <v>       0.48678530       0.67128023       0.66591402 </v>
    <v>       0.75916535       0.83601688       0.50495315 </v>
    <v>       0.25117585       0.49463741       0.83468253 </v>
   </varray>
  </structure>
  <varray name="forces" >
   <v>      -0.02164414       0.02393842      -0.00900415 </v>
   <v>      -0.04228308      -0.01611588      -0.03510443 </v>
   <v>      -0.02013257      -0.00477943       0.00654806 </v>
   <v>       0.09582211      -0.03265448      -0.04998856 </v>
   <v>      -0.00435907      -0.00558572      -0.01519589 </v>
   <v>      -0.00426310      -0.04269730      -0.00040707 </v>
   <v>       0.01706258       0.08120792       0.01797251 </v>
   <v>      -0.10547952       0.04209610      -0.04788434 </v>
   <v>       0.00966490       0.03272977      -0.02010233 </v>
   <v>      -0.01637389       0.05402871       0.11290846 </v>
   <v>      -0.07091669       0.00151960       0.02932610 </v>
   <v>       0.02168440       0.06043378       0.03507440 </v>
   <v>      -0.04707707      -0.04654217       0.07471162 </v>
   <v>       0.01132577      -0.06744534       0.08345489 </v>
   <v>      -0.03866810      -0.07107996       0.06825348 </v>
   <v>      -0.02849307       0.07774133      -0.02536573 </v>
   <v>       0.11772195      -0.08490194       0.08539736 </v>
   <v>       0.06120783       0.02795213       0.01691084 </v>
   <v>       0.01153747       0.13050703      -0.03821748 </v>
   <v>       0.01449057      -0.04556237      -0.00552798 </v>
   <v>       0.01968064       0.04056518      -0.03091771 </v>
   <v>       0.02539754      -0.03497870       0.00032246 </v>
   <v>       0.00551504      -0.15325934      -0.06948627 </v>
   <v>      -0.05154240      -0.00663451      -0.00818316 </v>
   <v>       0.03834936       0.01724325      -0.03162053 </v>
   <v>       0.04701011      -0.02530198       0.03708790 </v>
   <v>       0.00942912      -0.03486365       0.01104189 </v>
   <v>      -0.01955478       0.08249415       0.05365396 </v>
   <v>      -0.00059491      -0.00113967       0.05561342 </v>
   <v>       0.02943635       0.06220180      -0.08033362 </v>
   <v>      -0.02142644       0.03014520      -0.02034608 </v>
   <v>      -0.10356618      -0.02973328      -0.06614498 </v>
   <v>      -0.00166119      -0.09879522      -0.08178803 </v>
   <v>       0.05318331      -0.02775478      -0.01077650 </v>
   <v>      -0.00543283       0.09776812      -0.07823682 </v>
   <v>       0.01495000      -0.03274679       0.03635432 </v>
  </varray>
  <varray name="stress" >
   <v>       4.31559795      -0.70528358       0.04626096 </v>
   <v>      -0.70528359       3.47139844       0.38988458 </v>
   <v>       0.04626093       0.38988460       4.55283874 </v>
  </varray>
  <energy>
   <i name="e_fr_energy">   -358.80655003 </i>
   <i name="e_wo_entrp">   -358.81293282 </i>
   <i name="e_0_energy">      0.01914838 </i>
  </energy>
  <time name="totalsc">   11.02   12.00</time>
 </calculation>
 <calculation>
  <scstep>
   <time name="dav">    0.98    1.00</time>
   <time name="total">    1.15    1.36</time>
   <energy>
    <i name="alphaZ">   1440.72999135 </i>
    <i name="ewald"> -18442.76288041 </i>
    <i name="hartreedc">  -6136.99414342 </i>
    <i name="XCdc">   -364.40074414 </i>
    <i name="pawpsdc">  33527.69918888 </i>
    <i name="pawaedc"> -31882.02744441 </i>
    <i name="eentropy">      0.01619856 </i>
    <i name="bandstr">  -2467.88285619 </i>
    <i name="atom">  23966.86378612 </i>
    <i name="e_fr_energy">   -358.75890367 </i>
    <i name="e_wo_entrp">   -358.77510222 </i>
    <i name="e_0_energy">   -358.76430319 </i>
   </energy>
  </scstep>
  <scstep>
   <time name="diag">    0.08    0.10</time>
   <time name="diis">    0.81    0.91</time>
   <time name="orth">    0.02    0.02</time>
   <time name="total">    0.99    1.16</time>
   <energy>
    <i name="e_fr_energy">   -358.89547604 </i>
    <i name="e_wo_entrp">   -358.91491881 </i>
    <i name="e_0_energy">   -358.90195696 </i>
   </energy>
  </scstep>
  <scstep>
   <time name="diag">    0.12    0.12</time>
   <time name="diis">    0.86    0.88</time>
   <time name="orth">    0.01    0.01</time>
   <time name="total">    1.06    1.13</time>
   <energy>
    <i name="e_fr_energy">   -358.81273728 </i>
    <i name="e_wo_entrp">   -358.82977885 </i>
    <i name="e_0_energy">   -358.81841780 </i>
   </energy>
  </scstep>
  <scstep>
   <time name="diag">    0.08    0.08</time>
   <time name="diis">    0.75    0.76</time>
   <time name="orth">    0.01    0.01</time>
   <time name="total">    0.90    0.95</time>
   <energy>
    <i name="e_fr_energy">   -358.80000658 </i>
    <i name="e_wo_entrp">   -358.81759639 </i>
    <i name="e_0_energy">   -358.80586985 </i>
   </energy>
  </scstep>
  <scstep>
   <time name="diag">    0.08    0.08</time>
   <time name="diis">    0.77    0.77</time>
   <time name="orth">    0.01    0.01</time>
   <time name="total">    0.92    0.96</time>
   <energy>
    <i name="e_fr_energy">   -358.79550633 </i>
    <i name="e_wo_entrp">   -358.81305300 </i>
    <i name="e_0_energy">   -358.80135522 </i>
   </energy>
  </scstep>
  <scstep>
   <time name="diag">    0.07    0.08</time>
   <time name="diis">    0.73    0.77</time>
   <time name="orth">    0.01    0.01</time>
   <time name="total">    0.88    0.95</time>
   <energy>
    <i name="e_fr_energy">   -358.79478276 </i>
    <i name="e_wo_entrp">   -358.81235300 </i>
    <i name="e_0_energy">   -358.80063951 </i>
   </energy>
  </scstep>
  <scstep>
   <time name="diag">    0.08    0.08</time>
   <time name="diis">    0.82    0.86</time>
   <time name="orth">    0.01    0.01</time>
   <time name="total">    1.00    1.07</time>
   <energy>
    <i name="e_fr_energy">   -358.79488592 </i>
    <i name="e_wo_entrp">   -358.81241537 </i>
    <i name="e_0_energy">   -358.80072907 </i>
   </energy>
  </scstep>
  <scstep>
[...]
       <r>    6.5427    1.0000 </r>
       <r>    6.5734    1.0000 </r>
       <r>    6.6149    1.0000 </r>
       <r>    6.6485    1.0000 </r>
       <r>    6.7212    1.0000 </r>
       <r>    6.7328    1.0000 </r>
       <r>    6.7992    1.0000 </r>
       <r>    6.8347    1.0000 </r>
       <r>    6.8925    1.0003 </r>
       <r>    6.9057    1.0004 </r>
       <r>    6.9224    1.0007 </r>
       <r>    6.9471    1.0016 </r>
       <r>    6.9817    1.0040 </r>
       <r>    7.0189    1.0093 </r>
       <r>    7.0534    1.0176 </r>
       <r>    7.0909    1.0289 </r>
       <r>    7.1143    1.0343 </r>
       <r>    7.1522    1.0305 </r>
       <r>    7.1583    1.0273 </r>
       <r>    7.1971    0.9805 </r>
       <r>    7.2438    0.8432 </r>
       <r>    7.2894    0.6247 </r>
       <r>    7.3452    0.3167 </r>
       <r>    7.3935    0.1061 </r>
       <r>    7.4348    0.0050 </r>
       <r>    7.4495   -0.0144 </r>
       <r>    7.4642   -0.0267 </r>
       <r>    7.5022   -0.0352 </r>
       <r>    7.5477   -0.0243 </r>
       <r>    7.5935   -0.0116 </r>
       <r>    7.6252   -0.0059 </r>
       <r>    7.6872   -0.0011 </r>
       <r>    7.7121   -0.0005 </r>
       <r>    7.7384   -0.0002 </r>
       <r>    7.7960   -0.0000 </r>
       <r>    7.8336   -0.0000 </r>
       <r>    7.8593   -0.0000 </r>
       <r>    7.8928   -0.0000 </r>
       <r>    7.9380   -0.0000 </r>
       <r>    7.9952   -0.0000 </r>
       <r>    8.0740   -0.0000 </r>
       <r>    8.0939   -0.0000 </r>
       <r>    8.2175   -0.0000 </r>
       <r>    8.2740   -0.0000 </r>
       <r>    8.3501   -0.0000 </r>
       <r>    8.4407   -0.0000 </r>
       <r>    8.6046   -0.0000 </r>
       <r>    8.6338   -0.0000 </r>
       <r>    9.1255   -0.0000 </r>
      </set>
     </set>
    </set>
   </array>
  </eigenvalues>
  <separator name="orbital magnetization" >
   <v name="MAGDIPOLOUT">      0.00000000      0.00000000      0.00000000</v>
  </separator>
  <dos>
   <i name="efermi">      7.31176116 </i>
   <total>
    <array>
     <dimension dim="1">gridpoints</dimension>
     <dimension dim="2">spin</dimension>
     <field>energy</field>
     <field>total</field>
     <field>integrated</field>
     <set>
      <set comment="spin 1">
       <r>   -49.8751     0.0000     0.0000 </r>
       <r>   -49.6688     0.0000     0.0000 </r>
       <r>   -49.4624     0.0000     0.0000 </r>
       <r>   -49.2561     0.0000     0.0000 </r>
       <r>   -49.0498     0.0000     0.0000 </r>
       <r>   -48.8435     0.0000     0.0000 </r>
       <r>   -48.6372     0.0000     0.0000 </r>
       <r>   -48.4309    -0.0000    -0.0000 </r>
       <r>   -48.2246    -0.0000    -0.0000 </r>
       <r>   -48.0183    -0.0000    -0.0000 </r>
       <r>   -47.8120    -0.0000    -0.0000 </r>
       <r>   -47.6057    -0.0000    -0.0000 </r>
       <r>   -47.3993    -0.0319    -0.0066 </r>
       <r>   -47.1930    -0.1580    -0.0392 </r>
       <r>   -46.9867     9.1189     1.8421 </r>
       <r>   -46.7804    23.1765     6.6237 </r>
       <r>   -46.5741    16.9174    10.1139 </r>
       <r>   -46.3678    -0.5094    10.0088 </r>
       <r>   -46.1615    -0.0427    10.0000 </r>
       <r>   -45.9552    -0.0000    10.0000 </r>
       <r>   -45.7489    -0.0000    10.0000 </r>
       <r>   -45.5426     0.0000    10.0000 </r>
       <r>   -45.3362     0.0000    10.0000 </r>
       <r>   -45.1299     0.0000    10.0000 </r>
       <r>   -44.9236     0.0000    10.0000 </r>
       <r>   -44.7173     0.0000    10.0000 </r>
       <r>   -44.5110     0.0000    10.0000 </r>
       <r>   -44.3047     0.0000    10.0000 </r>
       <r>   -44.0984     0.0000    10.0000 </r>
       <r>   -43.8921     0.0000    10.0000 </r>
       <r>   -43.6858     0.0000    10.0000 </r>
       <r>   -43.4795     0.0000    10.0000 </r>
       <r>   -43.2731     0.0000    10.0000 </r>
       <r>   -43.0668     0.0000    10.0000 </r>
       <r>   -42.8605     0.0000    10.0000 </r>
       <r>   -42.6542     0.0000    10.0000 </r>
       <r>   -42.4479     0.0000    10.0000 </r>
       <r>   -42.2416    -0.0000    10.0000 </r>
       <r>   -42.0353    -0.0000    10.0000 </r>
       <r>   -41.8290    -0.0000    10.0000 </r>
       <r>   -41.6227    -0.0000    10.0000 </r>
       <r>   -41.4164    -0.0011     9.9998 </r>
       <r>   -41.2100    -0.5092     9.8947 </r>
       <r>   -41.0037     3.1684    10.5484 </r>
       <r>   -40.7974    80.2951    27.1141 </r>
       <r>   -40.5911    25.3485    32.3437 </r>
       <r>   -40.3848    -1.6460    32.0042 </r>
       <r>   -40.1785    -0.0201    32.0000 </r>
       <r>   -39.9722    -0.0000    32.0000 </r>
       <r>   -39.7659    -0.0000    32.0000 </r>
       <r>   -39.5596     0.0000    32.0000 </r>
       <r>   -39.3533     0.0000    32.0000 </r>
       <r>   -39.1469     0.0000    32.0000 </r>
       <r>   -38.9406     0.0000    32.0000 </r>
       <r>   -38.7343     0.0000    32.0000 </r>
       <r>   -38.5280     0.0000    32.0000 </r>
       <r>   -38.3217     0.0000    32.0000 </r>
       <r>   -38.1154     0.0000    32.0000 </r>
       <r>   -37.9091     0.0000    32.0000 </r>
       <r>   -37.7028     0.0000    32.0000 </r>
       <r>   -37.4965     0.0000    32.0000 </r>
       <r>   -37.2902     0.0000    32.0000 </r>
       <r>   -37.0838     0.0000    32.0000 </r>
       <r>   -36.8775     0.0000    32.0000 </r>
       <r>   -36.6712     0.0000    32.0000 </r>
       <r>   -36.4649     0.0000    32.0000 </r>
       <r>   -36.2586     0.0000    32.0000 </r>
       <r>   -36.0523     0.0000    32.0000 </r>
       <r>   -35.8460     0.0000    32.0000 </r>
       <r>   -35.6397     0.0000    32.0000 </r>
       <r>   -35.4334     0.0000    32.0000 </r>
       <r>   -35.2271     0.0000    32.0000 </r>
       <r>   -35.0207     0.0000    32.0000 </r>
       <r>   -34.8144     0.0000    32.0000 </r>
       <r>   -34.6081     0.0000    32.0000 </r>
       <r>   -34.4018     0.0000    32.0000 </r>
       <r>   -34.1955     0.0000    32.0000 </r>
       <r>   -33.9892     0.0000    32.0000 </r>
       <r>   -33.7829     0.0000    32.0000 </r>
       <r>   -33.5766     0.0000    32.0000 </r>
       <r>   -33.3703     0.0000    32.0000 </r>
       <r>   -33.1640     0.0000    32.0000 </r>
       <r>   -32.9576     0.0000    32.0000 </r>
       <r>   -32.7513     0.0000    32.0000 </r>
       <r>   -32.5450     0.0000    32.0000 </r>
       <r>   -32.3387     0.0000    32.0000 </r>
       <r>   -32.1324     0.0000    32.0000 </r>
       <r>   -31.9261     0.0000    32.0000 </r>
       <r>   -31.7198     0.0000    32.0000 </r>
       <r>   -31.5135     0.0000    32.0000 </r>
       <r>   -31.3072     0.0000    32.0000 </r>
       <r>   -31.1009     0.0000    32.0000 </r>
       <r>   -30.8945     0.0000    32.0000 </r>
       <r>   -30.6882     0.0000    32.0000 </r>
       <r>   -30.4819     0.0000    32.0000 </r>
       <r>   -30.2756     0.0000    32.0000 </r>
       <r>   -30.0693     0.0000    32.0000 </r>
       <r>   -29.8630     0.0000    32.0000 </r>
       <r>   -29.6567     0.0000    32.0000 </r>
       <r>   -29.4504     0.0000    32.0000 </r>
       <r>   -29.2441     0.0000    32.0000 </r>
       <r>   -29.0378     0.0000    32.0000 </r>
       <r>   -28.8314     0.0000    32.0000 </r>
       <r>   -28.6251     0.0000    32.0000 </r>
       <r>   -28.4188     0.0000    32.0000 </r>
       <r>   -28.2125     0.0000    32.0000 </r>
       <r>   -28.0062     0.0000    32.0000 </r>
       <r>   -27.7999     0.0000    32.0000 </r>
       <r>   -27.5936     0.0000    32.0000 </r>
       <r>   -27.3873     0.0000    32.0000 </r>
       <r>   -27.1810     0.0000    32.0000 </r>
       <r>   -26.9747     0.0000    32.0000 </r>
       <r>   -26.7683     0.0000    32.0000 </r>
       <r>   -26.5620     0.0000    32.0000 </r>
       <r>   -26.3557     0.0000    32.0000 </r>
       <r>   -26.1494     0.0000    32.0000 </r>
       <r>   -25.9431     0.0000    32.0000 </r>
       <r>   -25.7368     0.0000    32.0000 </r>
       <r>   -25.5305     0.0000    32.0000 </r>
       <r>   -25.3242     0.0000    32.0000 </r>
       <r>   -25.1179     0.0000    32.0000 </r>
       <r>   -24.9116     0.0000    32.0000 </r>
       <r>   -24.7052    -0.0000    32.0000 </r>
       <r>   -24.4989    -0.0000    32.0000 </r>
       <r>   -24.2926    -0.0000    32.0000 </r>
       <r>   -24.0863    -0.0000    32.0000 </r>
       <r>   -23.8800    -0.0000    32.0000 </r>
       <r>   -23.6737    -0.0330    31.9932 </r>
       <r>   -23.4674    -0.5715    31.8753 </r>
       <r>   -23.2611    14.3475    34.8353 </r>
       <r>   -23.0548    37.1293    42.4955 </r>
       <r>   -22.8485    62.3204    55.3528 </r>
       <r>   -22.6421    24.5515    60.4180 </r>
       <r>   -22.4358     8.1266    62.0946 </r>
       <r>   -22.2295    -0.4454    62.0027 </r>
       <r>   -22.0232    -0.0132    62.0000 </r>
       <r>   -21.8169    -0.0000    62.0000 </r>
       <r>   -21.6106    -0.0000    62.0000 </r>
       <r>   -21.4043     0.0000    62.0000 </r>
       <r>   -21.1980     0.0000    62.0000 </r>
       <r>   -20.9917     0.0000    62.0000 </r>
       <r>   -20.7854     0.0000    62.0000 </r>
       <r>   -20.5791    -0.0000    62.0000 </r>
       <r>   -20.3727    -0.0000    62.0000 </r>
       <r>   -20.1664    -0.0000    62.0000 </r>
       <r>   -19.9601    -0.0000    62.0000 </r>
       <r>   -19.7538    -0.0009    61.9998 </r>
       <r>   -19.5475    -0.3489    61.9278 </r>
       <r>   -19.3412     1.6345    62.2650 </r>
       <r>   -19.1349    55.7267    73.7620 </r>
       <r>   -18.9286   131.7709   100.9477 </r>
       <r>   -18.7223   108.2756   123.2860 </r>
       <r>   -18.5160    23.9797   128.2333 </r>
       <r>   -18.3096    -1.0726   128.0120 </r>
       <r>   -18.1033    -0.0580   128.0000 </r>
       <r>   -17.8970    -0.0000   128.0000 </r>
       <r>   -17.6907    -0.0000   128.0000 </r>
       <r>   -17.4844     0.0000   128.0000 </r>
       <r>   -17.2781     0.0000   128.0000 </r>
       <r>   -17.0718     0.0000   128.0000 </r>
       <r>   -16.8655     0.0000   128.0000 </r>
       <r>   -16.6592     0.0000   128.0000 </r>
       <r>   -16.4529     0.0000   128.0000 </r>
       <r>   -16.2465     0.0000   128.0000 </r>
       <r>   -16.0402     0.0000   128.0000 </r>
       <r>   -15.8339     0.0000   128.0000 </r>
       <r>   -15.6276     0.0000   128.0000 </r>
       <r>   -15.4213     0.0000   128.0000 </r>
       <r>   -15.2150     0.0000   128.0000 </r>
       <r>   -15.0087     0.0000   128.0000 </r>
       <r>   -14.8024     0.0000   128.0000 </r>
       <r>   -14.5961     0.0000   128.0000 </r>
       <r>   -14.3898     0.0000   128.0000 </r>
       <r>   -14.1834     0.0000   128.0000 </r>
       <r>   -13.9771     0.0000   128.0000 </r>
       <r>   -13.7708     0.0000   128.0000 </r>
       <r>   -13.5645     0.0000   128.0000 </r>
       <r>   -13.3582     0.0000   128.0000 </r>
       <r>   -13.1519     0.0000   128.0000 </r>
       <r>   -12.9456     0.0000   128.0000 </r>
       <r>   -12.7393     0.0000   128.0000 </r>
       <r>   -12.5330     0.0000   128.0000 </r>
       <r>   -12.3267     0.0000   128.0000 </r>
       <r>   -12.1203     0.0000   128.0000 </r>
       <r>   -11.9140     0.0000   128.0000 </r>
       <r>   -11.7077     0.0000   128.0000 </r>
       <r>   -11.5014     0.0000   128.0000 </r>
       <r>   -11.2951     0.0000   128.0000 </r>
       <r>   -11.0888     0.0000   128.0000 </r>
       <r>   -10.8825     0.0000   128.0000 </r>
       <r>   -10.6762     0.0000   128.0000 </r>
       <r>   -10.4699     0.0000   128.0000 </r>
       <r>   -10.2636     0.0000   128.0000 </r>
       <r>   -10.0572     0.0000   128.0000 </r>
       <r>    -9.8509     0.0000   128.0000 </r>
       <r>    -9.6446     0.0000   128.0000 </r>
       <r>    -9.4383     0.0000   128.0000 </r>
       <r>    -9.2320     0.0000   128.0000 </r>
       <r>    -9.0257     0.0000   128.0000 </r>
       <r>    -8.8194     0.0000   128.0000 </r>
       <r>    -8.6131     0.0000   128.0000 </r>
       <r>    -8.4068     0.0000   128.0000 </r>
       <r>    -8.2005     0.0000   128.0000 </r>
       <r>    -7.9941     0.0000   128.0000 </r>
       <r>    -7.7878     0.0000   128.0000 </r>
       <r>    -7.5815     0.0000   128.0000 </r>
       <r>    -7.3752     0.0000   128.0000 </r>
       <r>    -7.1689     0.0000   128.0000 </r>
       <r>    -6.9626     0.0000   128.0000 </r>
       <r>    -6.7563     0.0000   128.0000 </r>
       <r>    -6.5500     0.0000   128.0000 </r>
       <r>    -6.3437     0.0000   128.0000 </r>
       <r>    -6.1374     0.0000   128.0000 </r>
       <r>    -5.9310     0.0000   128.0000 </r>
       <r>    -5.7247     0.0000   128.0000 </r>
       <r>    -5.5184     0.0000   128.0000 </r>
       <r>    -5.3121     0.0000   128.0000 </r>
       <r>    -5.1058     0.0000   128.0000 </r>
       <r>    -4.8995     0.0000   128.0000 </r>
       <r>    -4.6932     0.0000   128.0000 </r>
       <r>    -4.4869     0.0000   128.0000 </r>
       <r>    -4.2806     0.0000   128.0000 </r>
       <r>    -4.0743     0.0000   128.0000 </r>
       <r>    -3.8679     0.0000   128.0000 </r>
       <r>    -3.6616     0.0000   128.0000 </r>
       <r>    -3.4553     0.0000   128.0000 </r>
       <r>    -3.2490     0.0000   128.0000 </r>
       <r>    -3.0427     0.0000   128.0000 </r>
       <r>    -2.8364     0.0000   128.0000 </r>
       <r>    -2.6301     0.0000   128.0000 </r>
       <r>    -2.4238     0.0000   128.0000 </r>
       <r>    -2.2175     0.0000   128.0000 </r>
       <r>    -2.0112     0.0000   128.0000 </r>
       <r>    -1.8048     0.0000   128.0000 </r>
       <r>    -1.5985     0.0000   128.0000 </r>
       <r>    -1.3922     0.0000   128.0000 </r>
       <r>    -1.1859     0.0000   128.0000 </r>
       <r>    -0.9796     0.0000   128.0000 </r>
       <r>    -0.7733    -0.0000   128.0000 </r>
       <r>    -0.5670    -0.0000   128.0000 </r>
       <r>    -0.3607    -0.0000   128.0000 </r>
       <r>    -0.1544    -0.0000   128.0000 </r>
       <r>     0.0519    -0.0000   128.0000 </r>
       <r>     0.2583    -0.0023   127.9995 </r>
       <r>     0.4646     0.0111   128.0018 </r>
       <r>     0.6709     0.3526   128.0746 </r>
       <r>     0.8772     1.3079   128.3444 </r>
       <r>     1.0835     1.7836   128.7124 </r>
       <r>     1.2898     2.2817   129.1831 </r>
       <r>     1.4961     3.9775   130.0037 </r>
       <r>     1.7024     2.8137   130.5842 </r>
       <r>     1.9087     3.0596   131.2154 </r>
       <r>     2.1150     4.4967   132.1431 </r>
       <r>     2.3214     3.7422   132.9152 </r>
       <r>     2.5277     5.5297   134.0560 </r>
       <r>     2.7340     6.1651   135.3280 </r>
       <r>     2.9403     9.1702   137.2199 </r>
       <r>     3.1466     6.7485   138.6121 </r>
       <r>     3.3529     9.1800   140.5061 </r>
       <r>     3.5592     8.6931   142.2995 </r>
       <r>     3.7655    17.4810   145.9060 </r>
       <r>     3.9718    20.6083   150.1577 </r>
       <r>     4.1781    24.6071   155.2344 </r>
       <r>     4.3845    27.7705   160.9638 </r>
       <r>     4.5908    31.5260   167.4679 </r>
       <r>     4.7971    36.9033   175.0814 </r>
       <r>     5.0034    40.4860   183.4341 </r>
       <r>     5.2097    37.7411   191.2204 </r>
       <r>     5.4160    32.5567   197.9372 </r>
       <r>     5.6223    33.8787   204.9267 </r>
       <r>     5.8286    18.5191   208.7474 </r>
       <r>     6.0349    33.9910   215.7601 </r>
       <r>     6.2412    60.2520   228.1906 </r>
       <r>     6.4476    58.2604   240.2104 </r>
       <r>     6.6539    57.8577   252.1470 </r>
       <r>     6.8602    53.6299   263.2114 </r>
       <r>     7.0665    56.1124   274.7879 </r>
       <r>     7.2728    50.5191   285.2105 </r>
       <r>     7.4791    47.3635   294.9821 </r>
       <r>     7.6854    51.3297   305.5719 </r>
       <r>     7.8917    46.8108   315.2294 </r>
       <r>     8.0980    36.6016   322.7807 </r>
       <r>     8.3043    31.6731   329.3152 </r>
       <r>     8.5107    24.9816   334.4692 </r>
       <r>     8.7170    20.1505   338.6264 </r>
       <r>     8.9233    11.3281   340.9635 </r>
       <r>     9.1296    11.8206   343.4022 </r>
       <r>     9.3359     3.0709   344.0358 </r>
       <r>     9.5422    -0.1681   344.0011 </r>
       <r>     9.7485    -0.0052   344.0000 </r>
       <r>     9.9548    -0.0000   344.0000 </r>
       <r>    10.1611    -0.0000   344.0000 </r>
       <r>    10.3674     0.0000   344.0000 </r>
       <r>    10.5738     0.0000   344.0000 </r>
       <r>    10.7801     0.0000   344.0000 </r>
       <r>    10.9864     0.0000   344.0000 </r>
       <r>    11.1927     0.0000   344.0000 </r>
       <r>    11.3990     0.0000   344.0000 </r>
       <r>    11.6053     0.0000   344.0000 </r>
       <r>    11.8116     0.0000   344.0000 </r>
       <r>    12.0179     0.0000   344.0000 </r>
      </set>
     </set>
    </array>
   </total>
  </dos>
 </calculation>
 <structure name="finalpos" >
  <crystal>
   <varray name="basis" >
    <v>       7.00832839       0.01873000      -0.03548136 </v>
    <v>       0.02800249      10.23783935      -0.01398510 </v>
    <v>      -0.05248836      -0.01397714      10.32166566 </v>
   </varray>
   <i name="volume">    740.55513527 </i>
   <varray name="rec_basis" >
    <v>       0.14269209      -0.00038930       0.00072510 </v>
    <v>      -0.00026038       0.09767775       0.00013095 </v>
    <v>       0.00049016       0.00013101       0.09688626 </v>
   </varray>
  </crystal>
  <varray name="positions" >
   <v>       0.96245018       0.32138115       0.67512279 </v>
   <v>       0.75433910       0.16197476       0.16294218 </v>
   <v>       0.01592327       0.99553967       0.67428849 </v>
   <v>       0.99485594       0.34263150       0.32025437 </v>
   <v>       0.22726278       0.49999723       0.51330672 </v>
   <v>       0.00143545       0.66476035       0.31542491 </v>
   <v>       0.46665920       0.98636499       0.01641453 </v>
   <v>       0.48759920       0.00230329       0.32958324 </v>
   <v>       0.53397759       0.33349181       0.65248216 </v>
   <v>       0.73363091       0.83831876       0.83841905 </v>
   <v>       0.01855965       0.68409565       0.68181333 </v>
   <v>       0.26851124       0.82681219       0.82463310 </v>
   <v>       0.50130327       0.34074509       0.00391212 </v>
   <v>       0.74778719       0.50462017       0.84533041 </v>
   <v>       0.23515800       0.17658592       0.16452183 </v>
   <v>       0.75155601       0.84448654       0.16218035 </v>
   <v>       0.99783469       0.33880079       0.00690540 </v>
   <v>       0.00551047       0.99290425       0.32765346 </v>
   <v>       0.26841944       0.49476948       0.14812087 </v>
   <v>       0.24552160       0.82697290       0.18469636 </v>
   <v>       0.24257402       0.83317707       0.49304085 </v>
   <v>       0.48290258       0.99316032       0.65651182 </v>
   <v>       0.73412693       0.49057890       0.14721826 </v>
   <v>       0.76338094       0.14515427       0.49101311 </v>
   <v>       0.50275457       0.66764320       0.00431639 </v>
   <v>       0.50390119       0.66300414       0.32722029 </v>
   <v>       0.72834030       0.15616029       0.84621462 </v>
   <v>       0.02361616       0.99769001       0.00223684 </v>
   <v>       0.23216635       0.16976337       0.50290099 </v>
   <v>       0.26846706       0.18031727       0.83179486 </v>
   <v>       0.00064877       0.66664454       0.00433686 </v>
   <v>       0.50392763       0.33303193       0.33427739 </v>
   <v>       0.78687351       0.52187893       0.51004677 </v>
   <v>       0.49553951       0.66963031       0.66453435 </v>
   <v>       0.75982932       0.84001164       0.50091564 </v>
   <v>       0.25265901       0.49460430       0.83542631 </v>
  </varray>
 </structure>
</modeling>
