<?xml version="1.0" encoding="ISO-8859-1"?>
<modeling>
 <generator>
  <i name="program" type="string">vasp </i>
  <i name="version" type="string">5.4.1  </i>
  <i name="subversion" type="string">05Feb16 (build Jan 29 2020 16:04:39) complex                          parallel </i>
  <i name="platform" type="string">IFC91_ompi </i>
  <i name="date" type="string">2020 06 15 </i>
  <i name="time" type="string">02:56:30 </i>
 </generator>
 <incar>
  <i type="string" name="SYSTEM"> automatically generated by mexm</i>
  <i type="int" name="ISTART">     0</i>
  <i type="string" name="PREC">accurate               ! avoid wrap aro</i>
  <i type="string" name="ALGO"> Fast                   ! blocked Davids</i>
  <i type="int" name="ISPIN">     1</i>
  <i type="int" name="ICHARG">     2</i>
  <i type="int" name="NELM">    70</i>
  <i type="int" name="IBRION">     2</i>
  <i name="EDIFF">      0.00001000</i>
  <i name="EDIFFG">     -0.01000000</i>
  <i type="int" name="NSW">   300</i>
  <i type="int" name="ISIF">     3</i>
  <i type="int" name="ISYM">     1</i>
  <i name="ENCUT">    300.00000000</i>
  <i name="POTIM">      0.15000000</i>
  <i type="string" name="LREAL"> Auto                  ! unpublished met</i>
  <i type="int" name="ISMEAR">     1</i>
  <i name="SIGMA">      0.15000000</i>
  <i type="logical" name="LWAVE"> F  </i>
  <i type="logical" name="LCHARG"> F  </i>
  <i type="logical" name="LVTOT"> F  </i>
  <v type="int" name="KPOINT_BSE">    -1     0     0     0</v>
  <i type="int" name="NELM">    70</i>
 </incar>
 <kpoints>
  <generation param="Gamma">
   <v type="int" name="divisions">       3        3        3 </v>
   <v name="usershift">      0.00000000       0.00000000       0.00000000 </v>
   <v name="genvec1">      0.33333333      -0.00000000       0.00000000 </v>
   <v name="genvec2">     -0.00000000       0.33333333      -0.00000000 </v>
   <v name="genvec3">      0.00000000       0.00000000       0.33333333 </v>
   <v name="shift">      0.00000000       0.00000000       0.00000000 </v>
  </generation>
  <varray name="kpointlist" >
   <v>       0.00000000       0.00000000       0.00000000 </v>
   <v>       0.33333333      -0.00000000       0.00000000 </v>
   <v>      -0.00000000       0.33333333       0.00000000 </v>
   <v>       0.33333333       0.33333333       0.00000000 </v>
   <v>      -0.33333333       0.33333333      -0.00000000 </v>
   <v>       0.00000000       0.00000000       0.33333333 </v>
   <v>       0.33333333      -0.00000000       0.33333333 </v>
   <v>      -0.33333333      -0.00000000       0.33333333 </v>
   <v>       0.00000000       0.33333333       0.33333333 </v>
   <v>       0.33333333       0.33333333       0.33333333 </v>
   <v>      -0.33333333       0.33333333       0.33333333 </v>
   <v>       0.00000000      -0.33333333       0.33333333 </v>
   <v>       0.33333333      -0.33333333       0.33333333 </v>
   <v>      -0.33333333      -0.33333333       0.33333333 </v>
  </varray>
  <varray name="weights" >
   <v>       0.03703704 </v>
   <v>       0.07407407 </v>
   <v>       0.07407407 </v>
   <v>       0.07407407 </v>
   <v>       0.07407407 </v>
   <v>       0.07407407 </v>
   <v>       0.07407407 </v>
   <v>       0.07407407 </v>
   <v>       0.07407407 </v>
   <v>       0.07407407 </v>
   <v>       0.07407407 </v>
   <v>       0.07407407 </v>
   <v>       0.07407407 </v>
   <v>       0.07407407 </v>
  </varray>
 </kpoints>
 <parameters>
  <separator name="general" >
   <i type="string" name="SYSTEM">automatically generated by mexm</i>
   <i type="logical" name="LCOMPAT"> F  </i>
  </separator>
  <separator name="electronic" >
   <i type="string" name="PREC">accura</i>
   <i name="ENMAX">    300.00000000</i>
   <i name="ENAUG">    461.25700000</i>
   <i name="EDIFF">      0.00001000</i>
   <i type="int" name="IALGO">    68</i>
   <i type="int" name="IWAVPR">    11</i>
   <i type="int" name="NBANDS">   176</i>
   <i name="NELECT">    293.00000000</i>
   <i type="int" name="TURBO">     0</i>
   <i type="int" name="IRESTART">     0</i>
   <i type="int" name="NREBOOT">     0</i>
   <i type="int" name="NMIN">     0</i>
   <i name="EREF">      0.00000000</i>
   <separator name="electronic smearing" >
    <i type="int" name="ISMEAR">     1</i>
    <i name="SIGMA">      0.15000000</i>
    <i name="KSPACING">      0.50000000</i>
    <i type="logical" name="KGAMMA"> T  </i>
   </separator>
   <separator name="electronic projectors" >
    <i type="logical" name="LREAL"> T  </i>
    <v name="ROPT">     -0.00025000     -0.00025000     -0.00025000     -0.00025000</v>
    <i type="int" name="LMAXPAW">  -100</i>
    <i type="int" name="LMAXMIX">     2</i>
    <i type="logical" name="NLSPLINE"> F  </i>
   </separator>
   <separator name="electronic startup" >
    <i type="int" name="ISTART">     0</i>
    <i type="int" name="ICHARG">     2</i>
    <i type="int" name="INIWAV">     1</i>
   </separator>
   <separator name="electronic spin" >
    <i type="int" name="ISPIN">     1</i>
    <i type="logical" name="LNONCOLLINEAR"> F  </i>
    <v name="MAGMOM">      1.00000000      1.00000000      1.00000000      1.00000000      1.00000000      1.00000000      1.00000000      1.00000000      1.00000000      1.00000000      1.00000000      1.00000000      1.00000000      1.00000000      1.00000000      1.00000000      1.00000000      1.00000000      1.00000000      1.00000000
      1.00000000      1.00000000      1.00000000      1.00000000      1.00000000      1.00000000      1.00000000      1.00000000      1.00000000      1.00000000      1.00000000      1.00000000      1.00000000      1.00000000      1.00000000      1.00000000</v>
    <i name="NUPDOWN">     -1.00000000</i>
    <i type="logical" name="LSORBIT"> F  </i>
    <v name="SAXIS">      0.00000000      0.00000000      1.00000000</v>
    <i type="logical" name="LSPIRAL"> F  </i>
    <v name="QSPIRAL">      0.00000000      0.00000000      0.00000000</v>
    <i type="logical" name="LZEROZ"> F  </i>
   </separator>
   <separator name="electronic exchange-correlation" >
    <i type="logical" name="LASPH"> F  </i>
    <i type="logical" name="LMETAGGA"> F  </i>
   </separator>
   <separator name="electronic convergence" >
    <i type="int" name="NELM">    70</i>
    <i type="int" name="NELMDL">    -5</i>
    <i type="int" name="NELMIN">     2</i>
    <i name="ENINI">    300.00000000</i>
    <separator name="electronic convergence detail" >
     <i type="logical" name="LDIAG"> T  </i>
     <i type="logical" name="LSUBROT"> F  </i>
     <i name="WEIMIN">      0.00100000</i>
     <i name="EBREAK">      0.00000001</i>
     <i name="DEPER">      0.30000000</i>
     <i type="int" name="NRMM">     4</i>
     <i name="TIME">      0.40000000</i>
    </separator>
   </separator>
   <separator name="electronic mixer" >
    <i name="AMIX">      0.40000000</i>
    <i name="BMIX">      1.00000000</i>
    <i name="AMIN">      0.10000000</i>
    <i name="AMIX_MAG">      1.60000000</i>
    <i name="BMIX_MAG">      1.00000000</i>
    <separator name="electronic mixer details" >
     <i type="int" name="IMIX">     4</i>
     <i type="logical" name="MIXFIRST"> F  </i>
     <i type="int" name="MAXMIX">   -45</i>
     <i name="WC">    100.00000000</i>
     <i type="int" name="INIMIX">     1</i>
     <i type="int" name="MIXPRE">     1</i>
     <i type="int" name="MREMOVE">     5</i>
    </separator>
   </separator>
   <separator name="electronic dipolcorrection" >
    <i type="logical" name="LDIPOL"> F  </i>
    <i type="logical" name="LMONO"> F  </i>
    <i type="int" name="IDIPOL">     0</i>
    <i name="EPSILON">      1.00000000</i>
    <v name="DIPOL">   -100.00000000   -100.00000000   -100.00000000</v>
    <i name="EFIELD">      0.00000000</i>
   </separator>
  </separator>
  <separator name="grids" >
   <i type="int" name="NGX">    40</i>
   <i type="int" name="NGY">    60</i>
   <i type="int" name="NGZ">    60</i>
   <i type="int" name="NGXF">    80</i>
   <i type="int" name="NGYF">   120</i>
   <i type="int" name="NGZF">   120</i>
   <i type="logical" name="ADDGRID"> F  </i>
  </separator>
  <separator name="ionic" >
   <i type="int" name="NSW">   300</i>
   <i type="int" name="IBRION">     2</i>
   <i type="int" name="ISIF">     3</i>
   <i name="PSTRESS">      0.00000000</i>
   <i name="EDIFFG">     -0.01000000</i>
   <i type="int" name="NFREE">     1</i>
   <i name="POTIM">      0.15000000</i>
   <i name="SMASS">     -3.00000000</i>
   <i name="SCALEE">      1.00000000</i>
  </separator>
  <separator name="ionic md" >
   <i name="TEBEG">      0.00010000</i>
   <i name="TEEND">      0.00010000</i>
   <i type="int" name="NBLOCK">     1</i>
   <i type="int" name="KBLOCK">   300</i>
   <i type="int" name="NPACO">   256</i>
   <i name="APACO">     16.00000000</i>
  </separator>
  <separator name="symmetry" >
   <i type="int" name="ISYM">     1</i>
   <i name="SYMPREC">      0.00001000</i>
  </separator>
  <separator name="dos" >
   <i type="logical" name="LORBIT"> F  </i>
   <v name="RWIGS">     -1.00000000     -1.00000000     -1.00000000     -1.00000000</v>
   <i type="int" name="NEDOS">   301</i>
   <i name="EMIN">     10.00000000</i>
   <i name="EMAX">    -10.00000000</i>
   <i name="EFERMI">      0.00000000</i>
  </separator>
  <separator name="writing" >
   <i type="int" name="NWRITE">     2</i>
   <i type="logical" name="LWAVE"> F  </i>
   <i type="logical" name="LCHARG"> F  </i>
   <i type="logical" name="LPARD"> F  </i>
   <i type="logical" name="LVTOT"> F  </i>
   <i type="logical" name="LVHAR"> F  </i>
   <i type="logical" name="LELF"> F  </i>
   <i type="logical" name="LOPTICS"> F  </i>
   <v name="STM">      0.00000000      0.00000000      0.00000000      0.00000000      0.00000000      0.00000000      0.00000000</v>
  </separator>
  <separator name="performance" >
   <i type="int" name="NPAR">     4</i>
   <i type="int" name="NSIM">     4</i>
   <i type="int" name="NBLK">    -1</i>
   <i type="logical" name="LPLANE"> T  </i>
   <i type="logical" name="LSCALAPACK"> T  </i>
   <i type="logical" name="LSCAAWARE"> F  </i>
   <i type="logical" name="LSCALU"> F  </i>
   <i type="logical" name="LASYNC"> F  </i>
   <i type="logical" name="LORBITALREAL"> F  </i>
  </separator>
  <separator name="miscellaneous" >
   <i type="int" name="IDIOT">     3</i>
   <i type="logical" name="LMUSIC"> F  </i>
   <v name="POMASS">    180.94800000     91.22400000     92.91000000    178.49000000</v>
   <v name="DARWINR">      0.00000000      0.00000000      0.00000000      0.00000000</v>
   <v name="DARWINV">      1.00000000      1.00000000      1.00000000      1.00000000</v>
   <i type="logical" name="LCORR"> T  </i>
  </separator>
  <i type="logical" name="GGA_COMPAT"> T  </i>
  <i type="logical" name="LBERRY"> F  </i>
  <i type="int" name="ICORELEVEL">     0</i>
  <i type="logical" name="LDAU"> F  </i>
  <i type="int" name="I_CONSTRAINED_M">     0</i>
  <separator name="electronic exchange-correlation" >
   <i type="string" name="GGA">--</i>
   <i type="int" name="VOSKOWN">     0</i>
   <i type="logical" name="LHFCALC"> F  </i>
   <i type="string" name="PRECFOCK"></i>
   <i type="logical" name="LSYMGRAD"> F  </i>
   <i type="logical" name="LHFONE"> F  </i>
   <i type="logical" name="LRHFCALC"> F  </i>
   <i type="logical" name="LTHOMAS"> F  </i>
   <i type="logical" name="LMODELHF"> F  </i>
   <i name="ENCUT4O">     -1.00000000</i>
   <i type="int" name="EXXOEP">     0</i>
   <i type="int" name="FOURORBIT">     0</i>
   <i name="AEXX">      0.00000000</i>
   <i name="HFALPHA">      0.00000000</i>
   <i name="MCALPHA">      0.00000000</i>
   <i name="ALDAX">      1.00000000</i>
   <i name="AGGAX">      1.00000000</i>
   <i name="ALDAC">      1.00000000</i>
   <i name="AGGAC">      1.00000000</i>
   <i type="int" name="NKREDX">     1</i>
   <i type="int" name="NKREDY">     1</i>
   <i type="int" name="NKREDZ">     1</i>
   <i type="logical" name="SHIFTRED"> F  </i>
   <i type="logical" name="ODDONLY"> F  </i>
   <i type="logical" name="EVENONLY"> F  </i>
   <i type="int" name="LMAXFOCK">     0</i>
   <i type="int" name="NMAXFOCKAE">     0</i>
   <i type="logical" name="LFOCKAEDFT"> F  </i>
   <i name="HFSCREEN">      0.00000000</i>
   <i name="HFSCREENC">      0.00000000</i>
   <i type="int" name="NBANDSGWLOW">     0</i>
  </separator>
  <separator name="vdW DFT" >
   <i type="logical" name="LUSE_VDW"> F  </i>
   <i name="Zab_VDW">     -0.84910000</i>
   <i name="PARAM1">      0.12340000</i>
   <i name="PARAM2">      1.00000000</i>
   <i name="PARAM3">      0.00000000</i>
  </separator>
  <separator name="model GW" >
   <i type="int" name="MODEL_GW">     0</i>
   <i name="MODEL_EPS0">     11.86222246</i>
   <i name="MODEL_ALPHA">      1.00000000</i>
  </separator>
  <separator name="linear response parameters" >
   <i type="logical" name="LEPSILON"> F  </i>
   <i type="logical" name="LRPA"> F  </i>
   <i type="logical" name="LNABLA"> F  </i>
   <i type="logical" name="LVEL"> F  </i>
   <i type="int" name="KINTER">     0</i>
   <i name="CSHIFT">      0.10000000</i>
   <i name="OMEGAMAX">     -1.00000000</i>
   <i name="DEG_THRESHOLD">      0.00200000</i>
  </separator>
  <separator name="orbital magnetization" >
   <i type="logical" name="NUCIND"> F  </i>
   <v name="MAGPOS">      0.00000000      0.00000000      0.00000000</v>
   <i type="logical" name="LNICSALL"> T  </i>
   <i type="logical" name="ORBITALMAG"> F  </i>
   <i type="logical" name="LMAGBLOCH"> F  </i>
   <i type="logical" name="LCHIMAG"> F  </i>
   <i type="logical" name="LGAUGE"> T  </i>
   <i type="int" name="MAGATOM">     0</i>
   <v name="MAGDIPOL">      0.00000000      0.00000000      0.00000000</v>
   <v name="AVECCONST">      0.00000000      0.00000000      0.00000000</v>
  </separator>
  <separator name="response functions" >
   <i type="logical" name="LADDER"> F  </i>
   <i type="logical" name="LFXC"> F  </i>
   <i type="logical" name="LHARTREE"> T  </i>
   <i type="int" name="IBSE">     0</i>
   <v type="int" name="KPOINT">    -1     0     0     0</v>
   <i type="logical" name="LTCTE"> F  </i>
   <i type="logical" name="LTETE"> F  </i>
   <i type="logical" name="LTRIPLET"> F  </i>
   <i type="logical" name="LFXCEPS"> F  </i>
   <i type="logical" name="LFXHEG"> F  </i>
   <i type="int" name="NATURALO">     0</i>
   <i type="logical" name="L2ORDER"> F  </i>
   <i type="logical" name="LUSEW"> F  </i>
   <i name="ENCUTGW">     -2.00000000</i>
   <i name="ENCUTGWSOFT">     -2.00000000</i>
   <i name="ENCUTLF">     -1.00000000</i>
   <i type="int" name="LMAXMP2">    -1</i>
   <i name="SCISSOR">      0.00000000</i>
   <i type="int" name="NOMEGA">     0</i>
   <i type="int" name="NOMEGAR">     0</i>
   <i type="int" name="NBANDSGW">    -1</i>
   <i type="int" name="NBANDSO">    -1</i>
   <i type="int" name="NBANDSV">    -1</i>
   <i type="int" name="NELM">    70</i>
   <i type="int" name="NELMHF">     1</i>
   <i type="int" name="DIM">     3</i>
   <i type="int" name="ANTIRES">     0</i>
   <i name="OMEGAMAX">    -30.00000000</i>
   <i name="OMEGAMIN">    -30.00000000</i>
   <i name="OMEGATL">   -200.00000000</i>
   <i type="int" name="OMEGAGRID">     0</i>
   <i name="CSHIFT">     -0.10000000</i>
   <i type="logical" name="SELFENERGY"> F  </i>
   <i type="logical" name="LSPECTRAL"> F  </i>
   <i type="logical" name="LSPECTRALGW"> F  </i>
   <i type="logical" name="LSINGLES"> F  </i>
   <i type="logical" name="LFERMIGW"> F  </i>
   <i type="logical" name="ODDONLYGW"> F  </i>
   <i type="logical" name="EVENONLYGW"> F  </i>
   <i type="int" name="NKREDLFX">     1</i>
   <i type="int" name="NKREDLFY">     1</i>
   <i type="int" name="NKREDLFZ">     1</i>
   <i type="int" name="MAXMEM">  1800</i>
   <i type="int" name="TELESCOPE">     0</i>
   <i type="int" name="TAUPAR">     1</i>
   <i type="int" name="OMEGAPAR">    -1</i>
   <i name="LAMBDA">      1.00000000</i>
  </separator>
  <separator name="External order field" >
   <i name="OFIELD_KAPPA">      0.00000000</i>
   <v name="OFIELD_K">      0.00000000      0.00000000      0.00000000</v>
   <i name="OFIELD_Q6_NEAR">      0.00000000</i>
   <i name="OFIELD_Q6_FAR">      0.00000000</i>
   <i name="OFIELD_A">      0.00000000</i>
  </separator>
 </parameters>
 <atominfo>
  <atoms>      36 </atoms>
  <types>       4 </types>
  <array name="atoms" >
   <dimension dim="1">ion</dimension>
   <field type="string">element</field>
   <field type="int">atomtype</field>
   <set>
    <rc><c>Ta</c><c>   1</c></rc>
    <rc><c>Ta</c><c>   1</c></rc>
    <rc><c>Ta</c><c>   1</c></rc>
    <rc><c>Ta</c><c>   1</c></rc>
    <rc><c>Ta</c><c>   1</c></rc>
    <rc><c>Ta</c><c>   1</c></rc>
    <rc><c>Ta</c><c>   1</c></rc>
    <rc><c>Ta</c><c>   1</c></rc>
    <rc><c>Ta</c><c>   1</c></rc>
    <rc><c>Ta</c><c>   1</c></rc>
    <rc><c>Ta</c><c>   1</c></rc>
    <rc><c>Zr</c><c>   2</c></rc>
    <rc><c>Zr</c><c>   2</c></rc>
    <rc><c>Zr</c><c>   2</c></rc>
    <rc><c>Zr</c><c>   2</c></rc>
    <rc><c>Zr</c><c>   2</c></rc>
    <rc><c>Zr</c><c>   2</c></rc>
    <rc><c>Nb</c><c>   3</c></rc>
    <rc><c>Nb</c><c>   3</c></rc>
    <rc><c>Nb</c><c>   3</c></rc>
    <rc><c>Nb</c><c>   3</c></rc>
    <rc><c>Nb</c><c>   3</c></rc>
    <rc><c>Nb</c><c>   3</c></rc>
    <rc><c>Nb</c><c>   3</c></rc>
    <rc><c>Nb</c><c>   3</c></rc>
    <rc><c>Nb</c><c>   3</c></rc>
    <rc><c>Nb</c><c>   3</c></rc>
    <rc><c>Hf</c><c>   4</c></rc>
    <rc><c>Hf</c><c>   4</c></rc>
    <rc><c>Hf</c><c>   4</c></rc>
    <rc><c>Hf</c><c>   4</c></rc>
    <rc><c>Hf</c><c>   4</c></rc>
    <rc><c>Hf</c><c>   4</c></rc>
    <rc><c>Hf</c><c>   4</c></rc>
    <rc><c>Hf</c><c>   4</c></rc>
    <rc><c>Hf</c><c>   4</c></rc>
   </set>
  </array>
  <array name="atomtypes" >
   <dimension dim="1">type</dimension>
   <field type="int">atomspertype</field>
   <field type="string">element</field>
   <field>mass</field>
   <field>valence</field>
   <field type="string">pseudopotential</field>
   <set>
    <rc><c>  11</c><c>Ta</c><c>    180.94800000</c><c>      5.00000000</c><c>  PAW_PBE Ta 17Jan2003                  </c></rc>
    <rc><c>   6</c><c>Zr</c><c>     91.22400000</c><c>     12.00000000</c><c>  PAW_PBE Zr_sv 04Jan2005               </c></rc>
    <rc><c>  10</c><c>Nb</c><c>     92.91000000</c><c>     13.00000000</c><c>  PAW_PBE Nb_sv 25May2007               </c></rc>
    <rc><c>   9</c><c>Hf</c><c>    178.49000000</c><c>      4.00000000</c><c>  PAW_PBE Hf 20Jan2003                  </c></rc>
   </set>
  </array>
 </atominfo>
 <structure name="initialpos" >
  <crystal>
   <varray name="basis" >
    <v>       6.83170005       0.00767701      -0.00272362 </v>
    <v>       0.01163274      10.19911858      -0.02795449 </v>
    <v>      -0.00393578      -0.02770009      10.21479684 </v>
   </varray>
   <i name="volume">    711.73334734 </i>
   <varray name="rec_basis" >
    <v>       0.14637666      -0.00016680       0.00005595 </v>
    <v>      -0.00011007       0.09804854       0.00026584 </v>
    <v>       0.00003873       0.00026828       0.09789794 </v>
   </varray>
  </crystal>
  <varray name="positions" >
   <v>       0.22930300       0.49582200       0.18061700 </v>
   <v>       0.99422100       0.33283000       0.34870100 </v>
   <v>       0.24399300       0.50878300       0.49596400 </v>
   <v>       0.24272300       0.51929000       0.82241700 </v>
   <v>       0.01576400       0.67692500       0.00428900 </v>
   <v>       0.22736700       0.84024600       0.18245900 </v>
   <v>       0.50191600       0.33774400       0.33857700 </v>
   <v>       0.75217600       0.50664000       0.49618400 </v>
   <v>       0.77049500       0.83490000       0.17658100 </v>
   <v>       0.99754300       0.98324700       0.01018700 </v>
   <v>       0.75490400       0.16900800       0.17006300 </v>
   <v>       0.25143200       0.14256900       0.82898300 </v>
   <v>       0.03535500       0.33618500       0.98939300 </v>
   <v>       0.50204800       0.98613900       0.01543500 </v>
   <v>       0.49725300       0.33468400       0.65994500 </v>
   <v>       0.48869800       0.66931000       0.00852100 </v>
   <v>       0.75317700       0.83238200       0.82335200 </v>
   <v>       0.50659900       0.00224700       0.32982400 </v>
   <v>       0.98845000       0.00650400       0.33291100 </v>
   <v>       0.25179700       0.16196700       0.48873700 </v>
   <v>       0.99933900       0.01246100       0.65785600 </v>
   <v>       0.00007000       0.66393300       0.33196300 </v>
   <v>       0.00905900       0.66050900       0.66726600 </v>
   <v>       0.24461100       0.83178000       0.82202200 </v>
   <v>       0.74492900       0.16256400       0.48997300 </v>
   <v>       0.49990600       0.00821400       0.65347200 </v>
   <v>       0.48947900       0.65739400       0.66362500 </v>
   <v>       0.48075300       0.33964400       0.00245500 </v>
   <v>       0.24277200       0.16588900       0.17865800 </v>
   <v>       0.00276700       0.33102000       0.65506800 </v>
   <v>       0.24576200       0.83529500       0.50143700 </v>
   <v>       0.75437500       0.15821400       0.84082900 </v>
   <v>       0.76099300       0.50852000       0.83585900 </v>
   <v>       0.49726700       0.66335500       0.32609300 </v>
   <v>       0.77078900       0.49191800       0.16578800 </v>
   <v>       0.75191400       0.83186800       0.50449900 </v>
  </varray>
 </structure>
 <calculation>
  <scstep>
   <time name="dav">    1.20    1.24</time>
   <time name="total">    1.64    1.99</time>
   <energy>
    <i name="alphaZ">   1553.54846260 </i>
    <i name="ewald"> -18905.62432505 </i>
    <i name="hartreedc">  -7436.29673973 </i>
    <i name="XCdc">   -343.00535148 </i>
    <i name="pawpsdc">  21556.35635867 </i>
    <i name="pawaedc"> -19908.91531546 </i>
    <i name="eentropy">     -0.00021616 </i>
    <i name="bandstr">    -49.34228772 </i>
    <i name="atom">  25376.36928711 </i>
    <i name="e_fr_energy">   1843.08987278 </i>
    <i name="e_wo_entrp">   1843.09008894 </i>
    <i name="e_0_energy">   1843.08994484 </i>
   </energy>
  </scstep>
  <scstep>
   <time name="dav">    1.15    1.16</time>
   <time name="total">    1.15    1.31</time>
   <energy>
    <i name="e_fr_energy">   -109.39845999 </i>
    <i name="e_wo_entrp">   -109.38902592 </i>
    <i name="e_0_energy">   -109.39531530 </i>
   </energy>
  </scstep>
  <scstep>
   <time name="dav">    1.61    1.63</time>
   <time name="total">    1.61    1.65</time>
   <energy>
    <i name="e_fr_energy">   -353.93087556 </i>
    <i name="e_wo_entrp">   -353.92703546 </i>
    <i name="e_0_energy">   -353.92959553 </i>
   </energy>
  </scstep>
  <scstep>
   <time name="dav">    1.51    1.59</time>
   <time name="total">    1.52    1.62</time>
   <energy>
    <i name="e_fr_energy">   -382.48257439 </i>
    <i name="e_wo_entrp">   -382.49450601 </i>
    <i name="e_0_energy">   -382.48655160 </i>
   </energy>
  </scstep>
  <scstep>
   <time name="dav">    1.71    1.72</time>
   <time name="total">    1.75    1.78</time>
   <energy>
    <i name="e_fr_energy">   -385.25794568 </i>
    <i name="e_wo_entrp">   -385.27161865 </i>
    <i name="e_0_energy">   -385.26250334 </i>
   </energy>
  </scstep>
  <scstep>
   <time name="diag">    0.08    0.08</time>
   <time name="diis">    0.91    0.92</time>
   <time name="orth">    0.01    0.01</time>
   <time name="total">    1.08    1.12</time>
   <energy>
    <i name="e_fr_energy">   -374.76268131 </i>
    <i name="e_wo_entrp">   -374.77658037 </i>
    <i name="e_0_energy">   -374.76731433 </i>
   </energy>
  </scstep>
  <scstep>
   <time name="diag">    0.08    0.08</time>
   <time name="diis">    0.80    0.81</time>
   <time name="orth">    0.02    0.02</time>
   <time name="total">    1.00    1.04</time>
   <energy>
    <i name="e_fr_energy">   -376.68959935 </i>
    <i name="e_wo_entrp">   -376.68578798 </i>
    <i name="e_0_energy">   -376.68832889 </i>
   </energy>
  </scstep>
  <scstep>
   <time name="diag">    0.14    0.14</time>
   <time name="diis">    1.05    1.06</time>
   <time name="orth">    0.01    0.01</time>
   <time name="total">    1.29    1.34</time>
   <energy>
    <i name="e_fr_energy">   -370.38083453 </i>
    <i name="e_wo_entrp">   -370.40031242 </i>
    <i name="e_0_energy">   -370.38732716 </i>
   </energy>
  </scstep>
  <scstep>
   <time name="diag">    0.15    0.15</time>
   <time name="diis">    0.89    0.90</time>
   <time name="orth">    0.02    0.02</time>
   <time name="total">    1.13    1.16</time>
   <energy>
    <i name="e_fr_energy">   -370.20359952 </i>
    <i name="e_wo_entrp">   -370.21768899 </i>
    <i name="e_0_energy">   -370.20829601 </i>
   </energy>
  </scstep>
  <scstep>
   <time name="diag">    0.09    0.09</time>
   <time name="diis">    1.36    1.36</time>
   <time name="orth">    0.05    0.05</time>
   <time name="total">    1.57    1.61</time>
   <energy>
    <i name="e_fr_energy">   -370.14297115 </i>
    <i name="e_wo_entrp">   -370.16005968 </i>
    <i name="e_0_energy">   -370.14866732 </i>
   </energy>
  </scstep>
  <scstep>
   <time name="diag">    0.09    0.09</time>
   <time name="diis">    0.70    0.84</time>
   <time name="orth">    0.01    0.01</time>
   <time name="total">    0.88    1.07</time>
   <energy>
    <i name="e_fr_energy">   -370.10689446 </i>
    <i name="e_wo_entrp">   -370.12297639 </i>
    <i name="e_0_energy">   -370.11225511 </i>
   </energy>
  </scstep>
  <scstep>
   <time name="diag">    0.11    0.11</time>
   <time name="diis">    0.87    0.87</time>
   <time name="orth">    0.01    0.01</time>
   <time name="total">    1.05    1.08</time>
   <energy>
    <i name="e_fr_energy">   -370.10002838 </i>
    <i name="e_wo_entrp">   -370.11581590 </i>
    <i name="e_0_energy">   -370.10529089 </i>
   </energy>
  </scstep>
  <scstep>
   <time name="diag">    0.08    0.08</time>
   <time name="diis">    0.88    0.88</time>
   <time name="orth">    0.01    0.01</time>
   <time name="total">    1.03    1.09</time>
   <energy>
    <i name="e_fr_energy">   -370.09938681 </i>
    <i name="e_wo_entrp">   -370.11579354 </i>
    <i name="e_0_energy">   -370.10485572 </i>
   </energy>
  </scstep>
  <scstep>
   <time name="diag">    0.07    0.07</time>
   <time name="diis">    0.81    0.81</time>
   <time name="orth">    0.01    0.01</time>
   <time name="total">    0.96    0.99</time>
   <energy>
    <i name="e_fr_energy">   -370.09920294 </i>
    <i name="e_wo_entrp">   -370.11518299 </i>
    <i name="e_0_energy">   -370.10452962 </i>
   </energy>
  </scstep>
  <scstep>
   <time name="diag">    0.08    0.08</time>
   <time name="diis">    0.79    0.80</time>
   <time name="orth">    0.01    0.01</time>
   <time name="total">    0.96    1.01</time>
   <energy>
    <i name="e_fr_energy">   -370.09921097 </i>
    <i name="e_wo_entrp">   -370.11540616 </i>
    <i name="e_0_energy">   -370.10460937 </i>
   </energy>
  </scstep>
  <scstep>
   <time name="diag">    0.08    0.08</time>
   <time name="diis">    0.76    0.77</time>
   <time name="orth">    0.01    0.01</time>
   <time name="total">    0.92    0.95</time>
   <energy>
    <i name="e_fr_energy">   -370.09925563 </i>
    <i name="e_wo_entrp">   -370.11531086 </i>
    <i name="e_0_energy">   -370.10460737 </i>
   </energy>
  </scstep>
  <scstep>
   <time name="diag">    0.07    0.07</time>
   <time name="diis">    0.68    0.69</time>
   <time name="orth">    0.01    0.01</time>
   <time name="total">    0.84    0.87</time>
   <energy>
    <i name="e_fr_energy">   -370.09925581 </i>
    <i name="e_wo_entrp">   -370.11541385 </i>
    <i name="e_0_energy">   -370.10464182 </i>
   </energy>
  </scstep>
  <scstep>
   <time name="diag">    0.08    0.08</time>
   <time name="diis">    0.71    0.72</time>
   <time name="orth">    0.01    0.01</time>
   <time name="total">    0.87    0.90</time>
   <energy>
    <i name="e_fr_energy">   -370.09926359 </i>
    <i name="e_wo_entrp">   -370.11537324 </i>
    <i name="e_0_energy">   -370.10463347 </i>
   </energy>
  </scstep>
  <scstep>
   <time name="diag">    0.12    0.12</time>
   <time name="diis">    0.56    0.57</time>
   <time name="orth">    0.01    0.01</time>
   <time name="total">    0.77    0.80</time>
   <energy>
    <i name="e_fr_energy">   -370.09927337 </i>
    <i name="e_wo_entrp">   -370.11541291 </i>
    <i name="e_0_energy">   -370.10465322 </i>
   </energy>
  </scstep>
  <scstep>
   <time name="diag">    0.08    0.08</time>
   <time name="diis">    0.41    0.41</time>
   <time name="orth">    0.01    0.01</time>
   <time name="total">    0.66    0.71</time>
   <energy>
    <i name="alphaZ">   1553.54846260 </i>
    <i name="ewald"> -18905.62432505 </i>
    <i name="hartreedc">  -7209.47440977 </i>
    <i name="XCdc">   -342.07668106 </i>
    <i name="pawpsdc">  33799.51893221 </i>
    <i name="pawaedc"> -32132.29655813 </i>
    <i name="eentropy">      0.01613141 </i>
    <i name="bandstr">  -2510.08011286 </i>
    <i name="atom">  25376.36928711 </i>
    <i name="e_fr_energy">   -370.09927356 </i>
    <i name="e_wo_entrp">   -370.11540496 </i>
    <i name="e_0_energy">   -370.10465069 </i>
   </energy>
  </scstep>
  <structure>
   <crystal>
    <varray name="basis" >
     <v>       6.83170005       0.00767701      -0.00272362 </v>
     <v>       0.01163274      10.19911858      -0.02795449 </v>
     <v>      -0.00393578      -0.02770009      10.21479684 </v>
    </varray>
    <i name="volume">    711.73334734 </i>
    <varray name="rec_basis" >
     <v>       0.14637666      -0.00016680       0.00005595 </v>
     <v>      -0.00011007       0.09804854       0.00026584 </v>
     <v>       0.00003873       0.00026828       0.09789794 </v>
    </varray>
   </crystal>
   <varray name="positions" >
    <v>       0.22930300       0.49582200       0.18061700 </v>
    <v>       0.99422100       0.33283000       0.34870100 </v>
    <v>       0.24399300       0.50878300       0.49596400 </v>
    <v>       0.24272300       0.51929000       0.82241700 </v>
    <v>       0.01576400       0.67692500       0.00428900 </v>
    <v>       0.22736700       0.84024600       0.18245900 </v>
    <v>       0.50191600       0.33774400       0.33857700 </v>
    <v>       0.75217600       0.50664000       0.49618400 </v>
    <v>       0.77049500       0.83490000       0.17658100 </v>
    <v>       0.99754300       0.98324700       0.01018700 </v>
    <v>       0.75490400       0.16900800       0.17006300 </v>
    <v>       0.25143200       0.14256900       0.82898300 </v>
    <v>       0.03535500       0.33618500       0.98939300 </v>
    <v>       0.50204800       0.98613900       0.01543500 </v>
    <v>       0.49725300       0.33468400       0.65994500 </v>
    <v>       0.48869800       0.66931000       0.00852100 </v>
    <v>       0.75317700       0.83238200       0.82335200 </v>
    <v>       0.50659900       0.00224700       0.32982400 </v>
    <v>       0.98845000       0.00650400       0.33291100 </v>
    <v>       0.25179700       0.16196700       0.48873700 </v>
    <v>       0.99933900       0.01246100       0.65785600 </v>
    <v>       0.00007000       0.66393300       0.33196300 </v>
    <v>       0.00905900       0.66050900       0.66726600 </v>
    <v>       0.24461100       0.83178000       0.82202200 </v>
    <v>       0.74492900       0.16256400       0.48997300 </v>
    <v>       0.49990600       0.00821400       0.65347200 </v>
    <v>       0.48947900       0.65739400       0.66362500 </v>
    <v>       0.48075300       0.33964400       0.00245500 </v>
    <v>       0.24277200       0.16588900       0.17865800 </v>
    <v>       0.00276700       0.33102000       0.65506800 </v>
    <v>       0.24576200       0.83529500       0.50143700 </v>
    <v>       0.75437500       0.15821400       0.84082900 </v>
    <v>       0.76099300       0.50852000       0.83585900 </v>
    <v>       0.49726700       0.66335500       0.32609300 </v>
    <v>       0.77078900       0.49191800       0.16578800 </v>
    <v>       0.75191400       0.83186800       0.50449900 </v>
   </varray>
  </structure>
  <varray name="forces" >
   <v>      -0.00887754      -0.01559852      -0.01112144 </v>
   <v>       0.00171146      -0.01138900      -0.00239259 </v>
   <v>       0.00074150      -0.01929213       0.00996170 </v>
   <v>       0.00102703      -0.00327143      -0.00672095 </v>
   <v>       0.00063135       0.01078612      -0.00381071 </v>
   <v>       0.00502615      -0.00582515      -0.02965737 </v>
   <v>       0.00082071      -0.00265985       0.00231460 </v>
   <v>      -0.00141768       0.11412432       0.00871853 </v>
   <v>      -0.01285732      -0.00772154       0.10379622 </v>
   <v>       0.01613304       0.00123563      -0.00005859 </v>
   <v>      -0.00302525       0.01095877      -0.00761675 </v>
   <v>       0.01220010       0.00179270       0.01198055 </v>
   <v>      -0.01401440       0.00702870       0.00538311 </v>
   <v>      -0.01302060       0.00079866       0.00721143 </v>
   <v>       0.00761918      -0.00424967      -0.01718473 </v>
   <v>      -0.00658332       0.00767194      -0.00442089 </v>
   <v>       0.00417199      -0.01506566      -0.08606424 </v>
   <v>       0.02491692      -0.02493611       0.01812696 </v>
   <v>      -0.02067238      -0.02097627       0.01987271 </v>
   <v>      -0.00542332       0.00775480      -0.00488194 </v>
   <v>      -0.01815601      -0.02494846      -0.01994402 </v>
   <v>      -0.00891385       0.02408928       0.01602689 </v>
   <v>      -0.02062395       0.02897890      -0.00477444 </v>
   <v>      -0.00966593      -0.01189738       0.02187384 </v>
   <v>       0.00038485      -0.08186778       0.01479552 </v>
   <v>       0.00840716      -0.01196541       0.00369965 </v>
   <v>       0.02799784       0.02964870      -0.00522208 </v>
   <v>       0.00642319       0.00524375       0.00565367 </v>
   <v>       0.00544876       0.00012375      -0.01006426 </v>
   <v>      -0.01437098      -0.00705445      -0.01092525 </v>
   <v>      -0.01592771       0.00022843       0.01230963 </v>
   <v>      -0.00202562       0.01189174       0.00349989 </v>
   <v>      -0.00059158      -0.00140172      -0.00106240 </v>
   <v>       0.01733455       0.02228574       0.01072450 </v>
   <v>       0.00408405      -0.00705767      -0.00581335 </v>
   <v>       0.03108761      -0.00746374      -0.04421339 </v>
  </varray>
  <varray name="stress" >
   <v>      -1.32582201      -0.00257991      -0.02494769 </v>
   <v>      -0.00257991      -2.00742176       0.06147197 </v>
   <v>      -0.02494766       0.06147200      -1.28803643 </v>
  </varray>
  <energy>
   <i name="e_fr_energy">   -370.09927356 </i>
   <i name="e_wo_entrp">   -370.10465069 </i>
   <i name="e_0_energy">      0.01613141 </i>
  </energy>
  <time name="totalsc">   24.32   25.80</time>
 </calculation>
 <calculation>
  <scstep>
   <time name="dav">    1.14    1.15</time>
   <time name="total">    1.22    1.35</time>
   <energy>
    <i name="alphaZ">   1554.83134134 </i>
    <i name="ewald"> -18909.88537660 </i>
    <i name="hartreedc">  -7212.40483535 </i>
    <i name="XCdc">   -341.83988082 </i>
    <i name="pawpsdc">  33799.45995645 </i>
    <i name="pawaedc"> -32132.23718428 </i>
    <i name="eentropy">      0.01598013 </i>
    <i name="bandstr">  -2504.41107495 </i>
    <i name="atom">  25376.36928711 </i>
    <i name="e_fr_energy">   -370.10178696 </i>
    <i name="e_wo_entrp">   -370.11776709 </i>
    <i name="e_0_energy">   -370.10711367 </i>
   </energy>
  </scstep>
  <scstep>
   <time name="diag">    0.07    0.07</time>
   <time name="diis">    0.86    0.86</time>
   <time name="orth">    0.01    0.01</time>
   <time name="total">    1.01    1.04</time>
   <energy>
    <i name="e_fr_energy">   -370.10128769 </i>
    <i name="e_wo_entrp">   -370.11763321 </i>
    <i name="e_0_energy">   -370.10673619 </i>
   </energy>
  </scstep>
  <scstep>
   <time name="diag">    0.07    0.07</time>
   <time name="diis">    0.81    0.81</time>
   <time name="orth">    0.01    0.01</time>
   <time name="total">    0.96    0.99</time>
   <energy>
    <i name="e_fr_energy">   -370.10066211 </i>
    <i name="e_wo_entrp">   -370.11645273 </i>
    <i name="e_0_energy">   -370.10592565 </i>
   </energy>
  </scstep>
  <scstep>
   <time name="diag">    0.07    0.07</time>
   <time name="diis">    0.80    0.80</time>
   <time name="orth">    0.01    0.01</time>
   <time name="total">    0.95    0.98</time>
   <energy>
    <i name="e_fr_energy">   -370.10042762 </i>
    <i name="e_wo_entrp">   -370.11652754 </i>
    <i name="e_0_energy">   -370.10579426 </i>
   </energy>
  </scstep>
  <scstep>
   <time name="diag">    0.08    0.08</time>
   <time name="diis">    0.71    0.72</time>
   <time name="orth">    0.01    0.01</time>
   <time name="total">    0.87    0.90</time>
   <energy>
    <i name="e_fr_energy">   -370.10039974 </i>
    <i name="e_wo_entrp">   -370.11639698 </i>
    <i name="e_0_energy">   -370.10573215 </i>
   </energy>
  </scstep>
  <scstep>
   <time name="diag">    0.07    0.07</time>
   <time name="diis">    0.51    0.52</time>
   <time name="orth">    0.01    0.01</time>
   <time name="total">    0.64    0.67</time>
   <energy>
    <i name="alphaZ">   1554.83134134 </i>
    <i name="ewald"> -18909.88537660 </i>
    <i name="hartreedc">  -7208.85605968 </i>
    <i name="XCdc">   -341.99015104 </i>
    <i name="pawpsdc">  33837.30634536 </i>
    <i name="pawaedc"> -32170.22616751 </i>
    <i name="eentropy">      0.01604066 </i>
    <i name="bandstr">  -2507.66566858 </i>
    <i name="atom">  25376.36928711 </i>
    <i name="e_fr_energy">   -370.10040893 </i>
    <i name="e_wo_entrp">   -370.11644959 </i>
    <i name="e_0_energy">   -370.10575582 </i>
   </energy>
  </scstep>
  <structure>
   <crystal>
    <varray name="basis" >
     <v>       6.83008246       0.00767108      -0.00275334 </v>
     <v>       0.01162541      10.19546183      -0.02783614 </v>
     <v>      -0.00398034      -0.02757801      10.21244684 </v>
    </varray>
    <i name="volume">    711.14610192 </i>
    <varray name="rec_basis" >
     <v>       0.14641133      -0.00016679       0.00005661 </v>
     <v>      -0.00011005       0.09808370       0.00026483 </v>
     <v>       0.00003917       0.00026730       0.09792046 </v>
    </varray>
   </crystal>
   <varray name="positions" >
    <v>       0.22928422       0.49579984       0.18060118 </v>
    <v>       0.99422465       0.33281383       0.34869757 </v>
    <v>       0.24399463       0.50875566       0.49597804 </v>
    <v>       0.24272518       0.51928533       0.82240747 </v>
    <v>       0.01576531       0.67694029       0.00428364 </v>
    <v>       0.22737764       0.84023761       0.18241696 </v>
    <v>       0.50191775       0.33774023       0.33858027 </v>
    <v>       0.75217273       0.50680198       0.49619680 </v>
    <v>       0.77046786       0.83488946       0.17672803 </v>
    <v>       0.99757717       0.98324873       0.01018693 </v>
    <v>       0.75489756       0.16902353       0.17005225 </v>
    <v>       0.25145785       0.14257157       0.82899999 </v>
    <v>       0.03532530       0.33619502       0.98940065 </v>
    <v>       0.50202042       0.98614018       0.01544521 </v>
    <v>       0.49726914       0.33467789       0.65992064 </v>
    <v>       0.48868403       0.66932088       0.00851476 </v>
    <v>       0.75318580       0.83236028       0.82323000 </v>
    <v>       0.50665186       0.00221164       0.32984960 </v>
    <v>       0.98840627       0.00647434       0.33293906 </v>
    <v>       0.25178549       0.16197799       0.48873011 </v>
    <v>       0.99930058       0.01242555       0.65782764 </v>
    <v>       0.00005107       0.66396726       0.33198580 </v>
    <v>       0.00901523       0.66055014       0.66725934 </v>
    <v>       0.24459057       0.83176322       0.82205294 </v>
    <v>       0.74493002       0.16244788       0.48999365 </v>
    <v>       0.49992384       0.00819702       0.65347720 </v>
    <v>       0.48953824       0.65743601       0.66361773 </v>
    <v>       0.48076660       0.33965145       0.00246303 </v>
    <v>       0.24278353       0.16588913       0.17864374 </v>
    <v>       0.00273656       0.33100997       0.65505249 </v>
    <v>       0.24572827       0.83529540       0.50145443 </v>
    <v>       0.75437068       0.15823089       0.84083400 </v>
    <v>       0.76099175       0.50851801       0.83585749 </v>
    <v>       0.49730368       0.66338664       0.32610829 </v>
    <v>       0.77079766       0.49190796       0.16577974 </v>
    <v>       0.75197984       0.83185719       0.50443634 </v>
   </varray>
  </structure>
  <varray name="forces" >
   <v>      -0.00541003      -0.01249239      -0.00997693 </v>
   <v>      -0.00012316      -0.01027020      -0.00279406 </v>
   <v>       0.00195420      -0.01804876       0.00906614 </v>
   <v>       0.00302027      -0.00762534      -0.00596133 </v>
   <v>      -0.00261540       0.00815685      -0.00413330 </v>
   <v>       0.00763153      -0.00648984      -0.02711809 </v>
   <v>       0.00058928      -0.00259050       0.00140616 </v>
   <v>      -0.00115362       0.10283545       0.01133233 </v>
   <v>      -0.01540489      -0.00622418       0.09423411 </v>
   <v>       0.01278576       0.00317821      -0.00330493 </v>
   <v>      -0.00349780       0.01168788      -0.01006216 </v>
   <v>       0.01262217       0.00548617       0.01076103 </v>
   <v>      -0.01419148       0.00352912       0.00358281 </v>
   <v>      -0.01038941       0.00080402       0.00241145 </v>
   <v>       0.00819210      -0.00494662      -0.01496204 </v>
   <v>      -0.00388765       0.00635993      -0.00534343 </v>
   <v>       0.00190166      -0.01109987      -0.07740193 </v>
   <v>       0.02048273      -0.02320366       0.01701445 </v>
   <v>      -0.01531356      -0.01735257       0.01835816 </v>
   <v>      -0.00378098       0.00737966      -0.00224342 </v>
   <v>      -0.01625010      -0.02301874      -0.01446613 </v>
   <v>      -0.00657675       0.02048940       0.01362882 </v>
   <v>      -0.01941710       0.02826153      -0.00362782 </v>
   <v>      -0.00677881      -0.00844420       0.01997335 </v>
   <v>      -0.00068065      -0.07423077       0.01718924 </v>
   <v>       0.00829000      -0.01332076       0.00611980 </v>
   <v>       0.02675131       0.02968894      -0.00369384 </v>
   <v>       0.00567258       0.00403861       0.00423401 </v>
   <v>       0.00582983       0.00050383      -0.01097574 </v>
   <v>      -0.01441108      -0.00765820      -0.00838884 </v>
   <v>      -0.01356773       0.00057867       0.01171051 </v>
   <v>      -0.00292420       0.01256026       0.00344999 </v>
   <v>      -0.00236570      -0.00386444      -0.00037800 </v>
   <v>       0.01300082       0.01944600       0.00862519 </v>
   <v>       0.00190819      -0.00592778      -0.00714299 </v>
   <v>       0.02810769      -0.00817571      -0.04112256 </v>
  </varray>
  <varray name="stress" >
   <v>      -0.32339360      -0.00245230      -0.01750545 </v>
   <v>      -0.00245228      -0.92823322       0.04147960 </v>
   <v>      -0.01750546       0.04147957      -0.26177642 </v>
  </varray>
  <energy>
   <i name="e_fr_energy">   -370.10040893 </i>
   <i name="e_wo_entrp">   -370.10575582 </i>
   <i name="e_0_energy">      0.01604066 </i>
  </energy>
  <time name="totalsc">    7.44    7.83</time>
 </calculation>
 <calculation>
  <scstep>
   <time name="dav">    1.21    1.22</time>
   <time name="total">    1.33    1.47</time>
   <energy>
    <i name="alphaZ">   1557.48920725 </i>
    <i name="ewald"> -18918.69050159 </i>
    <i name="hartreedc">  -7214.99946953 </i>
    <i name="XCdc">   -341.49622406 </i>
    <i name="pawpsdc">  33835.14793365 </i>
    <i name="pawaedc"> -32168.02465658 </i>
    <i name="eentropy">      0.01570621 </i>
    <i name="bandstr">  -2495.91819350 </i>
    <i name="atom">  25376.36928711 </i>
    <i name="e_fr_energy">   -370.10691106 </i>
    <i name="e_wo_entrp">   -370.12261727 </i>
    <i name="e_0_energy">   -370.11214646 </i>
   </energy>
  </scstep>
  <scstep>
   <time name="diag">    0.08    0.13</time>
   <time name="diis">    0.78    0.79</time>
   <time name="orth">    0.01    0.01</time>
   <time name="total">    0.93    1.02</time>
   <energy>
    <i name="e_fr_energy">   -370.10473590 </i>
    <i name="e_wo_entrp">   -370.12114860 </i>
    <i name="e_0_energy">   -370.11020680 </i>
   </energy>
  </scstep>
  <scstep>
   <time name="diag">    0.07    0.08</time>
   <time name="diis">    0.81    0.81</time>
   <time name="orth">    0.01    0.01</time>
   <time name="total">    0.96    0.99</time>
   <energy>
    <i name="e_fr_energy">   -370.10214287 </i>
    <i name="e_wo_entrp">   -370.11746314 </i>
    <i name="e_0_energy">   -370.10724963 </i>
   </energy>
  </scstep>
  <scstep>
   <time name="diag">    0.07    0.07</time>
   <time name="diis">    0.88    0.88</time>
   <time name="orth">    0.01    0.01</time>
   <time name="total">    1.03    1.06</time>
   <energy>
    <i name="e_fr_energy">   -370.10116989 </i>
    <i name="e_wo_entrp">   -370.11712034 </i>
    <i name="e_0_energy">   -370.10648671 </i>
   </energy>
  </scstep>
  <scstep>
   <time name="diag">    0.07    0.07</time>
   <time name="diis">    0.78    0.79</time>
   <time name="orth">    0.01    0.01</time>
   <time name="total">    0.93    0.97</time>
   <energy>
    <i name="e_fr_energy">   -370.10105201 </i>
    <i name="e_wo_entrp">   -370.11678982 </i>
    <i name="e_0_energy">   -370.10629794 </i>
   </energy>
  </scstep>
  <scstep>
   <time name="diag">    0.07    0.07</time>
   <time name="diis">    0.74    0.75</time>
   <time name="orth">    0.01    0.01</time>
   <time name="total">    0.89    0.92</time>
   <energy>
    <i name="e_fr_energy">   -370.10108843 </i>
    <i name="e_wo_entrp">   -370.11691606 </i>
    <i name="e_0_energy">   -370.10636431 </i>
   </energy>
  </scstep>
  <scstep>
   <time name="diag">    0.07    0.07</time>
   <time name="diis">    0.66    0.67</time>
   <time name="orth">    0.01    0.01</time>
   <time name="total">    0.82    0.84</time>
   <energy>
    <i name="e_fr_energy">   -370.10112166 </i>
    <i name="e_wo_entrp">   -370.11692586 </i>
    <i name="e_0_energy">   -370.10638973 </i>
   </energy>
  </scstep>
  <scstep>
   <time name="diag">    0.07    0.07</time>
   <time name="diis">    0.50    0.50</time>
   <time name="orth">    0.01    0.01</time>
   <time name="total">    0.65    0.69</time>
   <energy>
    <i name="e_fr_energy">   -370.10114505 </i>
    <i name="e_wo_entrp">   -370.11693455 </i>
    <i name="e_0_energy">   -370.10640821 </i>
   </energy>
  </scstep>
  <scstep>
   <time name="diag">    0.08    0.08</time>
   <time name="diis">    0.53    0.53</time>
   <time name="orth">    0.01    0.01</time>
   <time name="total">    0.68    0.71</time>
   <energy>
    <i name="e_fr_energy">   -370.10116394 </i>
    <i name="e_wo_entrp">   -370.11696276 </i>
    <i name="e_0_energy">   -370.10643021 </i>
   </energy>
  </scstep>
  <scstep>
   <time name="diag">    0.07    0.07</time>
   <time name="diis">    0.48    0.48</time>
   <time name="orth">    0.02    0.02</time>
   <time name="total">    0.66    0.69</time>
   <energy>
    <i name="e_fr_energy">   -370.10117734 </i>
    <i name="e_wo_entrp">   -370.11697351 </i>
    <i name="e_0_energy">   -370.10644273 </i>
   </energy>
  </scstep>
  <scstep>
   <time name="diag">    0.08    0.08</time>
   <time name="diis">    0.38    0.38</time>
   <time name="orth">    0.01    0.01</time>
   <time name="total">    0.50    0.53</time>
   <energy>
    <i name="alphaZ">   1557.48920725 </i>
    <i name="ewald"> -18918.69050159 </i>
    <i name="hartreedc">  -7208.26808151 </i>
    <i name="XCdc">   -341.77963922 </i>
    <i name="pawpsdc">  33905.75695799 </i>
    <i name="pawaedc"> -32238.40440009 </i>
    <i name="eentropy">      0.01579072 </i>
    <i name="bandstr">  -2502.58980413 </i>
    <i name="atom">  25376.36928711 </i>
    <i name="e_fr_energy">   -370.10118347 </i>
    <i name="e_wo_entrp">   -370.11697419 </i>
    <i name="e_0_energy">   -370.10644705 </i>
   </energy>
  </scstep>
  <structure>
   <crystal>
    <varray name="basis" >
     <v>       6.82673687       0.00765881      -0.00281483 </v>
     <v>       0.01161025      10.18789872      -0.02759137 </v>
     <v>      -0.00407252      -0.02732553      10.20758643 </v>
    </varray>
    <i name="volume">    709.93252627 </i>
    <varray name="rec_basis" >
     <v>       0.14648308      -0.00016678       0.00005800 </v>
     <v>      -0.00011001       0.09815650       0.00026272 </v>
     <v>       0.00004010       0.00026527       0.09796708 </v>
    </varray>
   </crystal>
   <varray name="positions" >
    <v>       0.22924537       0.49575398       0.18056844 </v>
    <v>       0.99423220       0.33278036       0.34869046 </v>
    <v>       0.24399799       0.50869910       0.49600709 </v>
    <v>       0.24272968       0.51927567       0.82238774 </v>
    <v>       0.01576802       0.67697193       0.00427256 </v>
    <v>       0.22739964       0.84022026       0.18232999 </v>
    <v>       0.50192136       0.33773244       0.33858703 </v>
    <v>       0.75216596       0.50713712       0.49622326 </v>
    <v>       0.77041173       0.83486766       0.17703219 </v>
    <v>       0.99764787       0.98325230       0.01018679 </v>
    <v>       0.75488423       0.16905565       0.17003001 </v>
    <v>       0.25151133       0.14257689       0.82903513 </v>
    <v>       0.03526385       0.33621574       0.98941646 </v>
    <v>       0.50196336       0.98614263       0.01546634 </v>
    <v>       0.49730252       0.33466525       0.65987024 </v>
    <v>       0.48865513       0.66934339       0.00850186 </v>
    <v>       0.75320402       0.83231535       0.82297762 </v>
    <v>       0.50676122       0.00213849       0.32990256 </v>
    <v>       0.98831581       0.00641298       0.33299712 </v>
    <v>       0.25176167       0.16200074       0.48871586 </v>
    <v>       0.99922110       0.01235220       0.65776896 </v>
    <v>       0.00001191       0.66403814       0.33203296 </v>
    <v>       0.00892470       0.66063525       0.66724555 </v>
    <v>       0.24454830       0.83172849       0.82211695 </v>
    <v>       0.74493215       0.16220764       0.49003636 </v>
    <v>       0.49996075       0.00816189       0.65348796 </v>
    <v>       0.48966078       0.65752292       0.66360270 </v>
    <v>       0.48079473       0.33966687       0.00247966 </v>
    <v>       0.24280740       0.16588939       0.17861425 </v>
    <v>       0.00267360       0.33098922       0.65502039 </v>
    <v>       0.24565848       0.83529622       0.50149050 </v>
    <v>       0.75436175       0.15826584       0.84084436 </v>
    <v>       0.76098916       0.50851389       0.83585436 </v>
    <v>       0.49737956       0.66345210       0.32613992 </v>
    <v>       0.77081559       0.49188718       0.16576265 </v>
    <v>       0.75211605       0.83183482       0.50430673 </v>
   </varray>
  </structure>
  <varray name="forces" >
   <v>       0.00214963      -0.00481716      -0.00714632 </v>
   <v>      -0.00396177      -0.00704603      -0.00391995 </v>
   <v>       0.00511166      -0.01505607       0.00696883 </v>
   <v>       0.00595039      -0.01341466      -0.00464105 </v>
   <v>      -0.00994888       0.00323718      -0.00352199 </v>
   <v>       0.01578787      -0.00855414      -0.02331282 </v>
   <v>       0.00011683      -0.00113808      -0.00100740 </v>
   <v>      -0.00097522       0.08119262       0.01570570 </v>
   <v>      -0.02301199      -0.00298882       0.07531832 </v>
   <v>       0.00541449       0.00483573      -0.00662236 </v>
   <v>      -0.00461745       0.01167655      -0.01285219 </v>
   <v>       0.01200346       0.00984309       0.00825993 </v>
   <v>      -0.01197190      -0.00328510      -0.00009103 </v>
   <v>      -0.00397037      -0.00029067      -0.00555864 </v>
   <v>       0.00822921      -0.00616845      -0.01126926 </v>
   <v>       0.00221866       0.00379647      -0.00550540 </v>
   <v>      -0.00214087      -0.00401128      -0.06041938 </v>
   <v>       0.01066434      -0.01967206       0.01475891 </v>
   <v>      -0.00315831      -0.01182829       0.01407562 </v>
   <v>      -0.00046523       0.00501421       0.00158305 </v>
   <v>      -0.01233436      -0.01733485      -0.00459580 </v>
   <v>      -0.00086530       0.01324783       0.00948224 </v>
   <v>      -0.01703218       0.02532368      -0.00390183 </v>
   <v>      -0.00153175      -0.00235628       0.01622759 </v>
   <v>      -0.00328533      -0.05905794       0.02021369 </v>
   <v>       0.00772685      -0.01494259       0.01008365 </v>
   <v>       0.02405521       0.02927540      -0.00169217 </v>
   <v>       0.00509055       0.00206824       0.00304226 </v>
   <v>       0.00653881      -0.00114958      -0.01029825 </v>
   <v>      -0.01490035      -0.00626449      -0.00425861 </v>
   <v>      -0.00762009       0.00099515       0.00897749 </v>
   <v>      -0.00450050       0.01154700       0.00476446 </v>
   <v>      -0.00548798      -0.00652829       0.00088854 </v>
   <v>       0.00360815       0.01609442       0.00568379 </v>
   <v>      -0.00348846      -0.00195404      -0.00897755 </v>
   <v>       0.02060220      -0.01028871      -0.03644207 </v>
  </varray>
  <varray name="stress" >
   <v>       2.12177474      -0.01070703       0.00214954 </v>
   <v>      -0.01070700       1.88386989       0.02483832 </v>
   <v>       0.00214952       0.02483827       2.23703267 </v>
  </varray>
  <energy>
   <i name="e_fr_energy">   -370.10118347 </i>
   <i name="e_wo_entrp">   -370.10644705 </i>
   <i name="e_0_energy">      0.01579072 </i>
  </energy>
  <time name="totalsc">   11.00   11.61</time>
 </calculation>
 <calculation>
  <scstep>
   <time name="dav">    1.09    1.10</time>
   <time name="total">    1.20    1.35</time>
   <energy>
    <i name="alphaZ">   1557.33547461 </i>
    <i name="ewald"> -18916.82736585 </i>
    <i name="hartreedc">  -7209.28977407 </i>
    <i name="XCdc">   -341.80693464 </i>
    <i name="pawpsdc">  33905.97776775 </i>
    <i name="pawaedc"> -32238.60775908 </i>
    <i name="eentropy">      0.01585234 </i>
    <i name="bandstr">  -2503.26838492 </i>
    <i name="atom">  25376.36928711 </i>
    <i name="e_fr_energy">   -370.10183676 </i>
    <i name="e_wo_entrp">   -370.11768910 </i>
    <i name="e_0_energy">   -370.10712087 </i>
   </energy>
  </scstep>
  <scstep>
   <time name="diag">    0.08    0.08</time>
   <time name="diis">    0.78    0.78</time>
   <time name="orth">    0.01    0.01</time>
   <time name="total">    0.96    0.99</time>
   <energy>
    <i name="e_fr_energy">   -370.10203419 </i>
    <i name="e_wo_entrp">   -370.11774526 </i>
    <i name="e_0_energy">   -370.10727121 </i>
   </energy>
  </scstep>
  <scstep>
   <time name="diag">    0.11    0.11</time>
   <time name="diis">    0.76    0.77</time>
   <time name="orth">    0.01    0.01</time>
   <time name="total">    0.95    0.99</time>
   <energy>
    <i name="e_fr_energy">   -370.10199823 </i>
    <i name="e_wo_entrp">   -370.11783000 </i>
    <i name="e_0_energy">   -370.10727549 </i>
   </energy>
  </scstep>
  <scstep>
   <time name="diag">    0.08    0.08</time>
   <time name="diis">    0.61    0.61</time>
   <time name="orth">    0.01    0.01</time>
   <time name="total">    0.77    0.79</time>
   <energy>
    <i name="e_fr_energy">   -370.10198756 </i>
    <i name="e_wo_entrp">   -370.11777244 </i>
    <i name="e_0_energy">   -370.10724919 </i>
   </energy>
  </scstep>
  <scstep>
   <time name="diag">    0.08    0.08</time>
   <time name="diis">    0.37    0.37</time>
   <time name="orth">    0.01    0.01</time>
   <time name="total">    0.51    0.56</time>
   <energy>
    <i name="alphaZ">   1557.33547461 </i>
    <i name="ewald"> -18916.82736585 </i>
    <i name="hartreedc">  -7209.76150727 </i>
    <i name="XCdc">   -341.78688713 </i>
    <i name="pawpsdc">  33901.53668655 </i>
    <i name="pawaedc"> -32234.11103263 </i>
    <i name="eentropy">      0.01580647 </i>
    <i name="bandstr">  -2502.87244711 </i>
    <i name="atom">  25376.36928711 </i>
    <i name="e_fr_energy">   -370.10198527 </i>
    <i name="e_wo_entrp">   -370.11779174 </i>
    <i name="e_0_energy">   -370.10725409 </i>
   </energy>
  </scstep>
  <structure>
   <crystal>
    <varray name="basis" >
     <v>       6.82719574       0.00764735      -0.00283667 </v>
     <v>       0.01159468      10.18734350      -0.02747792 </v>
     <v>      -0.00410518      -0.02720796      10.20846363 </v>
    </varray>
    <i name="volume">    710.00260738 </i>
    <varray name="rec_basis" >
     <v>       0.14647323      -0.00016655       0.00005846 </v>
     <v>      -0.00010985       0.09816185       0.00026158 </v>
     <v>       0.00004041       0.00026417       0.09795865 </v>
    </varray>
   </crystal>
   <varray name="positions" >
    <v>       0.22923392       0.49573236       0.18054955 </v>
    <v>       0.99422948       0.33276129       0.34868413 </v>
    <v>       0.24400642       0.50866392       0.49602439 </v>
    <v>       0.24273971       0.51925947       0.82237602 </v>
    <v>       0.01575509       0.67698675       0.00426514 </v>
    <v>       0.22742993       0.84020570       0.18227577 </v>
    <v>       0.50192287       0.33772847       0.33858861 </v>
    <v>       0.75216195       0.50733814       0.49624802 </v>
    <v>       0.77035867       0.83485694       0.17721593 </v>
    <v>       0.99768177       0.98325815       0.01018055 </v>
    <v>       0.75487278       0.16907854       0.17000972 </v>
    <v>       0.25154803       0.14258811       0.82905598 </v>
    <v>       0.03522422       0.33622039       0.98942226 </v>
    <v>       0.50193656       0.98614325       0.01546901 </v>
    <v>       0.49732647       0.33465472       0.65984092 </v>
    <v>       0.48864747       0.66935532       0.00849191 </v>
    <v>       0.75320778       0.83229471       0.82282708 </v>
    <v>       0.50681690       0.00209283       0.32993605 </v>
    <v>       0.98827773       0.00637907       0.33303188 </v>
    <v>       0.25175215       0.16201392       0.48871204 </v>
    <v>       0.99917427       0.01230863       0.65774276 </v>
    <v>      -0.00000390       0.66407699       0.33205942 </v>
    <v>       0.00886710       0.66069071       0.66723682 </v>
    <v>       0.24453043       0.83171339       0.82215597 </v>
    <v>       0.74492844       0.16206282       0.49007103 </v>
    <v>       0.49998534       0.00813481       0.65350137 </v>
    <v>       0.48974003       0.65758272       0.66359560 </v>
    <v>       0.48081233       0.33967456       0.00248870 </v>
    <v>       0.24282543       0.16588838       0.17859363 </v>
    <v>       0.00262931       0.33097562       0.65500443 </v>
    <v>       0.24562183       0.83529749       0.50151233 </v>
    <v>       0.75435211       0.15828970       0.84085270 </v>
    <v>       0.76098053       0.50850624       0.83585401 </v>
    <v>       0.49741284       0.66349158       0.32615707 </v>
    <v>       0.77081738       0.49187758       0.16574787 </v>
    <v>       0.75219560       0.83181673       0.50422433 </v>
   </varray>
  </structure>
  <varray name="forces" >
   <v>       0.00218292      -0.00197796      -0.00322514 </v>
   <v>      -0.00624984      -0.00509690      -0.00178014 </v>
   <v>       0.00485859      -0.01143059       0.00585919 </v>
   <v>       0.00504737      -0.01097803      -0.00707126 </v>
   <v>      -0.01057015       0.00273422      -0.00293143 </v>
   <v>       0.01255009      -0.00725665      -0.02063834 </v>
   <v>       0.00064645      -0.00020228      -0.00075523 </v>
   <v>       0.00088892       0.06811460       0.01607585 </v>
   <v>      -0.01941263       0.00067947       0.06378010 </v>
   <v>       0.00099404       0.00166137      -0.00490459 </v>
   <v>      -0.00392707       0.00993226      -0.01132530 </v>
   <v>       0.01098444       0.01003173       0.00576725 </v>
   <v>      -0.00968047      -0.00405653      -0.00064632 </v>
   <v>      -0.00032487      -0.00121897      -0.00722662 </v>
   <v>       0.00758862      -0.00535710      -0.01066734 </v>
   <v>       0.00239584       0.00179768      -0.00561459 </v>
   <v>      -0.00186301       0.00079578      -0.05078734 </v>
   <v>       0.00721578      -0.01718961       0.01198703 </v>
   <v>       0.00115774      -0.00824974       0.00933938 </v>
   <v>      -0.00002546       0.00329710       0.00184821 </v>
   <v>      -0.01020134      -0.01399232      -0.00145400 </v>
   <v>       0.00327160       0.00874854       0.00558786 </v>
   <v>      -0.01129182       0.01992016      -0.00297329 </v>
   <v>      -0.00137700      -0.00069348       0.01388732 </v>
   <v>      -0.00306277      -0.05090760       0.01947755 </v>
   <v>       0.00763943      -0.01496013       0.00991428 </v>
   <v>       0.01838179       0.02504069      -0.00103470 </v>
   <v>       0.00245670       0.00199076       0.00289146 </v>
   <v>       0.00572464      -0.00250324      -0.00770867 </v>
   <v>      -0.01417310      -0.00528728      -0.00476998 </v>
   <v>      -0.00509534       0.00161044       0.00925167 </v>
   <v>      -0.00430693       0.00825378       0.00400541 </v>
   <v>      -0.00463399      -0.00571192       0.00060837 </v>
   <v>      -0.00206995       0.01224186       0.00432785 </v>
   <v>      -0.00276264      -0.00033343      -0.00790456 </v>
   <v>       0.01704340      -0.00944669      -0.03118994 </v>
  </varray>
  <varray name="stress" >
   <v>       1.97977848      -0.01359120       0.01357395 </v>
   <v>      -0.01359119       1.85104320       0.01856444 </v>
   <v>       0.01357388       0.01856435       2.12851747 </v>
  </varray>
  <energy>
   <i name="e_fr_energy">   -370.10198527 </i>
   <i name="e_wo_entrp">   -370.10725409 </i>
   <i name="e_0_energy">      0.01580647 </i>
  </energy>
  <time name="totalsc">    5.98    6.37</time>
 </calculation>
 <calculation>
  <scstep>
   <time name="dav">    1.03    1.07</time>
   <time name="total">    1.14    1.35</time>
   <energy>
    <i name="alphaZ">   1556.87450931 </i>
    <i name="ewald"> -18911.19652820 </i>
    <i name="hartreedc">  -7212.86522809 </i>
    <i name="XCdc">   -341.86893103 </i>
    <i name="pawpsdc">  33901.39273336 </i>
    <i name="pawaedc"> -32233.95210884 </i>
    <i name="eentropy">      0.01595957 </i>
    <i name="bandstr">  -2504.87191910 </i>
    <i name="atom">  25376.36928711 </i>
    <i name="e_fr_energy">   -370.10222591 </i>
    <i name="e_wo_entrp">   -370.11818548 </i>
    <i name="e_0_energy">   -370.10754577 </i>
   </energy>
  </scstep>
  <scstep>
   <time name="diag">    0.07    0.07</time>
   <time name="diis">    0.75    0.76</time>
   <time name="orth">    0.01    0.01</time>
   <time name="total">    0.90    0.93</time>
   <energy>
    <i name="e_fr_energy">   -370.10394641 </i>
    <i name="e_wo_entrp">   -370.11953367 </i>
    <i name="e_0_energy">   -370.10914216 </i>
   </energy>
  </scstep>
  <scstep>
   <time name="diag">    0.07    0.07</time>
   <time name="diis">    0.78    0.79</time>
   <time name="orth">    0.01    0.01</time>
   <time name="total">    0.93    0.96</time>
   <energy>
    <i name="e_fr_energy">   -370.10365051 </i>
    <i name="e_wo_entrp">   -370.11955166 </i>
    <i name="e_0_energy">   -370.10895089 </i>
   </energy>
  </scstep>
  <scstep>
   <time name="diag">    0.07    0.08</time>
   <time name="diis">    0.80    0.81</time>
   <time name="orth">    0.01    0.01</time>
   <time name="total">    0.96    1.00</time>
   <energy>
    <i name="e_fr_energy">   -370.10355829 </i>
    <i name="e_wo_entrp">   -370.11933371 </i>
    <i name="e_0_energy">   -370.10881676 </i>
   </energy>
  </scstep>
  <scstep>
   <time name="diag">    0.07    0.07</time>
   <time name="diis">    0.75    0.76</time>
   <time name="orth">    0.01    0.01</time>
   <time name="total">    0.91    0.94</time>
   <energy>
    <i name="e_fr_energy">   -370.10354850 </i>
    <i name="e_wo_entrp">   -370.11938937 </i>
    <i name="e_0_energy">   -370.10882879 </i>
   </energy>
  </scstep>
  <scstep>
   <time name="diag">    0.08    0.08</time>
   <time name="diis">    0.76    0.76</time>
   <time name="orth">    0.01    0.01</time>
   <time name="total">    0.91    0.94</time>
   <energy>
    <i name="e_fr_energy">   -370.10353851 </i>
    <i name="e_wo_entrp">   -370.11930844 </i>
    <i name="e_0_energy">   -370.10879516 </i>
   </energy>
  </scstep>
  <scstep>
   <time name="diag">    0.07    0.07</time>
   <time name="diis">    0.40    0.40</time>
   <time name="orth">    0.01    0.01</time>
   <time name="total">    0.52    0.55</time>
   <energy>
    <i name="alphaZ">   1556.87450931 </i>
    <i name="ewald"> -18911.19652820 </i>
    <i name="hartreedc">  -7214.16484541 </i>
    <i name="XCdc">   -341.81411737 </i>
    <i name="pawpsdc">  33885.41711201 </i>
    <i name="pawaedc"> -32217.94009950 </i>
    <i name="eentropy">      0.01580932 </i>
    <i name="bandstr">  -2503.66466075 </i>
    <i name="atom">  25376.36928711 </i>
    <i name="e_fr_energy">   -370.10353348 </i>
    <i name="e_wo_entrp">   -370.11934280 </i>
    <i name="e_0_energy">   -370.10880325 </i>
   </energy>
  </scstep>
  <structure>
   <crystal>
    <varray name="basis" >
     <v>       6.82857236       0.00761295      -0.00290220 </v>
     <v>       0.01154796      10.18567785      -0.02713758 </v>
     <v>      -0.00420316      -0.02685523      10.21109524 </v>
    </varray>
    <i name="volume">    710.21282764 </i>
    <varray name="rec_basis" >
     <v>       0.14644370      -0.00016587       0.00005984 </v>
     <v>      -0.00010935       0.09817788       0.00025816 </v>
     <v>       0.00004133       0.00026088       0.09793339 </v>
    </varray>
   </crystal>
   <varray name="positions" >
    <v>       0.22919956       0.49566751       0.18049289 </v>
    <v>       0.99422132       0.33270405       0.34866514 </v>
    <v>       0.24403172       0.50855838       0.49607629 </v>
    <v>       0.24276978       0.51921088       0.82234086 </v>
    <v>       0.01571633       0.67703121       0.00424289 </v>
    <v>       0.22752079       0.84016202       0.18211312 </v>
    <v>       0.50192740       0.33771655       0.33859333 </v>
    <v>       0.75214994       0.50794120       0.49632228 </v>
    <v>       0.77019951       0.83482479       0.17776710 </v>
    <v>       0.99778344       0.98327568       0.01016184 </v>
    <v>       0.75483843       0.16914721       0.16994888 </v>
    <v>       0.25165813       0.14262177       0.82911852 </v>
    <v>       0.03510534       0.33623435       0.98943963 </v>
    <v>       0.50185615       0.98614514       0.01547699 </v>
    <v>       0.49739832       0.33462314       0.65975295 </v>
    <v>       0.48862447       0.66939111       0.00846207 </v>
    <v>       0.75321905       0.83223278       0.82237550 </v>
    <v>       0.50698395       0.00195581       0.33003652 </v>
    <v>       0.98816350       0.00627734       0.33313616 </v>
    <v>       0.25172357       0.16205346       0.48870060 </v>
    <v>       0.99903378       0.01217790       0.65766416 </v>
    <v>      -0.00005132       0.66419355       0.33213882 </v>
    <v>       0.00869433       0.66085709       0.66721063 </v>
    <v>       0.24447683       0.83166808       0.82227301 </v>
    <v>       0.74491734       0.16162835       0.49017505 </v>
    <v>       0.50005910       0.00805357       0.65354159 </v>
    <v>       0.48997777       0.65776212       0.66357430 </v>
    <v>       0.48086513       0.33969761       0.00251583 </v>
    <v>       0.24287952       0.16588535       0.17853177 </v>
    <v>       0.00249644       0.33093482       0.65495656 </v>
    <v>       0.24551190       0.83530129       0.50157782 </v>
    <v>       0.75432320       0.15836129       0.84087772 </v>
    <v>       0.76095463       0.50848329       0.83585296 </v>
    <v>       0.49751268       0.66361004       0.32620848 </v>
    <v>       0.77082275       0.49184881       0.16570356 </v>
    <v>       0.75243423       0.83176246       0.50397718 </v>
   </varray>
  </structure>
  <varray name="forces" >
   <v>       0.00329824       0.00666603       0.00715719 </v>
   <v>      -0.01269458       0.00074411       0.00357283 </v>
   <v>       0.00331384      -0.00060567       0.00207392 </v>
   <v>       0.00267306      -0.00575143      -0.01279747 </v>
   <v>      -0.01209558       0.00073221      -0.00053600 </v>
   <v>       0.00464390      -0.00417277      -0.01181529 </v>
   <v>       0.00148666       0.00312207      -0.00131177 </v>
   <v>       0.00686064       0.03056434       0.01759801 </v>
   <v>      -0.01067722       0.01127819       0.03241753 </v>
   <v>      -0.01135450      -0.00844233       0.00165602 </v>
   <v>      -0.00255854       0.00420341      -0.00545852 </v>
   <v>       0.00685685       0.01132714      -0.00101885 </v>
   <v>      -0.00231282      -0.00562215      -0.00173081 </v>
   <v>       0.01116480      -0.00565249      -0.00984711 </v>
   <v>       0.00637974      -0.00234643      -0.01147756 </v>
   <v>       0.00408806      -0.00329194      -0.00468893 </v>
   <v>      -0.00076667       0.01191750      -0.02156598 </v>
   <v>      -0.00491885      -0.00829026       0.00384879 </v>
   <v>       0.01560496       0.00405117      -0.00618031 </v>
   <v>       0.00119173      -0.00161128       0.00006181 </v>
   <v>      -0.00286222      -0.00220191       0.00887117 </v>
   <v>       0.01649760      -0.00669304      -0.00714474 </v>
   <v>       0.00561445       0.00334899       0.00081571 </v>
   <v>      -0.00166202       0.00252447       0.00804678 </v>
   <v>      -0.00287211      -0.02572661       0.01526485 </v>
   <v>       0.00561018      -0.01303821       0.00950328 </v>
   <v>       0.00199003       0.01228373       0.00130031 </v>
   <v>      -0.00590611       0.00337066       0.00441063 </v>
   <v>       0.00361021      -0.00696385       0.00095222 </v>
   <v>      -0.01225211      -0.00051166      -0.00625462 </v>
   <v>       0.00116059       0.00130288       0.00635122 </v>
   <v>      -0.00363348       0.00135730       0.00472771 </v>
   <v>      -0.00282719      -0.00361967       0.00001852 </v>
   <v>      -0.01920889       0.00057098      -0.00061474 </v>
   <v>      -0.00125041       0.00487586      -0.00522510 </v>
   <v>       0.00780774      -0.00969934      -0.02098071 </v>
  </varray>
  <varray name="stress" >
   <v>       1.27074544      -0.02365248       0.04296578 </v>
   <v>      -0.02365246       1.59855564      -0.04337220 </v>
   <v>       0.04296587      -0.04337220       1.43118784 </v>
  </varray>
  <energy>
   <i name="e_fr_energy">   -370.10353348 </i>
   <i name="e_wo_entrp">   -370.10880325 </i>
   <i name="e_0_energy">      0.01580932 </i>
  </energy>
  <time name="totalsc">    7.88    8.38</time>
 </calculation>
 <calculation>
  <scstep>
   <time name="dav">    0.90    0.97</time>
   <time name="total">    0.98    1.17</time>
   <energy>
    <i name="alphaZ">   1555.95362450 </i>
    <i name="ewald"> -18899.74827523 </i>
    <i name="hartreedc">  -7220.42719583 </i>
    <i name="XCdc">   -341.98115765 </i>
    <i name="pawpsdc">  33885.46277634 </i>
    <i name="pawaedc"> -32217.99614277 </i>
    <i name="eentropy">      0.01618810 </i>
    <i name="bandstr">  -2507.74678478 </i>
    <i name="atom">  25376.36928711 </i>
    <i name="e_fr_energy">   -370.09768022 </i>
    <i name="e_wo_entrp">   -370.11386831 </i>
    <i name="e_0_energy">   -370.10307625 </i>
   </energy>
  </scstep>
  <scstep>
   <time name="diag">    0.11    0.11</time>
   <time name="diis">    0.84    0.84</time>
   <time name="orth">    0.01    0.01</time>
   <time name="total">    1.05    1.08</time>
   <energy>
    <i name="e_fr_energy">   -370.10454642 </i>
    <i name="e_wo_entrp">   -370.11992922 </i>
    <i name="e_0_energy">   -370.10967402 </i>
   </energy>
  </scstep>
  <scstep>
   <time name="diag">    0.07    0.08</time>
   <time name="diis">    0.84    0.84</time>
   <time name="orth">    0.01    0.01</time>
   <time name="total">    0.99    1.03</time>
   <energy>
    <i name="e_fr_energy">   -370.10337124 </i>
    <i name="e_wo_entrp">   -370.11942603 </i>
    <i name="e_0_energy">   -370.10872284 </i>
   </energy>
  </scstep>
  <scstep>
   <time name="diag">    0.07    0.07</time>
   <time name="diis">    0.85    0.85</time>
   <time name="orth">    0.01    0.01</time>
   <time name="total">    1.04    1.07</time>
   <energy>
    <i name="e_fr_energy">   -370.10299058 </i>
    <i name="e_wo_entrp">   -370.11879087 </i>
    <i name="e_0_energy">   -370.10825734 </i>
   </energy>
  </scstep>
  <scstep>
   <time name="diag">    0.09    0.09</time>
   <time name="diis">    0.87    0.89</time>
   <time name="orth">    0.01    0.01</time>
   <time name="total">    1.04    1.07</time>
   <energy>
    <i name="e_fr_energy">   -370.10294898 </i>
    <i name="e_wo_entrp">   -370.11886107 </i>
    <i name="e_0_energy">   -370.10825301 </i>
   </energy>
  </scstep>
  <scstep>
   <time name="diag">    0.07    0.07</time>
   <time name="diis">    0.79    0.79</time>
   <time name="orth">    0.01    0.01</time>
   <time name="total">    0.94    0.97</time>
   <energy>
    <i name="e_fr_energy">   -370.10291848 </i>
    <i name="e_wo_entrp">   -370.11870062 </i>
    <i name="e_0_energy">   -370.10817919 </i>
   </energy>
  </scstep>
  <scstep>
   <time name="diag">    0.07    0.07</time>
   <time name="diis">    0.65    0.65</time>
   <time name="orth">    0.01    0.01</time>
   <time name="total">    0.80    0.83</time>
   <energy>
    <i name="e_fr_energy">   -370.10290456 </i>
    <i name="e_wo_entrp">   -370.11876599 </i>
    <i name="e_0_energy">   -370.10819170 </i>
   </energy>
  </scstep>
  <scstep>
   <time name="diag">    0.08    0.08</time>
   <time name="diis">    0.55    0.55</time>
   <time name="orth">    0.01    0.01</time>
   <time name="total">    0.67    0.70</time>
   <energy>
    <i name="alphaZ">   1555.95362450 </i>
    <i name="ewald"> -18899.74827523 </i>
    <i name="hartreedc">  -7222.98703346 </i>
    <i name="XCdc">   -341.87378838 </i>
    <i name="pawpsdc">  33854.18928970 </i>
    <i name="pawaedc"> -32186.71223765 </i>
    <i name="eentropy">      0.01585850 </i>
    <i name="bandstr">  -2505.30962958 </i>
    <i name="atom">  25376.36928711 </i>
    <i name="e_fr_energy">   -370.10290450 </i>
    <i name="e_wo_entrp">   -370.11876300 </i>
    <i name="e_0_energy">   -370.10819066 </i>
   </energy>
  </scstep>
  <structure>
   <crystal>
    <varray name="basis" >
     <v>       6.83132561       0.00754416      -0.00303327 </v>
     <v>       0.01145453      10.18234653      -0.02645689 </v>
     <v>      -0.00439912      -0.02614978      10.21635845 </v>
    </varray>
    <i name="volume">    710.63316421 </i>
    <varray name="rec_basis" >
     <v>       0.14638468      -0.00016451       0.00006261 </v>
     <v>      -0.00010835       0.09820996       0.00025133 </v>
     <v>       0.00004318       0.00025428       0.09788290 </v>
    </varray>
   </crystal>
   <varray name="positions" >
    <v>       0.22913084       0.49553778       0.18037960 </v>
    <v>       0.99420498       0.33258957       0.34862716 </v>
    <v>       0.24408231       0.50834728       0.49618008 </v>
    <v>       0.24282990       0.51911369       0.82227057 </v>
    <v>       0.01563882       0.67712016       0.00419838 </v>
    <v>       0.22770247       0.84007465       0.18178792 </v>
    <v>       0.50193646       0.33769270       0.33860276 </v>
    <v>       0.75212593       0.50914753       0.49647072 </v>
    <v>       0.76988126       0.83476044       0.17886917 </v>
    <v>       0.99798674       0.98331075       0.01012443 </v>
    <v>       0.75476975       0.16928457       0.16982721 </v>
    <v>       0.25187829       0.14268909       0.82924356 </v>
    <v>       0.03486762       0.33626226       0.98947437 </v>
    <v>       0.50169536       0.98614891       0.01549297 </v>
    <v>       0.49754199       0.33455996       0.65957706 </v>
    <v>       0.48857849       0.66946270       0.00840240 </v>
    <v>       0.75324157       0.83210893       0.82147257 </v>
    <v>       0.50731799       0.00168173       0.33023741 </v>
    <v>       0.98793509       0.00607383       0.33334467 </v>
    <v>       0.25166642       0.16213256       0.48867772 </v>
    <v>       0.99875284       0.01191641       0.65750702 </v>
    <v>      -0.00014614       0.66442669       0.33229757 </v>
    <v>       0.00834887       0.66118991       0.66715826 </v>
    <v>       0.24436964       0.83157743       0.82250703 </v>
    <v>       0.74489512       0.16075926       0.49038307 </v>
    <v>       0.50020659       0.00789105       0.65362203 </v>
    <v>       0.49045315       0.65812099       0.66353170 </v>
    <v>       0.48097069       0.33974373       0.00257007 </v>
    <v>       0.24298769       0.16587928       0.17840809 </v>
    <v>       0.00223075       0.33085322       0.65486083 </v>
    <v>       0.24529208       0.83530890       0.50170876 </v>
    <v>       0.75426538       0.15850450       0.84092774 </v>
    <v>       0.76090285       0.50843738       0.83585086 </v>
    <v>       0.49771233       0.66384700       0.32631129 </v>
    <v>       0.77083349       0.49179125       0.16561496 </v>
    <v>       0.75291138       0.83165391       0.50348301 </v>
   </varray>
  </structure>
  <varray name="forces" >
   <v>       0.00551221       0.02388347       0.02895731 </v>
   <v>      -0.02461159       0.01214891       0.01331248 </v>
   <v>       0.00073550       0.01895613      -0.00583012 </v>
   <v>      -0.00200681       0.00527791      -0.02450969 </v>
   <v>      -0.01513185      -0.00313637       0.00367668 </v>
   <v>      -0.01031985       0.00024370       0.00376109 </v>
   <v>       0.00257226       0.00948345      -0.00243123 </v>
   <v>       0.01805272      -0.04560983       0.02081769 </v>
   <v>       0.00551455       0.03038812      -0.03102570 </v>
   <v>      -0.03477992      -0.02768204       0.01341299 </v>
   <v>       0.00027398      -0.00564723       0.00523195 </v>
   <v>      -0.00064930       0.01389297      -0.01464563 </v>
   <v>       0.01341859      -0.00997292      -0.00570356 </v>
   <v>       0.03292489      -0.01198798      -0.01757228 </v>
   <v>       0.00315401       0.00228047      -0.00996089 </v>
   <v>       0.00656927      -0.01455316      -0.00429937 </v>
   <v>       0.00012470       0.03673746       0.03705839 </v>
   <v>      -0.03055957       0.01096853      -0.01311348 </v>
   <v>       0.04521444       0.02967880      -0.03617679 </v>
   <v>       0.00361541      -0.01260886      -0.00063307 </v>
   <v>       0.01432532       0.02237291       0.03008983 </v>
   <v>       0.04391630      -0.03793573      -0.03286812 </v>
   <v>       0.04190413      -0.03102729       0.00852213 </v>
   <v>      -0.00077811       0.01057493      -0.00643615 </v>
   <v>      -0.00249269       0.02792735       0.00856507 </v>
   <v>       0.00053699      -0.00894050       0.00905528 </v>
   <v>      -0.03463283      -0.01472916       0.00732466 </v>
   <v>      -0.02194551       0.00538968       0.00717352 </v>
   <v>      -0.00061641      -0.01448507       0.01803535 </v>
   <v>      -0.00797783       0.00777288      -0.00997353 </v>
   <v>       0.01387006       0.00069847       0.00263122 </v>
   <v>      -0.00317955      -0.01381310       0.00493814 </v>
   <v>       0.00068834       0.00062643      -0.00124679 </v>
   <v>      -0.05356914      -0.02310872      -0.01066375 </v>
   <v>       0.00164072       0.01498175       0.00178993 </v>
   <v>      -0.01131342      -0.00904639       0.00273645 </v>
  </varray>
[...]
       <r>    6.8649    1.0000 </r>
       <r>    6.9116    1.0000 </r>
       <r>    6.9658    1.0000 </r>
       <r>    6.9858    1.0000 </r>
       <r>    7.0186    1.0000 </r>
       <r>    7.0451    1.0000 </r>
       <r>    7.1126    1.0000 </r>
       <r>    7.1313    1.0001 </r>
       <r>    7.1766    1.0004 </r>
       <r>    7.2093    1.0010 </r>
       <r>    7.2598    1.0041 </r>
       <r>    7.2987    1.0099 </r>
       <r>    7.3217    1.0152 </r>
       <r>    7.3601    1.0266 </r>
       <r>    7.3936    1.0347 </r>
       <r>    7.4051    1.0355 </r>
       <r>    7.4140    1.0349 </r>
       <r>    7.4757    0.9770 </r>
       <r>    7.5036    0.9048 </r>
       <r>    7.5326    0.7933 </r>
       <r>    7.5770    0.5654 </r>
       <r>    7.5904    0.4902 </r>
       <r>    7.6319    0.2671 </r>
       <r>    7.6753    0.0903 </r>
       <r>    7.7125    0.0038 </r>
       <r>    7.7549   -0.0330 </r>
       <r>    7.8055   -0.0300 </r>
       <r>    7.8285   -0.0231 </r>
       <r>    7.8519   -0.0162 </r>
       <r>    7.8834   -0.0089 </r>
       <r>    7.9150   -0.0044 </r>
       <r>    7.9511   -0.0017 </r>
       <r>    7.9872   -0.0006 </r>
       <r>    8.0455   -0.0001 </r>
       <r>    8.1046   -0.0000 </r>
       <r>    8.1539   -0.0000 </r>
       <r>    8.2213   -0.0000 </r>
       <r>    8.2562   -0.0000 </r>
       <r>    8.3393   -0.0000 </r>
       <r>    8.3804   -0.0000 </r>
       <r>    8.4542   -0.0000 </r>
       <r>    8.6866   -0.0000 </r>
       <r>    8.7930   -0.0000 </r>
       <r>    8.8587   -0.0000 </r>
       <r>    9.4556   -0.0000 </r>
       <r>    9.5511   -0.0000 </r>
       <r>    9.6100   -0.0000 </r>
       <r>    9.6333   -0.0000 </r>
       <r>    9.7082   -0.0000 </r>
      </set>
     </set>
    </set>
   </array>
  </eigenvalues>
  <separator name="orbital magnetization" >
   <v name="MAGDIPOLOUT">      0.00000000      0.00000000      0.00000000</v>
  </separator>
  <dos>
   <i name="efermi">      7.58866731 </i>
   <total>
    <array>
     <dimension dim="1">gridpoints</dimension>
     <dimension dim="2">spin</dimension>
     <field>energy</field>
     <field>total</field>
     <field>integrated</field>
     <set>
      <set comment="spin 1">
       <r>   -49.5972     0.0000     0.0000 </r>
       <r>   -49.3900     0.0000     0.0000 </r>
       <r>   -49.1828     0.0000     0.0000 </r>
       <r>   -48.9756     0.0000     0.0000 </r>
       <r>   -48.7684     0.0000     0.0000 </r>
       <r>   -48.5612     0.0000     0.0000 </r>
       <r>   -48.3540     0.0000     0.0000 </r>
       <r>   -48.1468    -0.0000    -0.0000 </r>
       <r>   -47.9396    -0.0000    -0.0000 </r>
       <r>   -47.7324    -0.0000    -0.0000 </r>
       <r>   -47.5252    -0.0000    -0.0000 </r>
       <r>   -47.3179    -0.0000    -0.0000 </r>
       <r>   -47.1107    -0.0310    -0.0064 </r>
       <r>   -46.9035    -0.3162    -0.0719 </r>
       <r>   -46.6963     9.8711     1.9734 </r>
       <r>   -46.4891    48.2088    11.9627 </r>
       <r>   -46.2819    39.4742    20.1421 </r>
       <r>   -46.0747    -0.5553    20.0271 </r>
       <r>   -45.8675    -0.1306    20.0000 </r>
       <r>   -45.6603    -0.0002    20.0000 </r>
       <r>   -45.4531    -0.0000    20.0000 </r>
       <r>   -45.2459    -0.0000    20.0000 </r>
       <r>   -45.0386     0.0000    20.0000 </r>
       <r>   -44.8314     0.0000    20.0000 </r>
       <r>   -44.6242     0.0000    20.0000 </r>
       <r>   -44.4170     0.0000    20.0000 </r>
       <r>   -44.2098     0.0000    20.0000 </r>
       <r>   -44.0026     0.0000    20.0000 </r>
       <r>   -43.7954     0.0000    20.0000 </r>
       <r>   -43.5882     0.0000    20.0000 </r>
       <r>   -43.3810     0.0000    20.0000 </r>
       <r>   -43.1738     0.0000    20.0000 </r>
       <r>   -42.9666     0.0000    20.0000 </r>
       <r>   -42.7593     0.0000    20.0000 </r>
       <r>   -42.5521     0.0000    20.0000 </r>
       <r>   -42.3449     0.0000    20.0000 </r>
       <r>   -42.1377     0.0000    20.0000 </r>
       <r>   -41.9305    -0.0000    20.0000 </r>
       <r>   -41.7233    -0.0000    20.0000 </r>
       <r>   -41.5161    -0.0000    20.0000 </r>
       <r>   -41.3089    -0.0000    20.0000 </r>
       <r>   -41.1017    -0.0003    19.9999 </r>
       <r>   -40.8945    -0.2222    19.9539 </r>
       <r>   -40.6872     1.7391    20.3143 </r>
       <r>   -40.4800    30.5172    26.6377 </r>
       <r>   -40.2728    25.1141    31.8416 </r>
       <r>   -40.0656     0.9213    32.0325 </r>
       <r>   -39.8584    -0.1565    32.0001 </r>
       <r>   -39.6512    -0.0003    32.0000 </r>
       <r>   -39.4440    -0.0000    32.0000 </r>
       <r>   -39.2368    -0.0000    32.0000 </r>
       <r>   -39.0296     0.0000    32.0000 </r>
       <r>   -38.8224     0.0000    32.0000 </r>
       <r>   -38.6152     0.0000    32.0000 </r>
       <r>   -38.4079     0.0000    32.0000 </r>
       <r>   -38.2007     0.0000    32.0000 </r>
       <r>   -37.9935     0.0000    32.0000 </r>
       <r>   -37.7863     0.0000    32.0000 </r>
       <r>   -37.5791     0.0000    32.0000 </r>
       <r>   -37.3719     0.0000    32.0000 </r>
       <r>   -37.1647     0.0000    32.0000 </r>
       <r>   -36.9575     0.0000    32.0000 </r>
       <r>   -36.7503     0.0000    32.0000 </r>
       <r>   -36.5431     0.0000    32.0000 </r>
       <r>   -36.3359     0.0000    32.0000 </r>
       <r>   -36.1286     0.0000    32.0000 </r>
       <r>   -35.9214     0.0000    32.0000 </r>
       <r>   -35.7142     0.0000    32.0000 </r>
       <r>   -35.5070     0.0000    32.0000 </r>
       <r>   -35.2998     0.0000    32.0000 </r>
       <r>   -35.0926     0.0000    32.0000 </r>
       <r>   -34.8854     0.0000    32.0000 </r>
       <r>   -34.6782     0.0000    32.0000 </r>
       <r>   -34.4710     0.0000    32.0000 </r>
       <r>   -34.2638     0.0000    32.0000 </r>
       <r>   -34.0566     0.0000    32.0000 </r>
       <r>   -33.8493     0.0000    32.0000 </r>
       <r>   -33.6421     0.0000    32.0000 </r>
       <r>   -33.4349     0.0000    32.0000 </r>
       <r>   -33.2277     0.0000    32.0000 </r>
       <r>   -33.0205     0.0000    32.0000 </r>
       <r>   -32.8133     0.0000    32.0000 </r>
       <r>   -32.6061     0.0000    32.0000 </r>
       <r>   -32.3989     0.0000    32.0000 </r>
       <r>   -32.1917     0.0000    32.0000 </r>
       <r>   -31.9845     0.0000    32.0000 </r>
       <r>   -31.7773     0.0000    32.0000 </r>
       <r>   -31.5700     0.0000    32.0000 </r>
       <r>   -31.3628     0.0000    32.0000 </r>
       <r>   -31.1556     0.0000    32.0000 </r>
       <r>   -30.9484     0.0000    32.0000 </r>
       <r>   -30.7412     0.0000    32.0000 </r>
       <r>   -30.5340     0.0000    32.0000 </r>
       <r>   -30.3268     0.0000    32.0000 </r>
       <r>   -30.1196     0.0000    32.0000 </r>
       <r>   -29.9124     0.0000    32.0000 </r>
       <r>   -29.7052     0.0000    32.0000 </r>
       <r>   -29.4980     0.0000    32.0000 </r>
       <r>   -29.2907     0.0000    32.0000 </r>
       <r>   -29.0835     0.0000    32.0000 </r>
       <r>   -28.8763     0.0000    32.0000 </r>
       <r>   -28.6691     0.0000    32.0000 </r>
       <r>   -28.4619     0.0000    32.0000 </r>
       <r>   -28.2547     0.0000    32.0000 </r>
       <r>   -28.0475     0.0000    32.0000 </r>
       <r>   -27.8403     0.0000    32.0000 </r>
       <r>   -27.6331     0.0000    32.0000 </r>
       <r>   -27.4259     0.0000    32.0000 </r>
       <r>   -27.2187     0.0000    32.0000 </r>
       <r>   -27.0114     0.0000    32.0000 </r>
       <r>   -26.8042     0.0000    32.0000 </r>
       <r>   -26.5970     0.0000    32.0000 </r>
       <r>   -26.3898     0.0000    32.0000 </r>
       <r>   -26.1826     0.0000    32.0000 </r>
       <r>   -25.9754     0.0000    32.0000 </r>
       <r>   -25.7682     0.0000    32.0000 </r>
       <r>   -25.5610     0.0000    32.0000 </r>
       <r>   -25.3538     0.0000    32.0000 </r>
       <r>   -25.1466     0.0000    32.0000 </r>
       <r>   -24.9394     0.0000    32.0000 </r>
       <r>   -24.7321     0.0000    32.0000 </r>
       <r>   -24.5249     0.0000    32.0000 </r>
       <r>   -24.3177    -0.0000    32.0000 </r>
       <r>   -24.1105    -0.0000    32.0000 </r>
       <r>   -23.9033    -0.0000    32.0000 </r>
       <r>   -23.6961    -0.0000    32.0000 </r>
       <r>   -23.4889    -0.0048    31.9990 </r>
       <r>   -23.2817    -0.9033    31.8118 </r>
       <r>   -23.0745    11.6334    34.2224 </r>
       <r>   -22.8673    57.4761    46.1320 </r>
       <r>   -22.6601    60.1331    58.5921 </r>
       <r>   -22.4528   105.5046    80.4536 </r>
       <r>   -22.2456    55.6039    91.9752 </r>
       <r>   -22.0384     0.3797    92.0539 </r>
       <r>   -21.8312    -0.2599    92.0001 </r>
       <r>   -21.6240    -0.0003    92.0000 </r>
       <r>   -21.4168    -0.0000    92.0000 </r>
       <r>   -21.2096    -0.0000    92.0000 </r>
       <r>   -21.0024     0.0000    92.0000 </r>
       <r>   -20.7952     0.0000    92.0000 </r>
       <r>   -20.5880     0.0000    92.0000 </r>
       <r>   -20.3807     0.0000    92.0000 </r>
       <r>   -20.1735    -0.0000    92.0000 </r>
       <r>   -19.9663    -0.0000    92.0000 </r>
       <r>   -19.7591    -0.0000    92.0000 </r>
       <r>   -19.5519    -0.0000    92.0000 </r>
       <r>   -19.3447    -0.0034    91.9993 </r>
       <r>   -19.1375    -0.4830    91.8992 </r>
       <r>   -18.9303     4.8273    92.8995 </r>
       <r>   -18.7231    51.4926   103.5692 </r>
       <r>   -18.5159    60.8403   116.1759 </r>
       <r>   -18.3087    47.7399   126.0680 </r>
       <r>   -18.1014     9.9274   128.1251 </r>
       <r>   -17.8942    -0.5871   128.0034 </r>
       <r>   -17.6870    -0.0164   128.0000 </r>
       <r>   -17.4798    -0.0000   128.0000 </r>
       <r>   -17.2726    -0.0000   128.0000 </r>
       <r>   -17.0654     0.0000   128.0000 </r>
       <r>   -16.8582     0.0000   128.0000 </r>
       <r>   -16.6510     0.0000   128.0000 </r>
       <r>   -16.4438     0.0000   128.0000 </r>
       <r>   -16.2366     0.0000   128.0000 </r>
       <r>   -16.0294     0.0000   128.0000 </r>
       <r>   -15.8221     0.0000   128.0000 </r>
       <r>   -15.6149     0.0000   128.0000 </r>
       <r>   -15.4077     0.0000   128.0000 </r>
       <r>   -15.2005     0.0000   128.0000 </r>
       <r>   -14.9933     0.0000   128.0000 </r>
       <r>   -14.7861     0.0000   128.0000 </r>
       <r>   -14.5789     0.0000   128.0000 </r>
       <r>   -14.3717     0.0000   128.0000 </r>
       <r>   -14.1645     0.0000   128.0000 </r>
       <r>   -13.9573     0.0000   128.0000 </r>
       <r>   -13.7501     0.0000   128.0000 </r>
       <r>   -13.5428     0.0000   128.0000 </r>
       <r>   -13.3356     0.0000   128.0000 </r>
       <r>   -13.1284     0.0000   128.0000 </r>
       <r>   -12.9212     0.0000   128.0000 </r>
       <r>   -12.7140     0.0000   128.0000 </r>
       <r>   -12.5068     0.0000   128.0000 </r>
       <r>   -12.2996     0.0000   128.0000 </r>
       <r>   -12.0924     0.0000   128.0000 </r>
       <r>   -11.8852     0.0000   128.0000 </r>
       <r>   -11.6780     0.0000   128.0000 </r>
       <r>   -11.4708     0.0000   128.0000 </r>
       <r>   -11.2635     0.0000   128.0000 </r>
       <r>   -11.0563     0.0000   128.0000 </r>
       <r>   -10.8491     0.0000   128.0000 </r>
       <r>   -10.6419     0.0000   128.0000 </r>
       <r>   -10.4347     0.0000   128.0000 </r>
       <r>   -10.2275     0.0000   128.0000 </r>
       <r>   -10.0203     0.0000   128.0000 </r>
       <r>    -9.8131     0.0000   128.0000 </r>
       <r>    -9.6059     0.0000   128.0000 </r>
       <r>    -9.3987     0.0000   128.0000 </r>
       <r>    -9.1915     0.0000   128.0000 </r>
       <r>    -8.9842     0.0000   128.0000 </r>
       <r>    -8.7770     0.0000   128.0000 </r>
       <r>    -8.5698     0.0000   128.0000 </r>
       <r>    -8.3626     0.0000   128.0000 </r>
       <r>    -8.1554     0.0000   128.0000 </r>
       <r>    -7.9482     0.0000   128.0000 </r>
       <r>    -7.7410     0.0000   128.0000 </r>
       <r>    -7.5338     0.0000   128.0000 </r>
       <r>    -7.3266     0.0000   128.0000 </r>
       <r>    -7.1194     0.0000   128.0000 </r>
       <r>    -6.9122     0.0000   128.0000 </r>
       <r>    -6.7049     0.0000   128.0000 </r>
       <r>    -6.4977     0.0000   128.0000 </r>
       <r>    -6.2905     0.0000   128.0000 </r>
       <r>    -6.0833     0.0000   128.0000 </r>
       <r>    -5.8761     0.0000   128.0000 </r>
       <r>    -5.6689     0.0000   128.0000 </r>
       <r>    -5.4617     0.0000   128.0000 </r>
       <r>    -5.2545     0.0000   128.0000 </r>
       <r>    -5.0473     0.0000   128.0000 </r>
       <r>    -4.8401     0.0000   128.0000 </r>
       <r>    -4.6329     0.0000   128.0000 </r>
       <r>    -4.4256     0.0000   128.0000 </r>
       <r>    -4.2184     0.0000   128.0000 </r>
       <r>    -4.0112     0.0000   128.0000 </r>
       <r>    -3.8040     0.0000   128.0000 </r>
       <r>    -3.5968     0.0000   128.0000 </r>
       <r>    -3.3896     0.0000   128.0000 </r>
       <r>    -3.1824     0.0000   128.0000 </r>
       <r>    -2.9752     0.0000   128.0000 </r>
       <r>    -2.7680     0.0000   128.0000 </r>
       <r>    -2.5608     0.0000   128.0000 </r>
       <r>    -2.3536     0.0000   128.0000 </r>
       <r>    -2.1463     0.0000   128.0000 </r>
       <r>    -1.9391     0.0000   128.0000 </r>
       <r>    -1.7319     0.0000   128.0000 </r>
       <r>    -1.5247     0.0000   128.0000 </r>
       <r>    -1.3175     0.0000   128.0000 </r>
       <r>    -1.1103     0.0000   128.0000 </r>
       <r>    -0.9031     0.0000   128.0000 </r>
       <r>    -0.6959    -0.0000   128.0000 </r>
       <r>    -0.4887    -0.0000   128.0000 </r>
       <r>    -0.2815    -0.0000   128.0000 </r>
       <r>    -0.0742    -0.0000   128.0000 </r>
       <r>     0.1330    -0.0000   128.0000 </r>
       <r>     0.3402    -0.0005   127.9999 </r>
       <r>     0.5474    -0.0124   127.9973 </r>
       <r>     0.7546     0.2325   128.0455 </r>
       <r>     0.9618     1.1259   128.2788 </r>
       <r>     1.1690     1.6107   128.6125 </r>
       <r>     1.3762     1.6679   128.9581 </r>
       <r>     1.5834     3.2443   129.6304 </r>
       <r>     1.7906     3.6641   130.3896 </r>
       <r>     1.9978     1.8506   130.7731 </r>
       <r>     2.2051     4.0709   131.6166 </r>
       <r>     2.4123     3.7873   132.4014 </r>
       <r>     2.6195     3.3380   133.0930 </r>
       <r>     2.8267     7.3998   134.6263 </r>
       <r>     3.0339     7.0257   136.0821 </r>
       <r>     3.2411     7.0119   137.5350 </r>
       <r>     3.4483     8.3647   139.2683 </r>
       <r>     3.6555     8.8960   141.1116 </r>
       <r>     3.8627    15.9660   144.4199 </r>
       <r>     4.0699    22.4106   149.0636 </r>
       <r>     4.2771    22.8014   153.7883 </r>
       <r>     4.4844    24.8974   158.9472 </r>
       <r>     4.6916    32.5548   165.6929 </r>
       <r>     4.8988    37.4638   173.4557 </r>
       <r>     5.1060    37.7277   181.2733 </r>
       <r>     5.3132    37.3597   189.0145 </r>
       <r>     5.5204    34.9812   196.2629 </r>
       <r>     5.7276    34.4360   203.3984 </r>
       <r>     5.9348    22.4462   208.0495 </r>
       <r>     6.1420    20.1618   212.2272 </r>
       <r>     6.3492    58.2704   224.3013 </r>
       <r>     6.5564    61.3857   237.0210 </r>
       <r>     6.7637    54.1279   248.2368 </r>
       <r>     6.9709    51.2281   258.8517 </r>
       <r>     7.1781    57.8409   270.8369 </r>
       <r>     7.3853    57.5542   282.7627 </r>
       <r>     7.5925    50.2456   293.1740 </r>
       <r>     7.7997    45.3882   302.5789 </r>
       <r>     8.0069    49.5237   312.8406 </r>
       <r>     8.2141    41.0737   321.3515 </r>
       <r>     8.4213    32.5066   328.0871 </r>
       <r>     8.6285    21.5214   332.5465 </r>
       <r>     8.8357    20.2548   336.7435 </r>
       <r>     9.0430    13.1358   339.4654 </r>
       <r>     9.2502    14.6048   342.4916 </r>
       <r>     9.4574    21.7728   347.0032 </r>
       <r>     9.6646    18.7465   350.8876 </r>
       <r>     9.8718     5.6920   352.0671 </r>
       <r>    10.0790    -0.3154   352.0017 </r>
       <r>    10.2862    -0.0082   352.0000 </r>
       <r>    10.4934    -0.0000   352.0000 </r>
       <r>    10.7006    -0.0000   352.0000 </r>
       <r>    10.9078     0.0000   352.0000 </r>
       <r>    11.1150     0.0000   352.0000 </r>
       <r>    11.3223     0.0000   352.0000 </r>
       <r>    11.5295     0.0000   352.0000 </r>
       <r>    11.7367     0.0000   352.0000 </r>
       <r>    11.9439     0.0000   352.0000 </r>
       <r>    12.1511     0.0000   352.0000 </r>
       <r>    12.3583     0.0000   352.0000 </r>
       <r>    12.5655     0.0000   352.0000 </r>
      </set>
     </set>
    </array>
   </total>
  </dos>
 </calculation>
 <structure name="finalpos" >
  <crystal>
   <varray name="basis" >
    <v>       6.82918828       0.00742634      -0.00247822 </v>
    <v>       0.01126521      10.18896649      -0.02766652 </v>
    <v>      -0.00356676      -0.02738598      10.21438273 </v>
   </varray>
   <i name="volume">    710.73484657 </i>
   <varray name="rec_basis" >
    <v>       0.14643048      -0.00016176       0.00005070 </v>
    <v>      -0.00010663       0.09814621       0.00026310 </v>
    <v>       0.00003524       0.00026580       0.09790189 </v>
   </varray>
  </crystal>
  <varray name="positions" >
   <v>       0.22908264       0.49568916       0.18056258 </v>
   <v>       0.99372177       0.33269757       0.34880324 </v>
   <v>       0.24408467       0.50849854       0.49615416 </v>
   <v>       0.24280905       0.51904103       0.82205062 </v>
   <v>       0.01528719       0.67713961       0.00421597 </v>
   <v>       0.22767927       0.84007489       0.18172846 </v>
   <v>       0.50208796       0.33777174       0.33864064 </v>
   <v>       0.75233099       0.50863783       0.49663320 </v>
   <v>       0.76985444       0.83505833       0.17854885 </v>
   <v>       0.99731909       0.98304685       0.01024790 </v>
   <v>       0.75468122       0.16918272       0.16992595 </v>
   <v>       0.25188880       0.14288605       0.82910189 </v>
   <v>       0.03517140       0.33625164       0.98948809 </v>
   <v>       0.50226863       0.98598190       0.01530814 </v>
   <v>       0.49766061       0.33458244       0.65940749 </v>
   <v>       0.48869666       0.66930872       0.00830031 </v>
   <v>       0.75327520       0.83249599       0.82193109 </v>
   <v>       0.50674993       0.00184476       0.33012971 </v>
   <v>       0.98870117       0.00643258       0.33301148 </v>
   <v>       0.25172866       0.16195281       0.48866215 </v>
   <v>       0.99907086       0.01219650       0.65784894 </v>
   <v>       0.00073707       0.66406474       0.33198571 </v>
   <v>       0.00899281       0.66090935       0.66727692 </v>
   <v>       0.24433341       0.83166999       0.82248948 </v>
   <v>       0.74485352       0.16110709       0.49041807 </v>
   <v>       0.50021859       0.00774513       0.65372979 </v>
   <v>       0.48995298       0.65803113       0.66360548 </v>
   <v>       0.48058327       0.33984670       0.00270334 </v>
   <v>       0.24301663       0.16575705       0.17852572 </v>
   <v>       0.00204911       0.33089670       0.65476373 </v>
   <v>       0.24554587       0.83535382       0.50171421 </v>
   <v>       0.75417901       0.15838217       0.84100382 </v>
   <v>       0.76092385       0.50840482       0.83582700 </v>
   <v>       0.49689417       0.66361607       0.32622270 </v>
   <v>       0.77076618       0.49190384       0.16557168 </v>
   <v>       0.75280229       0.83153975       0.50346450 </v>
  </varray>
 </structure>
</modeling>
