<?xml version="1.0" encoding="ISO-8859-1"?>
<modeling>
 <generator>
  <i name="program" type="string">vasp </i>
  <i name="version" type="string">5.4.1  </i>
  <i name="subversion" type="string">05Feb16 (build Jan 29 2020 16:04:39) complex                          parallel </i>
  <i name="platform" type="string">IFC91_ompi </i>
  <i name="date" type="string">2020 06 15 </i>
  <i name="time" type="string">05:42:40 </i>
 </generator>
 <incar>
  <i type="string" name="SYSTEM"> automatically generated by mexm</i>
  <i type="int" name="ISTART">     0</i>
  <i type="string" name="PREC">accurate               ! avoid wrap aro</i>
  <i type="string" name="ALGO"> Fast                   ! blocked Davids</i>
  <i type="int" name="ISPIN">     1</i>
  <i type="int" name="ICHARG">     2</i>
  <i type="int" name="NELM">    70</i>
  <i type="int" name="IBRION">     2</i>
  <i name="EDIFF">      0.00001000</i>
  <i name="EDIFFG">     -0.01000000</i>
  <i type="int" name="NSW">   300</i>
  <i type="int" name="ISIF">     3</i>
  <i type="int" name="ISYM">     1</i>
  <i name="ENCUT">    300.00000000</i>
  <i name="POTIM">      0.15000000</i>
  <i type="string" name="LREAL"> Auto                  ! unpublished met</i>
  <i type="int" name="ISMEAR">     1</i>
  <i name="SIGMA">      0.15000000</i>
  <i type="logical" name="LWAVE"> F  </i>
  <i type="logical" name="LCHARG"> F  </i>
  <i type="logical" name="LVTOT"> F  </i>
  <v type="int" name="KPOINT_BSE">    -1     0     0     0</v>
  <i type="int" name="NELM">    70</i>
 </incar>
 <kpoints>
  <generation param="Gamma">
   <v type="int" name="divisions">       3        3        3 </v>
   <v name="usershift">      0.00000000       0.00000000       0.00000000 </v>
   <v name="genvec1">      0.33333333       0.00000000       0.00000000 </v>
   <v name="genvec2">      0.00000000       0.33333333       0.00000000 </v>
   <v name="genvec3">      0.00000000      -0.00000000       0.33333333 </v>
   <v name="shift">      0.00000000       0.00000000       0.00000000 </v>
  </generation>
  <varray name="kpointlist" >
   <v>       0.00000000       0.00000000       0.00000000 </v>
   <v>       0.33333333       0.00000000       0.00000000 </v>
   <v>       0.00000000       0.33333333       0.00000000 </v>
   <v>       0.33333333       0.33333333      -0.00000000 </v>
   <v>      -0.33333333       0.33333333       0.00000000 </v>
   <v>       0.00000000      -0.00000000       0.33333333 </v>
   <v>       0.33333333       0.00000000       0.33333333 </v>
   <v>      -0.33333333      -0.00000000       0.33333333 </v>
   <v>       0.00000000       0.33333333       0.33333333 </v>
   <v>       0.33333333       0.33333333       0.33333333 </v>
   <v>      -0.33333333       0.33333333       0.33333333 </v>
   <v>       0.00000000      -0.33333333       0.33333333 </v>
   <v>       0.33333333      -0.33333333       0.33333333 </v>
   <v>      -0.33333333      -0.33333333       0.33333333 </v>
  </varray>
  <varray name="weights" >
   <v>       0.03703704 </v>
   <v>       0.07407407 </v>
   <v>       0.07407407 </v>
   <v>       0.07407407 </v>
   <v>       0.07407407 </v>
   <v>       0.07407407 </v>
   <v>       0.07407407 </v>
   <v>       0.07407407 </v>
   <v>       0.07407407 </v>
   <v>       0.07407407 </v>
   <v>       0.07407407 </v>
   <v>       0.07407407 </v>
   <v>       0.07407407 </v>
   <v>       0.07407407 </v>
  </varray>
 </kpoints>
 <parameters>
  <separator name="general" >
   <i type="string" name="SYSTEM">automatically generated by mexm</i>
   <i type="logical" name="LCOMPAT"> F  </i>
  </separator>
  <separator name="electronic" >
   <i type="string" name="PREC">accura</i>
   <i name="ENMAX">    300.00000000</i>
   <i name="ENAUG">    461.25700000</i>
   <i name="EDIFF">      0.00001000</i>
   <i type="int" name="IALGO">    68</i>
   <i type="int" name="IWAVPR">    11</i>
   <i type="int" name="NBANDS">   168</i>
   <i name="NELECT">    279.00000000</i>
   <i type="int" name="TURBO">     0</i>
   <i type="int" name="IRESTART">     0</i>
   <i type="int" name="NREBOOT">     0</i>
   <i type="int" name="NMIN">     0</i>
   <i name="EREF">      0.00000000</i>
   <separator name="electronic smearing" >
    <i type="int" name="ISMEAR">     1</i>
    <i name="SIGMA">      0.15000000</i>
    <i name="KSPACING">      0.50000000</i>
    <i type="logical" name="KGAMMA"> T  </i>
   </separator>
   <separator name="electronic projectors" >
    <i type="logical" name="LREAL"> T  </i>
    <v name="ROPT">     -0.00025000     -0.00025000     -0.00025000     -0.00025000</v>
    <i type="int" name="LMAXPAW">  -100</i>
    <i type="int" name="LMAXMIX">     2</i>
    <i type="logical" name="NLSPLINE"> F  </i>
   </separator>
   <separator name="electronic startup" >
    <i type="int" name="ISTART">     0</i>
    <i type="int" name="ICHARG">     2</i>
    <i type="int" name="INIWAV">     1</i>
   </separator>
   <separator name="electronic spin" >
    <i type="int" name="ISPIN">     1</i>
    <i type="logical" name="LNONCOLLINEAR"> F  </i>
    <v name="MAGMOM">      1.00000000      1.00000000      1.00000000      1.00000000      1.00000000      1.00000000      1.00000000      1.00000000      1.00000000      1.00000000      1.00000000      1.00000000      1.00000000      1.00000000      1.00000000      1.00000000      1.00000000      1.00000000      1.00000000      1.00000000
      1.00000000      1.00000000      1.00000000      1.00000000      1.00000000      1.00000000      1.00000000      1.00000000      1.00000000      1.00000000      1.00000000      1.00000000      1.00000000      1.00000000      1.00000000      1.00000000</v>
    <i name="NUPDOWN">     -1.00000000</i>
    <i type="logical" name="LSORBIT"> F  </i>
    <v name="SAXIS">      0.00000000      0.00000000      1.00000000</v>
    <i type="logical" name="LSPIRAL"> F  </i>
    <v name="QSPIRAL">      0.00000000      0.00000000      0.00000000</v>
    <i type="logical" name="LZEROZ"> F  </i>
   </separator>
   <separator name="electronic exchange-correlation" >
    <i type="logical" name="LASPH"> F  </i>
    <i type="logical" name="LMETAGGA"> F  </i>
   </separator>
   <separator name="electronic convergence" >
    <i type="int" name="NELM">    70</i>
    <i type="int" name="NELMDL">    -5</i>
    <i type="int" name="NELMIN">     2</i>
    <i name="ENINI">    300.00000000</i>
    <separator name="electronic convergence detail" >
     <i type="logical" name="LDIAG"> T  </i>
     <i type="logical" name="LSUBROT"> F  </i>
     <i name="WEIMIN">      0.00100000</i>
     <i name="EBREAK">      0.00000001</i>
     <i name="DEPER">      0.30000000</i>
     <i type="int" name="NRMM">     4</i>
     <i name="TIME">      0.40000000</i>
    </separator>
   </separator>
   <separator name="electronic mixer" >
    <i name="AMIX">      0.40000000</i>
    <i name="BMIX">      1.00000000</i>
    <i name="AMIN">      0.10000000</i>
    <i name="AMIX_MAG">      1.60000000</i>
    <i name="BMIX_MAG">      1.00000000</i>
    <separator name="electronic mixer details" >
     <i type="int" name="IMIX">     4</i>
     <i type="logical" name="MIXFIRST"> F  </i>
     <i type="int" name="MAXMIX">   -45</i>
     <i name="WC">    100.00000000</i>
     <i type="int" name="INIMIX">     1</i>
     <i type="int" name="MIXPRE">     1</i>
     <i type="int" name="MREMOVE">     5</i>
    </separator>
   </separator>
   <separator name="electronic dipolcorrection" >
    <i type="logical" name="LDIPOL"> F  </i>
    <i type="logical" name="LMONO"> F  </i>
    <i type="int" name="IDIPOL">     0</i>
    <i name="EPSILON">      1.00000000</i>
    <v name="DIPOL">   -100.00000000   -100.00000000   -100.00000000</v>
    <i name="EFIELD">      0.00000000</i>
   </separator>
  </separator>
  <separator name="grids" >
   <i type="int" name="NGX">    40</i>
   <i type="int" name="NGY">    60</i>
   <i type="int" name="NGZ">    60</i>
   <i type="int" name="NGXF">    80</i>
   <i type="int" name="NGYF">   120</i>
   <i type="int" name="NGZF">   120</i>
   <i type="logical" name="ADDGRID"> F  </i>
  </separator>
  <separator name="ionic" >
   <i type="int" name="NSW">   300</i>
   <i type="int" name="IBRION">     2</i>
   <i type="int" name="ISIF">     3</i>
   <i name="PSTRESS">      0.00000000</i>
   <i name="EDIFFG">     -0.01000000</i>
   <i type="int" name="NFREE">     1</i>
   <i name="POTIM">      0.15000000</i>
   <i name="SMASS">     -3.00000000</i>
   <i name="SCALEE">      1.00000000</i>
  </separator>
  <separator name="ionic md" >
   <i name="TEBEG">      0.00010000</i>
   <i name="TEEND">      0.00010000</i>
   <i type="int" name="NBLOCK">     1</i>
   <i type="int" name="KBLOCK">   300</i>
   <i type="int" name="NPACO">   256</i>
   <i name="APACO">     16.00000000</i>
  </separator>
  <separator name="symmetry" >
   <i type="int" name="ISYM">     1</i>
   <i name="SYMPREC">      0.00001000</i>
  </separator>
  <separator name="dos" >
   <i type="logical" name="LORBIT"> F  </i>
   <v name="RWIGS">     -1.00000000     -1.00000000     -1.00000000     -1.00000000</v>
   <i type="int" name="NEDOS">   301</i>
   <i name="EMIN">     10.00000000</i>
   <i name="EMAX">    -10.00000000</i>
   <i name="EFERMI">      0.00000000</i>
  </separator>
  <separator name="writing" >
   <i type="int" name="NWRITE">     2</i>
   <i type="logical" name="LWAVE"> F  </i>
   <i type="logical" name="LCHARG"> F  </i>
   <i type="logical" name="LPARD"> F  </i>
   <i type="logical" name="LVTOT"> F  </i>
   <i type="logical" name="LVHAR"> F  </i>
   <i type="logical" name="LELF"> F  </i>
   <i type="logical" name="LOPTICS"> F  </i>
   <v name="STM">      0.00000000      0.00000000      0.00000000      0.00000000      0.00000000      0.00000000      0.00000000</v>
  </separator>
  <separator name="performance" >
   <i type="int" name="NPAR">     4</i>
   <i type="int" name="NSIM">     4</i>
   <i type="int" name="NBLK">    -1</i>
   <i type="logical" name="LPLANE"> T  </i>
   <i type="logical" name="LSCALAPACK"> T  </i>
   <i type="logical" name="LSCAAWARE"> F  </i>
   <i type="logical" name="LSCALU"> F  </i>
   <i type="logical" name="LASYNC"> F  </i>
   <i type="logical" name="LORBITALREAL"> F  </i>
  </separator>
  <separator name="miscellaneous" >
   <i type="int" name="IDIOT">     3</i>
   <i type="logical" name="LMUSIC"> F  </i>
   <v name="POMASS">    180.94800000     92.91000000     91.22400000    178.49000000</v>
   <v name="DARWINR">      0.00000000      0.00000000      0.00000000      0.00000000</v>
   <v name="DARWINV">      1.00000000      1.00000000      1.00000000      1.00000000</v>
   <i type="logical" name="LCORR"> T  </i>
  </separator>
  <i type="logical" name="GGA_COMPAT"> T  </i>
  <i type="logical" name="LBERRY"> F  </i>
  <i type="int" name="ICORELEVEL">     0</i>
  <i type="logical" name="LDAU"> F  </i>
  <i type="int" name="I_CONSTRAINED_M">     0</i>
  <separator name="electronic exchange-correlation" >
   <i type="string" name="GGA">--</i>
   <i type="int" name="VOSKOWN">     0</i>
   <i type="logical" name="LHFCALC"> F  </i>
   <i type="string" name="PRECFOCK"></i>
   <i type="logical" name="LSYMGRAD"> F  </i>
   <i type="logical" name="LHFONE"> F  </i>
   <i type="logical" name="LRHFCALC"> F  </i>
   <i type="logical" name="LTHOMAS"> F  </i>
   <i type="logical" name="LMODELHF"> F  </i>
   <i name="ENCUT4O">     -1.00000000</i>
   <i type="int" name="EXXOEP">     0</i>
   <i type="int" name="FOURORBIT">     0</i>
   <i name="AEXX">      0.00000000</i>
   <i name="HFALPHA">      0.00000000</i>
   <i name="MCALPHA">      0.00000000</i>
   <i name="ALDAX">      1.00000000</i>
   <i name="AGGAX">      1.00000000</i>
   <i name="ALDAC">      1.00000000</i>
   <i name="AGGAC">      1.00000000</i>
   <i type="int" name="NKREDX">     1</i>
   <i type="int" name="NKREDY">     1</i>
   <i type="int" name="NKREDZ">     1</i>
   <i type="logical" name="SHIFTRED"> F  </i>
   <i type="logical" name="ODDONLY"> F  </i>
   <i type="logical" name="EVENONLY"> F  </i>
   <i type="int" name="LMAXFOCK">     0</i>
   <i type="int" name="NMAXFOCKAE">     0</i>
   <i type="logical" name="LFOCKAEDFT"> F  </i>
   <i name="HFSCREEN">      0.00000000</i>
   <i name="HFSCREENC">      0.00000000</i>
   <i type="int" name="NBANDSGWLOW">     0</i>
  </separator>
  <separator name="vdW DFT" >
   <i type="logical" name="LUSE_VDW"> F  </i>
   <i name="Zab_VDW">     -0.84910000</i>
   <i name="PARAM1">      0.12340000</i>
   <i name="PARAM2">      1.00000000</i>
   <i name="PARAM3">      0.00000000</i>
  </separator>
  <separator name="model GW" >
   <i type="int" name="MODEL_GW">     0</i>
   <i name="MODEL_EPS0">     12.44651369</i>
   <i name="MODEL_ALPHA">      1.00000000</i>
  </separator>
  <separator name="linear response parameters" >
   <i type="logical" name="LEPSILON"> F  </i>
   <i type="logical" name="LRPA"> F  </i>
   <i type="logical" name="LNABLA"> F  </i>
   <i type="logical" name="LVEL"> F  </i>
   <i type="int" name="KINTER">     0</i>
   <i name="CSHIFT">      0.10000000</i>
   <i name="OMEGAMAX">     -1.00000000</i>
   <i name="DEG_THRESHOLD">      0.00200000</i>
  </separator>
  <separator name="orbital magnetization" >
   <i type="logical" name="NUCIND"> F  </i>
   <v name="MAGPOS">      0.00000000      0.00000000      0.00000000</v>
   <i type="logical" name="LNICSALL"> T  </i>
   <i type="logical" name="ORBITALMAG"> F  </i>
   <i type="logical" name="LMAGBLOCH"> F  </i>
   <i type="logical" name="LCHIMAG"> F  </i>
   <i type="logical" name="LGAUGE"> T  </i>
   <i type="int" name="MAGATOM">     0</i>
   <v name="MAGDIPOL">      0.00000000      0.00000000      0.00000000</v>
   <v name="AVECCONST">      0.00000000      0.00000000      0.00000000</v>
  </separator>
  <separator name="response functions" >
   <i type="logical" name="LADDER"> F  </i>
   <i type="logical" name="LFXC"> F  </i>
   <i type="logical" name="LHARTREE"> T  </i>
   <i type="int" name="IBSE">     0</i>
   <v type="int" name="KPOINT">    -1     0     0     0</v>
   <i type="logical" name="LTCTE"> F  </i>
   <i type="logical" name="LTETE"> F  </i>
   <i type="logical" name="LTRIPLET"> F  </i>
   <i type="logical" name="LFXCEPS"> F  </i>
   <i type="logical" name="LFXHEG"> F  </i>
   <i type="int" name="NATURALO">     0</i>
   <i type="logical" name="L2ORDER"> F  </i>
   <i type="logical" name="LUSEW"> F  </i>
   <i name="ENCUTGW">     -2.00000000</i>
   <i name="ENCUTGWSOFT">     -2.00000000</i>
   <i name="ENCUTLF">     -1.00000000</i>
   <i type="int" name="LMAXMP2">    -1</i>
   <i name="SCISSOR">      0.00000000</i>
   <i type="int" name="NOMEGA">     0</i>
   <i type="int" name="NOMEGAR">     0</i>
   <i type="int" name="NBANDSGW">    -1</i>
   <i type="int" name="NBANDSO">    -1</i>
   <i type="int" name="NBANDSV">    -1</i>
   <i type="int" name="NELM">    70</i>
   <i type="int" name="NELMHF">     1</i>
   <i type="int" name="DIM">     3</i>
   <i type="int" name="ANTIRES">     0</i>
   <i name="OMEGAMAX">    -30.00000000</i>
   <i name="OMEGAMIN">    -30.00000000</i>
   <i name="OMEGATL">   -200.00000000</i>
   <i type="int" name="OMEGAGRID">     0</i>
   <i name="CSHIFT">     -0.10000000</i>
   <i type="logical" name="SELFENERGY"> F  </i>
   <i type="logical" name="LSPECTRAL"> F  </i>
   <i type="logical" name="LSPECTRALGW"> F  </i>
   <i type="logical" name="LSINGLES"> F  </i>
   <i type="logical" name="LFERMIGW"> F  </i>
   <i type="logical" name="ODDONLYGW"> F  </i>
   <i type="logical" name="EVENONLYGW"> F  </i>
   <i type="int" name="NKREDLFX">     1</i>
   <i type="int" name="NKREDLFY">     1</i>
   <i type="int" name="NKREDLFZ">     1</i>
   <i type="int" name="MAXMEM">  1800</i>
   <i type="int" name="TELESCOPE">     0</i>
   <i type="int" name="TAUPAR">     1</i>
   <i type="int" name="OMEGAPAR">    -1</i>
   <i name="LAMBDA">      1.00000000</i>
  </separator>
  <separator name="External order field" >
   <i name="OFIELD_KAPPA">      0.00000000</i>
   <v name="OFIELD_K">      0.00000000      0.00000000      0.00000000</v>
   <i name="OFIELD_Q6_NEAR">      0.00000000</i>
   <i name="OFIELD_Q6_FAR">      0.00000000</i>
   <i name="OFIELD_A">      0.00000000</i>
  </separator>
 </parameters>
 <atominfo>
  <atoms>      36 </atoms>
  <types>       4 </types>
  <array name="atoms" >
   <dimension dim="1">ion</dimension>
   <field type="string">element</field>
   <field type="int">atomtype</field>
   <set>
    <rc><c>Ta</c><c>   1</c></rc>
    <rc><c>Ta</c><c>   1</c></rc>
    <rc><c>Ta</c><c>   1</c></rc>
    <rc><c>Ta</c><c>   1</c></rc>
    <rc><c>Ta</c><c>   1</c></rc>
    <rc><c>Ta</c><c>   1</c></rc>
    <rc><c>Ta</c><c>   1</c></rc>
    <rc><c>Ta</c><c>   1</c></rc>
    <rc><c>Ta</c><c>   1</c></rc>
    <rc><c>Ta</c><c>   1</c></rc>
    <rc><c>Ta</c><c>   1</c></rc>
    <rc><c>Nb</c><c>   2</c></rc>
    <rc><c>Nb</c><c>   2</c></rc>
    <rc><c>Nb</c><c>   2</c></rc>
    <rc><c>Nb</c><c>   2</c></rc>
    <rc><c>Zr</c><c>   3</c></rc>
    <rc><c>Zr</c><c>   3</c></rc>
    <rc><c>Zr</c><c>   3</c></rc>
    <rc><c>Zr</c><c>   3</c></rc>
    <rc><c>Zr</c><c>   3</c></rc>
    <rc><c>Zr</c><c>   3</c></rc>
    <rc><c>Zr</c><c>   3</c></rc>
    <rc><c>Zr</c><c>   3</c></rc>
    <rc><c>Zr</c><c>   3</c></rc>
    <rc><c>Zr</c><c>   3</c></rc>
    <rc><c>Zr</c><c>   3</c></rc>
    <rc><c>Hf</c><c>   4</c></rc>
    <rc><c>Hf</c><c>   4</c></rc>
    <rc><c>Hf</c><c>   4</c></rc>
    <rc><c>Hf</c><c>   4</c></rc>
    <rc><c>Hf</c><c>   4</c></rc>
    <rc><c>Hf</c><c>   4</c></rc>
    <rc><c>Hf</c><c>   4</c></rc>
    <rc><c>Hf</c><c>   4</c></rc>
    <rc><c>Hf</c><c>   4</c></rc>
    <rc><c>Hf</c><c>   4</c></rc>
   </set>
  </array>
  <array name="atomtypes" >
   <dimension dim="1">type</dimension>
   <field type="int">atomspertype</field>
   <field type="string">element</field>
   <field>mass</field>
   <field>valence</field>
   <field type="string">pseudopotential</field>
   <set>
    <rc><c>  11</c><c>Ta</c><c>    180.94800000</c><c>      5.00000000</c><c>  PAW_PBE Ta 17Jan2003                  </c></rc>
    <rc><c>   4</c><c>Nb</c><c>     92.91000000</c><c>     13.00000000</c><c>  PAW_PBE Nb_sv 25May2007               </c></rc>
    <rc><c>  11</c><c>Zr</c><c>     91.22400000</c><c>     12.00000000</c><c>  PAW_PBE Zr_sv 04Jan2005               </c></rc>
    <rc><c>  10</c><c>Hf</c><c>    178.49000000</c><c>      4.00000000</c><c>  PAW_PBE Hf 20Jan2003                  </c></rc>
   </set>
  </array>
 </atominfo>
 <structure name="initialpos" >
  <crystal>
   <varray name="basis" >
    <v>       7.04347876       0.00104755      -0.04287951 </v>
    <v>       0.00166111      10.27890660      -0.00370133 </v>
    <v>      -0.06390025      -0.00373624      10.31528634 </v>
   </varray>
   <i name="volume">    746.79082126 </i>
   <varray name="rec_basis" >
    <v>       0.14198066      -0.00002263       0.00087952 </v>
    <v>      -0.00001426       0.09728663       0.00003515 </v>
    <v>       0.00059019       0.00003481       0.09694717 </v>
   </varray>
  </crystal>
  <varray name="positions" >
   <v>       0.74315100       0.83035900       0.82995700 </v>
   <v>       0.75568400       0.83626700       0.16959300 </v>
   <v>       0.99150700       0.98887200       0.32357500 </v>
   <v>       0.28462200       0.49524300       0.14348800 </v>
   <v>       0.24175900       0.84895300       0.17395000 </v>
   <v>       0.51478100       0.99749800       0.66776200 </v>
   <v>       0.72295000       0.50253600       0.15216900 </v>
   <v>       0.77877000       0.15436000       0.48630700 </v>
   <v>       0.50457800       0.67381900       0.99780000 </v>
   <v>       0.70988500       0.16205100       0.84745500 </v>
   <v>       0.50812400       0.66836000       0.67265600 </v>
   <v>       0.99531000       0.67491800       0.69433700 </v>
   <v>       0.24998500       0.83247500       0.82151800 </v>
   <v>       0.51231000       0.34361700       0.99863900 </v>
   <v>       0.74005100       0.50628600       0.84232000 </v>
   <v>       0.00161300       0.35009900       0.31674000 </v>
   <v>       0.49310700       0.66911600       0.32575400 </v>
   <v>       0.22785800       0.16612400       0.50175200 </v>
   <v>       0.27542700       0.17131700       0.82846100 </v>
   <v>       0.00026900       0.66873800       0.00186800 </v>
   <v>       0.50905100       0.33588300       0.34143500 </v>
   <v>       0.78784700       0.51865300       0.50474600 </v>
   <v>       0.77055600       0.82915300       0.50346500 </v>
   <v>       0.25515300       0.49510200       0.83496800 </v>
   <v>       0.25032900       0.16121300       0.16764500 </v>
   <v>       0.23614500       0.83316200       0.50825400 </v>
   <v>       0.99178200       0.99685800       0.99519700 </v>
   <v>       0.96524500       0.31995000       0.68198800 </v>
   <v>       0.74344200       0.16185300       0.16618300 </v>
   <v>       0.97742800       0.00830200       0.68568700 </v>
   <v>       0.22837800       0.50196000       0.51621600 </v>
   <v>       0.01714000       0.66218000       0.30686600 </v>
   <v>       0.49448600       0.97540900       0.99765100 </v>
   <v>       0.50861400       0.99533200       0.34236900 </v>
   <v>       0.53044400       0.32993700       0.65309700 </v>
   <v>       0.98221500       0.33405100       0.99814100 </v>
  </varray>
 </structure>
 <calculation>
  <scstep>
   <time name="dav">    0.92    0.95</time>
   <time name="total">    1.11    1.38</time>
   <energy>
    <i name="alphaZ">   1390.51935500 </i>
    <i name="ewald"> -17556.27890525 </i>
    <i name="hartreedc">  -5902.36241418 </i>
    <i name="XCdc">   -488.65997014 </i>
    <i name="pawpsdc">  19297.43001009 </i>
    <i name="pawaedc"> -17611.14445987 </i>
    <i name="eentropy">     -0.01143999 </i>
    <i name="bandstr">    -46.57449972 </i>
    <i name="atom">  22542.37654026 </i>
    <i name="e_fr_energy">   1625.29421620 </i>
    <i name="e_wo_entrp">   1625.30565619 </i>
    <i name="e_0_energy">   1625.29802953 </i>
   </energy>
  </scstep>
  <scstep>
   <time name="dav">    1.10    1.26</time>
   <time name="total">    1.10    1.37</time>
   <energy>
    <i name="e_fr_energy">    -95.68126056 </i>
    <i name="e_wo_entrp">    -95.68084828 </i>
    <i name="e_0_energy">    -95.68112313 </i>
   </energy>
  </scstep>
  <scstep>
   <time name="dav">    1.30    1.46</time>
   <time name="total">    1.31    1.48</time>
   <energy>
    <i name="e_fr_energy">   -341.39422023 </i>
    <i name="e_wo_entrp">   -341.40125253 </i>
    <i name="e_0_energy">   -341.39656433 </i>
   </energy>
  </scstep>
  <scstep>
   <time name="dav">    1.40    1.46</time>
   <time name="total">    1.40    1.48</time>
   <energy>
    <i name="e_fr_energy">   -372.57926900 </i>
    <i name="e_wo_entrp">   -372.58995417 </i>
    <i name="e_0_energy">   -372.58283072 </i>
   </energy>
  </scstep>
  <scstep>
   <time name="dav">    1.27    1.31</time>
   <time name="total">    1.31    1.36</time>
   <energy>
    <i name="e_fr_energy">   -375.80223323 </i>
    <i name="e_wo_entrp">   -375.81792508 </i>
    <i name="e_0_energy">   -375.80746385 </i>
   </energy>
  </scstep>
  <scstep>
   <time name="diag">    0.09    0.09</time>
   <time name="diis">    0.71    0.73</time>
   <time name="orth">    0.01    0.01</time>
   <time name="total">    0.88    0.92</time>
   <energy>
    <i name="e_fr_energy">   -365.68146713 </i>
    <i name="e_wo_entrp">   -365.68276556 </i>
    <i name="e_0_energy">   -365.68189994 </i>
   </energy>
  </scstep>
  <scstep>
   <time name="diag">    0.08    0.08</time>
   <time name="diis">    0.70    0.72</time>
   <time name="orth">    0.01    0.01</time>
   <time name="total">    0.86    0.89</time>
   <energy>
    <i name="e_fr_energy">   -367.98634686 </i>
    <i name="e_wo_entrp">   -367.99094279 </i>
    <i name="e_0_energy">   -367.98787884 </i>
   </energy>
  </scstep>
  <scstep>
   <time name="diag">    0.07    0.08</time>
   <time name="diis">    0.71    0.72</time>
   <time name="orth">    0.01    0.01</time>
   <time name="total">    0.86    0.90</time>
   <energy>
    <i name="e_fr_energy">   -361.02535010 </i>
    <i name="e_wo_entrp">   -361.04210662 </i>
    <i name="e_0_energy">   -361.03093560 </i>
   </energy>
  </scstep>
  <scstep>
   <time name="diag">    0.08    0.08</time>
   <time name="diis">    0.74    0.74</time>
   <time name="orth">    0.01    0.01</time>
   <time name="total">    0.89    0.92</time>
   <energy>
    <i name="e_fr_energy">   -360.69947534 </i>
    <i name="e_wo_entrp">   -360.71948387 </i>
    <i name="e_0_energy">   -360.70614485 </i>
   </energy>
  </scstep>
  <scstep>
   <time name="diag">    0.08    0.08</time>
   <time name="diis">    0.82    0.83</time>
   <time name="orth">    0.01    0.01</time>
   <time name="total">    1.01    1.04</time>
   <energy>
    <i name="e_fr_energy">   -360.69945257 </i>
    <i name="e_wo_entrp">   -360.72061594 </i>
    <i name="e_0_energy">   -360.70650702 </i>
   </energy>
  </scstep>
  <scstep>
   <time name="diag">    0.08    0.08</time>
   <time name="diis">    0.79    0.81</time>
   <time name="orth">    0.01    0.01</time>
   <time name="total">    0.96    1.02</time>
   <energy>
    <i name="e_fr_energy">   -360.67337763 </i>
    <i name="e_wo_entrp">   -360.69486704 </i>
    <i name="e_0_energy">   -360.68054077 </i>
   </energy>
  </scstep>
  <scstep>
   <time name="diag">    0.08    0.09</time>
   <time name="diis">    0.65    0.81</time>
   <time name="orth">    0.01    0.01</time>
   <time name="total">    0.82    1.02</time>
   <energy>
    <i name="e_fr_energy">   -360.66648990 </i>
    <i name="e_wo_entrp">   -360.68792206 </i>
    <i name="e_0_energy">   -360.67363395 </i>
   </energy>
  </scstep>
  <scstep>
   <time name="diag">    0.07    0.08</time>
   <time name="diis">    0.78    0.80</time>
   <time name="orth">    0.01    0.01</time>
   <time name="total">    0.96    1.00</time>
   <energy>
    <i name="e_fr_energy">   -360.66542795 </i>
    <i name="e_wo_entrp">   -360.68781926 </i>
    <i name="e_0_energy">   -360.67289172 </i>
   </energy>
  </scstep>
  <scstep>
   <time name="diag">    0.07    0.08</time>
   <time name="diis">    0.74    0.76</time>
   <time name="orth">    0.01    0.01</time>
   <time name="total">    0.90    0.94</time>
   <energy>
    <i name="e_fr_energy">   -360.66564607 </i>
    <i name="e_wo_entrp">   -360.68788746 </i>
    <i name="e_0_energy">   -360.67305987 </i>
   </energy>
  </scstep>
  <scstep>
   <time name="diag">    0.14    0.15</time>
   <time name="diis">    0.75    0.78</time>
   <time name="orth">    0.01    0.01</time>
   <time name="total">    0.97    1.02</time>
   <energy>
    <i name="e_fr_energy">   -360.66605792 </i>
    <i name="e_wo_entrp">   -360.68827821 </i>
    <i name="e_0_energy">   -360.67346468 </i>
   </energy>
  </scstep>
  <scstep>
   <time name="diag">    0.08    0.09</time>
   <time name="diis">    0.66    0.67</time>
   <time name="orth">    0.01    0.01</time>
   <time name="total">    0.84    0.89</time>
   <energy>
    <i name="e_fr_energy">   -360.66615787 </i>
    <i name="e_wo_entrp">   -360.68836758 </i>
    <i name="e_0_energy">   -360.67356111 </i>
   </energy>
  </scstep>
  <scstep>
   <time name="diag">    0.08    0.08</time>
   <time name="diis">    0.63    0.63</time>
   <time name="orth">    0.01    0.01</time>
   <time name="total">    0.78    0.83</time>
   <energy>
    <i name="e_fr_energy">   -360.66618355 </i>
    <i name="e_wo_entrp">   -360.68846496 </i>
    <i name="e_0_energy">   -360.67361069 </i>
   </energy>
  </scstep>
  <scstep>
   <time name="diag">    0.08    0.08</time>
   <time name="diis">    0.57    0.58</time>
   <time name="orth">    0.01    0.01</time>
   <time name="total">    0.73    0.76</time>
   <energy>
    <i name="e_fr_energy">   -360.66621904 </i>
    <i name="e_wo_entrp">   -360.68851443 </i>
    <i name="e_0_energy">   -360.67365083 </i>
   </energy>
  </scstep>
  <scstep>
   <time name="diag">    0.07    0.08</time>
   <time name="diis">    0.49    0.50</time>
   <time name="orth">    0.01    0.01</time>
   <time name="total">    0.65    0.67</time>
   <energy>
    <i name="e_fr_energy">   -360.66623507 </i>
    <i name="e_wo_entrp">   -360.68855454 </i>
    <i name="e_0_energy">   -360.67367489 </i>
   </energy>
  </scstep>
  <scstep>
   <time name="diag">    0.07    0.08</time>
   <time name="diis">    0.43    0.43</time>
   <time name="orth">    0.01    0.01</time>
   <time name="total">    0.55    0.57</time>
   <energy>
    <i name="alphaZ">   1390.51935500 </i>
    <i name="ewald"> -17556.27890525 </i>
    <i name="hartreedc">  -5674.34280960 </i>
    <i name="XCdc">   -486.55513700 </i>
    <i name="pawpsdc">  31891.30861017 </i>
    <i name="pawaedc"> -30195.34267029 </i>
    <i name="eentropy">      0.02231560 </i>
    <i name="bandstr">  -2272.37353860 </i>
    <i name="atom">  22542.37654026 </i>
    <i name="e_fr_energy">   -360.66623972 </i>
    <i name="e_wo_entrp">   -360.68855531 </i>
    <i name="e_0_energy">   -360.67367825 </i>
   </energy>
  </scstep>
  <structure>
   <crystal>
    <varray name="basis" >
     <v>       7.04347876       0.00104755      -0.04287951 </v>
     <v>       0.00166111      10.27890660      -0.00370133 </v>
     <v>      -0.06390025      -0.00373624      10.31528634 </v>
    </varray>
    <i name="volume">    746.79082126 </i>
    <varray name="rec_basis" >
     <v>       0.14198066      -0.00002263       0.00087952 </v>
     <v>      -0.00001426       0.09728663       0.00003515 </v>
     <v>       0.00059019       0.00003481       0.09694717 </v>
    </varray>
   </crystal>
   <varray name="positions" >
    <v>       0.74315100       0.83035900       0.82995700 </v>
    <v>       0.75568400       0.83626700       0.16959300 </v>
    <v>       0.99150700       0.98887200       0.32357500 </v>
    <v>       0.28462200       0.49524300       0.14348800 </v>
    <v>       0.24175900       0.84895300       0.17395000 </v>
    <v>       0.51478100       0.99749800       0.66776200 </v>
    <v>       0.72295000       0.50253600       0.15216900 </v>
    <v>       0.77877000       0.15436000       0.48630700 </v>
    <v>       0.50457800       0.67381900       0.99780000 </v>
    <v>       0.70988500       0.16205100       0.84745500 </v>
    <v>       0.50812400       0.66836000       0.67265600 </v>
    <v>       0.99531000       0.67491800       0.69433700 </v>
    <v>       0.24998500       0.83247500       0.82151800 </v>
    <v>       0.51231000       0.34361700       0.99863900 </v>
    <v>       0.74005100       0.50628600       0.84232000 </v>
    <v>       0.00161300       0.35009900       0.31674000 </v>
    <v>       0.49310700       0.66911600       0.32575400 </v>
    <v>       0.22785800       0.16612400       0.50175200 </v>
    <v>       0.27542700       0.17131700       0.82846100 </v>
    <v>       0.00026900       0.66873800       0.00186800 </v>
    <v>       0.50905100       0.33588300       0.34143500 </v>
    <v>       0.78784700       0.51865300       0.50474600 </v>
    <v>       0.77055600       0.82915300       0.50346500 </v>
    <v>       0.25515300       0.49510200       0.83496800 </v>
    <v>       0.25032900       0.16121300       0.16764500 </v>
    <v>       0.23614500       0.83316200       0.50825400 </v>
    <v>       0.99178200       0.99685800       0.99519700 </v>
    <v>       0.96524500       0.31995000       0.68198800 </v>
    <v>       0.74344200       0.16185300       0.16618300 </v>
    <v>       0.97742800       0.00830200       0.68568700 </v>
    <v>       0.22837800       0.50196000       0.51621600 </v>
    <v>       0.01714000       0.66218000       0.30686600 </v>
    <v>       0.49448600       0.97540900       0.99765100 </v>
    <v>       0.50861400       0.99533200       0.34236900 </v>
    <v>       0.53044400       0.32993700       0.65309700 </v>
    <v>       0.98221500       0.33405100       0.99814100 </v>
   </varray>
  </structure>
  <varray name="forces" >
   <v>      -0.40863595      -0.41815847      -0.40660206 </v>
   <v>      -0.02550554      -0.03234357      -0.01309930 </v>
   <v>      -0.01839326       0.03293187      -0.05946269 </v>
   <v>      -0.00283601       0.01582901      -0.00077230 </v>
   <v>       0.01979498      -0.04644224      -0.02190908 </v>
   <v>       0.02444283      -0.10037720      -0.01165538 </v>
   <v>      -0.00710831       0.01719354       0.01440563 </v>
   <v>       0.00203076       0.00039424       0.01870992 </v>
   <v>      -0.00003099       0.03367343      -0.07269709 </v>
   <v>      -0.01203710      -0.00590776      -0.01961146 </v>
   <v>       0.13964119       0.09737662       0.37904885 </v>
   <v>      -0.03403983       0.03031658       0.02850325 </v>
   <v>       0.34976452      -0.34956881      -0.21739786 </v>
   <v>       0.00031806      -0.04118957       0.02406514 </v>
   <v>      -0.29728036       0.30462744      -0.42936322 </v>
   <v>       0.00387310      -0.02041660      -0.05425740 </v>
   <v>      -0.01384003      -0.01314164       0.11936807 </v>
   <v>       0.02267233       0.01144174       0.03469913 </v>
   <v>       0.00335812      -0.00051876      -0.00374850 </v>
   <v>       0.00505700       0.00408632       0.02663560 </v>
   <v>       0.00054588      -0.06140295      -0.04976755 </v>
   <v>      -0.34284288       0.16394657       0.25683901 </v>
   <v>      -0.29022646      -0.21663633       0.23056627 </v>
   <v>       0.18097721       0.23763260      -0.22330557 </v>
   <v>       0.00447568      -0.00176647       0.00240652 </v>
   <v>       0.31385161      -0.23654752       0.16434362 </v>
   <v>       0.00802846       0.04657996       0.02866763 </v>
   <v>       0.00813805      -0.03057940       0.02288211 </v>
   <v>      -0.00279283       0.03405771       0.00906355 </v>
   <v>      -0.00374490       0.01575447      -0.01800782 </v>
   <v>       0.36020784       0.27966125       0.22659815 </v>
   <v>       0.01148890       0.01270161      -0.02744547 </v>
   <v>      -0.01270288       0.05182340       0.04748307 </v>
   <v>       0.01729062       0.07546121      -0.03510043 </v>
   <v>       0.00472179       0.13076090      -0.00985775 </v>
   <v>      -0.00866160      -0.02125316       0.03977539 </v>
  </varray>
  <varray name="stress" >
   <v>      -8.95988071       0.04977757      -0.77623281 </v>
   <v>       0.04977754      -7.45169261       0.17059368 </v>
   <v>      -0.77623281       0.17059369      -7.04189593 </v>
  </varray>
  <energy>
   <i name="e_fr_energy">   -360.66623972 </i>
   <i name="e_wo_entrp">   -360.67367825 </i>
   <i name="e_0_energy">      0.02231560 </i>
  </energy>
  <time name="totalsc">   20.49   22.17</time>
 </calculation>
 <calculation>
  <scstep>
   <time name="dav">    1.01    1.04</time>
   <time name="total">    1.21    1.36</time>
   <energy>
    <i name="alphaZ">   1396.64852857 </i>
    <i name="ewald"> -17576.84325236 </i>
    <i name="hartreedc">  -5687.82625441 </i>
    <i name="XCdc">   -485.41934557 </i>
    <i name="pawpsdc">  31891.35802019 </i>
    <i name="pawaedc"> -30195.39134215 </i>
    <i name="eentropy">      0.02173670 </i>
    <i name="bandstr">  -2245.66081281 </i>
    <i name="atom">  22542.37654026 </i>
    <i name="e_fr_energy">   -360.73618157 </i>
    <i name="e_wo_entrp">   -360.75791827 </i>
    <i name="e_0_energy">   -360.74342714 </i>
   </energy>
  </scstep>
  <scstep>
   <time name="diag">    0.08    0.08</time>
   <time name="diis">    0.72    0.73</time>
   <time name="orth">    0.01    0.01</time>
   <time name="total">    1.03    1.10</time>
   <energy>
    <i name="e_fr_energy">   -360.71876525 </i>
    <i name="e_wo_entrp">   -360.74055214 </i>
    <i name="e_0_energy">   -360.72602755 </i>
   </energy>
  </scstep>
  <scstep>
   <time name="diag">    0.12    0.12</time>
   <time name="diis">    0.73    0.75</time>
   <time name="orth">    0.01    0.01</time>
   <time name="total">    0.92    0.98</time>
   <energy>
    <i name="e_fr_energy">   -360.71259181 </i>
    <i name="e_wo_entrp">   -360.73468494 </i>
    <i name="e_0_energy">   -360.71995619 </i>
   </energy>
  </scstep>
  <scstep>
   <time name="diag">    0.08    0.08</time>
   <time name="diis">    0.79    0.84</time>
   <time name="orth">    0.01    0.01</time>
   <time name="total">    0.95    1.02</time>
   <energy>
    <i name="e_fr_energy">   -360.70929198 </i>
    <i name="e_wo_entrp">   -360.73128169 </i>
    <i name="e_0_energy">   -360.71662188 </i>
   </energy>
  </scstep>
  <scstep>
   <time name="diag">    0.07    0.08</time>
   <time name="diis">    0.73    0.75</time>
   <time name="orth">    0.01    0.01</time>
   <time name="total">    0.88    0.93</time>
   <energy>
    <i name="e_fr_energy">   -360.70897408 </i>
    <i name="e_wo_entrp">   -360.73095352 </i>
    <i name="e_0_energy">   -360.71630056 </i>
   </energy>
  </scstep>
  <scstep>
   <time name="diag">    0.08    0.08</time>
   <time name="diis">    0.76    0.78</time>
   <time name="orth">    0.01    0.01</time>
   <time name="total">    0.91    0.95</time>
   <energy>
    <i name="e_fr_energy">   -360.70905632 </i>
    <i name="e_wo_entrp">   -360.73103778 </i>
    <i name="e_0_energy">   -360.71638347 </i>
   </energy>
  </scstep>
  <scstep>
   <time name="diag">    0.08    0.08</time>
   <time name="diis">    0.70    0.72</time>
   <time name="orth">    0.01    0.01</time>
   <time name="total">    0.85    0.89</time>
   <energy>
    <i name="e_fr_energy">   -360.70917927 </i>
    <i name="e_wo_entrp">   -360.73113152 </i>
    <i name="e_0_energy">   -360.71649669 </i>
   </energy>
  </scstep>
  <scstep>
   <time name="diag">    0.07    0.08</time>
   <time name="diis">    0.66    0.67</time>
   <time name="orth">    0.01    0.01</time>
   <time name="total">    0.81    0.85</time>
   <energy>
    <i name="e_fr_energy">   -360.70922334 </i>
    <i name="e_wo_entrp">   -360.73118021 </i>
    <i name="e_0_energy">   -360.71654230 </i>
   </energy>
  </scstep>
  <scstep>
   <time name="diag">    0.07    0.08</time>
   <time name="diis">    0.53    0.54</time>
   <time name="orth">    0.01    0.01</time>
   <time name="total">    0.68    0.71</time>
   <energy>
    <i name="e_fr_energy">   -360.70925808 </i>
    <i name="e_wo_entrp">   -360.73121317 </i>
    <i name="e_0_energy">   -360.71657644 </i>
   </energy>
  </scstep>
  <scstep>
   <time name="diag">    0.07    0.08</time>
   <time name="diis">    0.57    0.58</time>
   <time name="orth">    0.01    0.01</time>
   <time name="total">    0.72    0.76</time>
   <energy>
    <i name="e_fr_energy">   -360.70928920 </i>
    <i name="e_wo_entrp">   -360.73125120 </i>
    <i name="e_0_energy">   -360.71660987 </i>
   </energy>
  </scstep>
  <scstep>
   <time name="diag">    0.08    0.08</time>
   <time name="diis">    0.40    0.41</time>
   <time name="orth">    0.01    0.01</time>
   <time name="total">    0.56    0.60</time>
   <energy>
    <i name="e_fr_energy">   -360.70930406 </i>
    <i name="e_wo_entrp">   -360.73125216 </i>
    <i name="e_0_energy">   -360.71662009 </i>
   </energy>
  </scstep>
  <scstep>
   <time name="diag">    0.07    0.08</time>
   <time name="diis">    0.43    0.44</time>
   <time name="orth">    0.01    0.01</time>
   <time name="total">    0.55    0.58</time>
   <energy>
    <i name="alphaZ">   1396.64852857 </i>
    <i name="ewald"> -17576.84325236 </i>
    <i name="hartreedc">  -5672.52712805 </i>
    <i name="XCdc">   -486.07369383 </i>
    <i name="pawpsdc">  32086.78696857 </i>
    <i name="pawaedc"> -30390.54352183 </i>
    <i name="eentropy">      0.02196478 </i>
    <i name="bandstr">  -2260.55571623 </i>
    <i name="atom">  22542.37654026 </i>
    <i name="e_fr_energy">   -360.70931014 </i>
    <i name="e_wo_entrp">   -360.73127491 </i>
    <i name="e_0_energy">   -360.71663173 </i>
   </energy>
  </scstep>
  <structure>
   <crystal>
    <varray name="basis" >
     <v>       7.03165928       0.00111041      -0.04384741 </v>
     <v>       0.00175473      10.26455358      -0.00336810 </v>
     <v>      -0.06529342      -0.00340187      10.30168392 </v>
    </varray>
    <i name="volume">    743.51353963 </i>
    <varray name="rec_basis" >
     <v>       0.14221957      -0.00002402       0.00090140 </v>
     <v>      -0.00001518       0.09742266       0.00003208 </v>
     <v>       0.00060533       0.00003175       0.09707536 </v>
    </varray>
   </crystal>
   <varray name="positions" >
    <v>       0.74230627       0.82977011       0.82938280 </v>
    <v>       0.75563143       0.83622146       0.16957439 </v>
    <v>       0.99146844       0.98891834       0.32349143 </v>
    <v>       0.28461616       0.49526529       0.14348690 </v>
    <v>       0.24179941       0.84888759       0.17391941 </v>
    <v>       0.51483111       0.99735666       0.66774580 </v>
    <v>       0.72293557       0.50256022       0.15218916 </v>
    <v>       0.77877441       0.15436056       0.48633327 </v>
    <v>       0.50457700       0.67386638       0.99769802 </v>
    <v>       0.70986002       0.16204267       0.84742738 </v>
    <v>       0.50841574       0.66849727       0.67318908 </v>
    <v>       0.99524041       0.67496071       0.69437672 </v>
    <v>       0.25070106       0.83198262       0.82121578 </v>
    <v>       0.51231097       0.34355902       0.99867275 </v>
    <v>       0.73943457       0.50671476       0.84171518 </v>
    <v>       0.00162027       0.35007022       0.31666389 </v>
    <v>       0.49308008       0.66909756       0.32592136 </v>
    <v>       0.22790503       0.16614012       0.50180089 </v>
    <v>       0.27543385       0.17131627       0.82845577 </v>
    <v>       0.00027973       0.66874377       0.00190542 </v>
    <v>       0.50905151       0.33579652       0.34136515 </v>
    <v>       0.78714572       0.51888404       0.50510352 </v>
    <v>       0.76996263       0.82884815       0.50378592 </v>
    <v>       0.25552196       0.49543644       0.83465635 </v>
    <v>       0.25033823       0.16121051       0.16764841 </v>
    <v>       0.23679209       0.83282896       0.50848715 </v>
    <v>       0.99179885       0.99692360       0.99523732 </v>
    <v>       0.96526202       0.31990695       0.68202016 </v>
    <v>       0.74343637       0.16190096       0.16619571 </v>
    <v>       0.97742007       0.00832417       0.68566171 </v>
    <v>       0.22912097       0.50235381       0.51653716 </v>
    <v>       0.01716325       0.66219787       0.30682760 </v>
    <v>       0.49446048       0.97548199       0.99771754 </v>
    <v>       0.50864906       0.99543823       0.34231994 </v>
    <v>       0.53045353       0.33012111       0.65308327 </v>
    <v>       0.98219771       0.33402110       0.99819672 </v>
   </varray>
  </structure>
  <varray name="forces" >
   <v>      -0.35704944      -0.35040011      -0.33981053 </v>
   <v>      -0.02973823      -0.02863242      -0.01342637 </v>
   <v>      -0.01053562       0.02234705      -0.03271422 </v>
   <v>      -0.02465366       0.01333220       0.00717782 </v>
   <v>       0.02551177      -0.05033899      -0.02776795 </v>
   <v>       0.00694805      -0.08375159      -0.02839988 </v>
   <v>       0.01529403       0.01422505       0.03106344 </v>
   <v>      -0.00148564       0.01046814       0.01546157 </v>
   <v>      -0.01391646       0.02794868      -0.06760526 </v>
   <v>       0.00147533      -0.00080263      -0.01344619 </v>
   <v>       0.10751597       0.07313016       0.33622520 </v>
   <v>      -0.02499195       0.00423569       0.00487550 </v>
   <v>       0.32269468      -0.30107248      -0.17227779 </v>
   <v>      -0.01186843      -0.04219952       0.00858501 </v>
   <v>      -0.25142623       0.26147703      -0.38348870 </v>
   <v>       0.01018798      -0.00502703      -0.02609201 </v>
   <v>      -0.01203764      -0.01864590       0.10755756 </v>
   <v>       0.02526179       0.01171131       0.03161260 </v>
   <v>      -0.01013556       0.00408254       0.00150724 </v>
   <v>       0.00786821      -0.00074587       0.01662374 </v>
   <v>      -0.00586416      -0.05198630      -0.04026329 </v>
   <v>      -0.31117367       0.14061964       0.21922347 </v>
   <v>      -0.26187039      -0.19038171       0.19920356 </v>
   <v>       0.14944608       0.20374992      -0.19779832 </v>
   <v>       0.00245723       0.00621280      -0.00204489 </v>
   <v>       0.28902174      -0.21429361       0.13833266 </v>
   <v>       0.00558594       0.03624128       0.02061884 </v>
   <v>       0.02427352      -0.01385516       0.01332536 </v>
   <v>      -0.00016822       0.03078385       0.00127231 </v>
   <v>       0.01058088       0.00061509      -0.02419956 </v>
   <v>       0.32675633       0.25838008       0.18899546 </v>
   <v>       0.00650932       0.00399257       0.00099647 </v>
   <v>      -0.01762085       0.06266135       0.04143569 </v>
   <v>       0.01109793       0.06374379      -0.02598797 </v>
   <v>      -0.00474982       0.11198080      -0.01279924 </v>
   <v>       0.00079919      -0.00980570       0.02402867 </v>
  </varray>
  <varray name="stress" >
   <v>      -3.26511452       0.02118053      -0.57097105 </v>
   <v>       0.02118051      -1.68190767       0.20080160 </v>
   <v>      -0.57097105       0.20080164      -1.30752407 </v>
  </varray>
  <energy>
   <i name="e_fr_energy">   -360.70931014 </i>
   <i name="e_wo_entrp">   -360.71663173 </i>
   <i name="e_0_energy">      0.02196478 </i>
  </energy>
  <time name="totalsc">   11.58   12.34</time>
 </calculation>
 <calculation>
  <scstep>
   <time name="dav">    0.91    0.93</time>
   <time name="total">    1.14    1.27</time>
   <energy>
    <i name="alphaZ">   1409.93999990 </i>
    <i name="ewald"> -17620.49880533 </i>
    <i name="hartreedc">  -5702.24060565 </i>
    <i name="XCdc">   -483.62130958 </i>
    <i name="pawpsdc">  32087.11778080 </i>
    <i name="pawaedc"> -30390.85885031 </i>
    <i name="eentropy">      0.02063581 </i>
    <i name="bandstr">  -2203.10603515 </i>
    <i name="atom">  22542.37654026 </i>
    <i name="e_fr_energy">   -360.87064924 </i>
    <i name="e_wo_entrp">   -360.89128505 </i>
    <i name="e_0_energy">   -360.87752784 </i>
   </energy>
  </scstep>
  <scstep>
   <time name="diag">    0.13    0.13</time>
   <time name="diis">    0.68    0.70</time>
   <time name="orth">    0.01    0.01</time>
   <time name="total">    0.88    0.93</time>
   <energy>
    <i name="e_fr_energy">   -360.78958082 </i>
    <i name="e_wo_entrp">   -360.81015795 </i>
    <i name="e_0_energy">   -360.79643986 </i>
   </energy>
  </scstep>
  <scstep>
   <time name="diag">    0.08    0.08</time>
   <time name="diis">    0.65    0.77</time>
   <time name="orth">    0.01    0.01</time>
   <time name="total">    0.80    0.94</time>
   <energy>
    <i name="e_fr_energy">   -360.76118640 </i>
    <i name="e_wo_entrp">   -360.78259050 </i>
    <i name="e_0_energy">   -360.76832110 </i>
   </energy>
  </scstep>
  <scstep>
   <time name="diag">    0.07    0.08</time>
   <time name="diis">    0.74    0.77</time>
   <time name="orth">    0.01    0.01</time>
   <time name="total">    0.89    0.94</time>
   <energy>
    <i name="e_fr_energy">   -360.74558154 </i>
    <i name="e_wo_entrp">   -360.76657517 </i>
    <i name="e_0_energy">   -360.75257942 </i>
   </energy>
  </scstep>
  <scstep>
   <time name="diag">    0.08    0.08</time>
   <time name="diis">    0.75    0.77</time>
   <time name="orth">    0.01    0.01</time>
   <time name="total">    0.90    0.96</time>
   <energy>
    <i name="e_fr_energy">   -360.74390600 </i>
    <i name="e_wo_entrp">   -360.76487668 </i>
    <i name="e_0_energy">   -360.75089623 </i>
   </energy>
  </scstep>
  <scstep>
   <time name="diag">    0.08    0.08</time>
   <time name="diis">    0.80    0.82</time>
   <time name="orth">    0.01    0.01</time>
   <time name="total">    0.95    1.00</time>
   <energy>
    <i name="e_fr_energy">   -360.74415535 </i>
    <i name="e_wo_entrp">   -360.76517357 </i>
    <i name="e_0_energy">   -360.75116142 </i>
   </energy>
  </scstep>
  <scstep>
   <time name="diag">    0.08    0.08</time>
   <time name="diis">    0.80    0.82</time>
   <time name="orth">    0.02    0.02</time>
   <time name="total">    0.99    1.04</time>
   <energy>
    <i name="e_fr_energy">   -360.74462109 </i>
    <i name="e_wo_entrp">   -360.76553701 </i>
    <i name="e_0_energy">   -360.75159306 </i>
   </energy>
  </scstep>
  <scstep>
   <time name="diag">    0.08    0.08</time>
   <time name="diis">    0.78    0.80</time>
   <time name="orth">    0.01    0.01</time>
   <time name="total">    0.93    1.00</time>
   <energy>
    <i name="e_fr_energy">   -360.74478629 </i>
    <i name="e_wo_entrp">   -360.76573209 </i>
    <i name="e_0_energy">   -360.75176822 </i>
   </energy>
  </scstep>
  <scstep>
   <time name="diag">    0.08    0.08</time>
   <time name="diis">    0.71    0.73</time>
   <time name="orth">    0.01    0.01</time>
   <time name="total">    0.87    0.90</time>
   <energy>
    <i name="e_fr_energy">   -360.74491677 </i>
    <i name="e_wo_entrp">   -360.76585296 </i>
    <i name="e_0_energy">   -360.75189550 </i>
   </energy>
  </scstep>
  <scstep>
   <time name="diag">    0.08    0.08</time>
   <time name="diis">    0.65    0.66</time>
   <time name="orth">    0.01    0.01</time>
   <time name="total">    0.81    0.86</time>
   <energy>
    <i name="e_fr_energy">   -360.74502665 </i>
    <i name="e_wo_entrp">   -360.76597402 </i>
    <i name="e_0_energy">   -360.75200911 </i>
   </energy>
  </scstep>
  <scstep>
   <time name="diag">    0.12    0.12</time>
   <time name="diis">    0.66    0.67</time>
   <time name="orth">    0.01    0.01</time>
   <time name="total">    0.86    0.89</time>
   <energy>
    <i name="e_fr_energy">   -360.74508806 </i>
    <i name="e_wo_entrp">   -360.76600818 </i>
    <i name="e_0_energy">   -360.75206143 </i>
   </energy>
  </scstep>
  <scstep>
   <time name="diag">    0.08    0.08</time>
   <time name="diis">    0.55    0.57</time>
   <time name="orth">    0.02    0.02</time>
   <time name="total">    0.75    0.80</time>
   <energy>
    <i name="e_fr_energy">   -360.74510748 </i>
    <i name="e_wo_entrp">   -360.76606482 </i>
    <i name="e_0_energy">   -360.75209326 </i>
   </energy>
  </scstep>
  <scstep>
   <time name="diag">    0.09    0.10</time>
   <time name="diis">    0.42    0.43</time>
   <time name="orth">    0.01    0.01</time>
   <time name="total">    0.55    0.64</time>
   <energy>
    <i name="alphaZ">   1409.93999990 </i>
    <i name="ewald"> -17620.49880533 </i>
    <i name="hartreedc">  -5669.50403256 </i>
    <i name="XCdc">   -485.02289331 </i>
    <i name="pawpsdc">  32522.91882363 </i>
    <i name="pawaedc"> -30825.92058444 </i>
    <i name="eentropy">      0.02093511 </i>
    <i name="bandstr">  -2235.05509253 </i>
    <i name="atom">  22542.37654026 </i>
    <i name="e_fr_energy">   -360.74510926 </i>
    <i name="e_wo_entrp">   -360.76604437 </i>
    <i name="e_0_energy">   -360.75208763 </i>
   </energy>
  </scstep>
  <structure>
   <crystal>
    <varray name="basis" >
     <v>       7.00626509       0.00124548      -0.04592694 </v>
     <v>       0.00195589      10.23371606      -0.00265216 </v>
     <v>      -0.06828663      -0.00268348      10.27245905 </v>
    </varray>
    <i name="volume">    736.50445492 </i>
    <varray name="rec_basis" >
     <v>       0.14273562      -0.00002703       0.00094883 </v>
     <v>      -0.00001720       0.09771622       0.00002541 </v>
     <v>       0.00063815       0.00002511       0.09735192 </v>
    </varray>
   </crystal>
   <varray name="positions" >
    <v>       0.74048808       0.82850315       0.82814735 </v>
    <v>       0.75551830       0.83612348       0.16953433 </v>
    <v>       0.99138541       0.98901805       0.32331162 </v>
    <v>       0.28460358       0.49531324       0.14348453 </v>
    <v>       0.24188637       0.84874687       0.17385360 </v>
    <v>       0.51493895       0.99705256       0.66771098 </v>
    <v>       0.72290453       0.50261232       0.15223253 </v>
    <v>       0.77878392       0.15436178       0.48638978 </v>
    <v>       0.50457480       0.67396831       0.99747861 </v>
    <v>       0.70980624       0.16202476       0.84736795 </v>
    <v>       0.50904382       0.66879257       0.67433598 </v>
    <v>       0.99509065       0.67505259       0.69446214 </v>
    <v>       0.25224199       0.83092328       0.82056579 </v>
    <v>       0.51231309       0.34343426       0.99874535 </v>
    <v>       0.73810764       0.50763729       0.84041383 </v>
    <v>       0.00163590       0.35000832       0.31650017 </v>
    <v>       0.49302224       0.66905788       0.32628140 </v>
    <v>       0.22800625       0.16617481       0.50190606 </v>
    <v>       0.27544860       0.17131469       0.82844452 </v>
    <v>       0.00030284       0.66875617       0.00198592 </v>
    <v>       0.50905257       0.33561046       0.34121487 </v>
    <v>       0.78563665       0.51938111       0.50587251 </v>
    <v>       0.76868579       0.82819225       0.50447622 </v>
    <v>       0.25631586       0.49615600       0.83398593 </v>
    <v>       0.25035809       0.16120516       0.16765576 </v>
    <v>       0.23818482       0.83211239       0.50898890 </v>
    <v>       0.99183512       0.99706473       0.99532405 </v>
    <v>       0.96529868       0.31981434       0.68208935 </v>
    <v>       0.74342424       0.16200414       0.16622305 </v>
    <v>       0.97740299       0.00837188       0.68560730 </v>
    <v>       0.23072006       0.50320105       0.51722821 </v>
    <v>       0.01721328       0.66223631       0.30674498 </v>
    <v>       0.49440560       0.97563904       0.99786068 </v>
    <v>       0.50872448       0.99566678       0.34221438 </v>
    <v>       0.53047404       0.33051721       0.65305374 </v>
    <v>       0.98216054       0.33395676       0.99831660 </v>
   </varray>
  </structure>
  <varray name="forces" >
   <v>      -0.23741443      -0.19230460      -0.18177245 </v>
   <v>      -0.03899107      -0.02049964      -0.01421774 </v>
   <v>       0.00667320       0.00147787       0.02581766 </v>
   <v>      -0.07155241       0.00745723       0.02418576 </v>
   <v>       0.03773798      -0.05854343      -0.04070214 </v>
   <v>      -0.03295554      -0.04271323      -0.06687943 </v>
   <v>       0.06488968       0.00840345       0.06754860 </v>
   <v>      -0.00982398       0.03135149       0.00842210 </v>
   <v>      -0.04523151       0.01497547      -0.05054157 </v>
   <v>       0.03074951       0.01000385      -0.00064971 </v>
   <v>       0.02827302       0.01357342       0.22791850 </v>
   <v>      -0.00401083      -0.05352051      -0.04935117 </v>
   <v>       0.26037302      -0.18775936      -0.06511417 </v>
   <v>      -0.03726621      -0.04496237      -0.02388094 </v>
   <v>      -0.14774491       0.15835628      -0.27737428 </v>
   <v>       0.02377264       0.02827256       0.03345420 </v>
   <v>      -0.00751361      -0.03096573       0.07757454 </v>
   <v>       0.03136994       0.01173518       0.02478093 </v>
   <v>      -0.03935805       0.01338236       0.01343695 </v>
   <v>       0.01256571      -0.00943132      -0.00379953 </v>
   <v>      -0.01975385      -0.02989581      -0.01909213 </v>
   <v>      -0.24405835       0.08843312       0.13632927 </v>
   <v>      -0.19850484      -0.13109866       0.12426539 </v>
   <v>       0.07879324       0.12665157      -0.13999663 </v>
   <v>      -0.00200773       0.02251026      -0.01263676 </v>
   <v>       0.23343797      -0.16459705       0.07872052 </v>
   <v>       0.00106660       0.01353906       0.00294413 </v>
   <v>       0.05968962       0.02303398      -0.00830977 </v>
   <v>       0.00532179       0.02316074      -0.01591646 </v>
   <v>       0.04311768      -0.03318301      -0.03690676 </v>
   <v>       0.25561389       0.21201931       0.10562191 </v>
   <v>      -0.00356674      -0.01483359       0.06380568 </v>
   <v>      -0.02761277       0.08582730       0.02751531 </v>
   <v>      -0.00171482       0.03759984      -0.00575705 </v>
   <v>      -0.02610470       0.06837412      -0.02069711 </v>
   <v>       0.02174086       0.01416986      -0.00874566 </v>
  </varray>
  <varray name="stress" >
   <v>       9.57299160      -0.03382345      -0.10865834 </v>
   <v>      -0.03382347      11.27712588       0.27182617 </v>
   <v>      -0.10865832       0.27182620      11.66460722 </v>
  </varray>
  <energy>
   <i name="e_fr_energy">   -360.74510926 </i>
   <i name="e_wo_entrp">   -360.75208763 </i>
   <i name="e_0_energy">      0.02093511 </i>
  </energy>
  <time name="totalsc">   12.84   13.79</time>
 </calculation>
 <calculation>
  <scstep>
   <time name="dav">    0.87    0.89</time>
   <time name="total">    1.04    1.18</time>
   <energy>
    <i name="alphaZ">   1407.17299715 </i>
    <i name="ewald"> -17601.09645863 </i>
    <i name="hartreedc">  -5673.56343580 </i>
    <i name="XCdc">   -485.51778457 </i>
    <i name="pawpsdc">  32523.64021895 </i>
    <i name="pawaedc"> -30826.61950695 </i>
    <i name="eentropy">      0.02066130 </i>
    <i name="bandstr">  -2247.18905023 </i>
    <i name="atom">  22542.37654026 </i>
    <i name="e_fr_energy">   -360.77581854 </i>
    <i name="e_wo_entrp">   -360.79647983 </i>
    <i name="e_0_energy">   -360.78270564 </i>
   </energy>
  </scstep>
  <scstep>
   <time name="diag">    0.08    0.08</time>
   <time name="diis">    0.70    0.72</time>
   <time name="orth">    0.01    0.01</time>
   <time name="total">    0.85    0.89</time>
   <energy>
    <i name="e_fr_energy">   -360.78387374 </i>
    <i name="e_wo_entrp">   -360.80538993 </i>
    <i name="e_0_energy">   -360.79104580 </i>
   </energy>
  </scstep>
  <scstep>
   <time name="diag">    0.07    0.08</time>
   <time name="diis">    0.72    0.74</time>
   <time name="orth">    0.01    0.01</time>
   <time name="total">    0.87    0.92</time>
   <energy>
    <i name="e_fr_energy">   -360.78034532 </i>
    <i name="e_wo_entrp">   -360.80083036 </i>
    <i name="e_0_energy">   -360.78717367 </i>
   </energy>
  </scstep>
  <scstep>
   <time name="diag">    0.07    0.08</time>
   <time name="diis">    0.70    0.78</time>
   <time name="orth">    0.01    0.01</time>
   <time name="total">    0.85    0.95</time>
   <energy>
    <i name="e_fr_energy">   -360.77870864 </i>
    <i name="e_wo_entrp">   -360.79956567 </i>
    <i name="e_0_energy">   -360.78566098 </i>
   </energy>
  </scstep>
  <scstep>
   <time name="diag">    0.08    0.08</time>
   <time name="diis">    0.74    0.76</time>
   <time name="orth">    0.04    0.05</time>
   <time name="total">    0.94    0.98</time>
   <energy>
    <i name="e_fr_energy">   -360.77851755 </i>
    <i name="e_wo_entrp">   -360.79943419 </i>
    <i name="e_0_energy">   -360.78548976 </i>
   </energy>
  </scstep>
  <scstep>
   <time name="diag">    0.07    0.08</time>
   <time name="diis">    0.79    0.83</time>
   <time name="orth">    0.01    0.01</time>
   <time name="total">    0.94    1.01</time>
   <energy>
    <i name="e_fr_energy">   -360.77846730 </i>
    <i name="e_wo_entrp">   -360.79923499 </i>
    <i name="e_0_energy">   -360.78538987 </i>
   </energy>
  </scstep>
  <scstep>
   <time name="diag">    0.07    0.08</time>
   <time name="diis">    0.70    0.71</time>
   <time name="orth">    0.01    0.01</time>
   <time name="total">    0.86    0.89</time>
   <energy>
    <i name="e_fr_energy">   -360.77846815 </i>
    <i name="e_wo_entrp">   -360.79935358 </i>
    <i name="e_0_energy">   -360.78542996 </i>
   </energy>
  </scstep>
  <scstep>
   <time name="diag">    0.08    0.08</time>
   <time name="diis">    0.64    0.65</time>
   <time name="orth">    0.01    0.01</time>
   <time name="total">    0.82    0.86</time>
   <energy>
    <i name="e_fr_energy">   -360.77845990 </i>
    <i name="e_wo_entrp">   -360.79930179 </i>
    <i name="e_0_energy">   -360.78540720 </i>
   </energy>
  </scstep>
  <scstep>
   <time name="diag">    0.10    0.10</time>
   <time name="diis">    0.49    0.52</time>
   <time name="orth">    0.01    0.01</time>
   <time name="total">    0.69    0.74</time>
   <energy>
    <i name="alphaZ">   1407.17299715 </i>
    <i name="ewald"> -17601.09645863 </i>
    <i name="hartreedc">  -5680.80302235 </i>
    <i name="XCdc">   -485.21402184 </i>
    <i name="pawpsdc">  32434.82951203 </i>
    <i name="pawaedc"> -30737.71469284 </i>
    <i name="eentropy">      0.02085156 </i>
    <i name="bandstr">  -2240.35016616 </i>
    <i name="atom">  22542.37654026 </i>
    <i name="e_fr_energy">   -360.77846081 </i>
    <i name="e_wo_entrp">   -360.79931237 </i>
    <i name="e_0_energy">   -360.78541133 </i>
   </energy>
  </scstep>
  <structure>
   <crystal>
    <varray name="basis" >
     <v>       7.00816000       0.00125559      -0.04691525 </v>
     <v>       0.00197492      10.24174190      -0.00192236 </v>
     <v>      -0.06969284      -0.00195045      10.28183000 </v>
    </varray>
    <i name="volume">    737.95268471 </i>
    <varray name="rec_basis" >
     <v>       0.14269729      -0.00002733       0.00096723 </v>
     <v>      -0.00001737       0.09763965       0.00001840 </v>
     <v>       0.00065111       0.00001813       0.09726337 </v>
    </varray>
   </crystal>
   <varray name="positions" >
    <v>       0.73935569       0.82777987       0.82744823 </v>
    <v>       0.75540208       0.83606027       0.16950068 </v>
    <v>       0.99136717       0.98905734       0.32327756 </v>
    <v>       0.28446406       0.49534087       0.14351419 </v>
    <v>       0.24198974       0.84861845       0.17377684 </v>
    <v>       0.51491633       0.99688338       0.66761153 </v>
    <v>       0.72301627       0.50264271       0.15233632 </v>
    <v>       0.77876903       0.15440276       0.48642173 </v>
    <v>       0.50448789       0.67402586       0.99733094 </v>
    <v>       0.70984412       0.16203098       0.84734510 </v>
    <v>       0.50933574       0.66892080       0.67505947 </v>
    <v>       0.99502634       0.67501782       0.69443052 </v>
    <v>       0.25331053       0.83028356       0.82024072 </v>
    <v>       0.51224324       0.34332939       0.99874147 </v>
    <v>       0.73732740       0.50818765       0.83956776 </v>
    <v>       0.00168703       0.35002168       0.31648213 </v>
    <v>       0.49298741       0.66900299       0.32651612 </v>
    <v>       0.22810377       0.16620297       0.50197766 </v>
    <v>       0.27537997       0.17133141       0.82845728 </v>
    <v>       0.00033520       0.66874862       0.00201129 </v>
    <v>       0.50901542       0.33550210       0.34113381 </v>
    <v>       0.78461182       0.51968176       0.50633401 </v>
    <v>       0.76783398       0.82777710       0.50489305 </v>
    <v>       0.25676037       0.49658929       0.83355523 </v>
    <v>       0.25036158       0.16123225       0.16764223 </v>
    <v>       0.23914891       0.83163108       0.50928031 </v>
    <v>       0.99185078       0.99713511       0.99536034 </v>
    <v>       0.96542503       0.31980939       0.68210509 </v>
    <v>       0.74342954       0.16207274       0.16621284 </v>
    <v>       0.97747755       0.00834684       0.68553973 </v>
    <v>       0.23180361       0.50379254       0.51762546 </v>
    <v>       0.01722610       0.66223157       0.30679617 </v>
    <v>       0.49433322       0.97580884       0.99794953 </v>
    <v>       0.50874942       0.99580103       0.34216743 </v>
    <v>       0.53043214       0.33075402       0.65301581 </v>
    <v>       0.98218756       0.33395096       0.99835044 </v>
   </varray>
  </structure>
  <varray name="forces" >
   <v>      -0.17140437      -0.10937758      -0.10628299 </v>
   <v>      -0.02789194      -0.00906609      -0.00724990 </v>
   <v>       0.00209185      -0.02532778       0.03550614 </v>
   <v>      -0.05469107       0.00156629       0.00755862 </v>
   <v>       0.02432127      -0.04115123      -0.03192127 </v>
   <v>      -0.03294032      -0.02058988      -0.05997870 </v>
   <v>       0.04632724       0.00191127       0.05109656 </v>
   <v>       0.00444836       0.02666322      -0.00073798 </v>
   <v>      -0.04325187      -0.00136426      -0.03133145 </v>
   <v>       0.02495536       0.01820106       0.00044776 </v>
   <v>      -0.00627758      -0.01076883       0.17798573 </v>
   <v>      -0.00081091      -0.05985082      -0.05153523 </v>
   <v>       0.21680007      -0.12926158      -0.02567329 </v>
   <v>      -0.02622625      -0.01888131      -0.02781653 </v>
   <v>      -0.09600050       0.10459439      -0.19568448 </v>
   <v>       0.02544728       0.05305854       0.05887885 </v>
   <v>      -0.00637844      -0.03447200       0.02958799 </v>
   <v>       0.01883210       0.00466640       0.02253143 </v>
   <v>      -0.03077782       0.01652294       0.01221899 </v>
   <v>       0.00330224      -0.01032890      -0.01387472 </v>
   <v>      -0.01955703      -0.01529680      -0.01528040 </v>
   <v>      -0.18901280       0.06267355       0.09892629 </v>
   <v>      -0.15313264      -0.08444229       0.09006245 </v>
   <v>       0.04719975       0.08694828      -0.09323391 </v>
   <v>      -0.01133966       0.01743434      -0.01173683 </v>
   <v>       0.18978521      -0.13071515       0.05106469 </v>
   <v>      -0.00822008      -0.01226085      -0.00252256 </v>
   <v>       0.05342857       0.03059859      -0.01829595 </v>
   <v>       0.01683528       0.01498779      -0.02314988 </v>
   <v>       0.03739058      -0.05129536      -0.03303725 </v>
   <v>       0.19544934       0.18417681       0.06553637 </v>
   <v>      -0.00648097      -0.01799870       0.07774056 </v>
   <v>      -0.02313605       0.07247018       0.01105799 </v>
   <v>       0.00419094       0.01695545       0.00027866 </v>
   <v>      -0.01533812       0.03202479      -0.01597630 </v>
   <v>       0.01206294       0.03699554      -0.02515949 </v>
  </varray>
  <varray name="stress" >
   <v>       7.19781480      -0.03410932       0.05996966 </v>
   <v>      -0.03410932       8.90993438       0.21427671 </v>
   <v>       0.05996968       0.21427673       9.24930043 </v>
  </varray>
  <energy>
   <i name="e_fr_energy">   -360.77846081 </i>
   <i name="e_wo_entrp">   -360.78541133 </i>
   <i name="e_0_energy">      0.02085156 </i>
  </energy>
  <time name="totalsc">    9.35   10.01</time>
 </calculation>
 <calculation>
  <scstep>
   <time name="dav">    0.85    0.88</time>
   <time name="total">    1.00    1.12</time>
   <energy>
    <i name="alphaZ">   1399.50519064 </i>
    <i name="ewald"> -17545.13403544 </i>
    <i name="hartreedc">  -5693.86786437 </i>
    <i name="XCdc">   -486.58186427 </i>
    <i name="pawpsdc">  32434.56012938 </i>
    <i name="pawaedc"> -30737.50126930 </i>
    <i name="eentropy">      0.02037108 </i>
    <i name="bandstr">  -2274.16672472 </i>
    <i name="atom">  22542.37654026 </i>
    <i name="e_fr_energy">   -360.78952674 </i>
    <i name="e_wo_entrp">   -360.80989782 </i>
    <i name="e_0_energy">   -360.79631710 </i>
   </energy>
  </scstep>
  <scstep>
   <time name="diag">    0.08    0.08</time>
   <time name="diis">    0.70    0.71</time>
   <time name="orth">    0.01    0.01</time>
   <time name="total">    0.85    0.89</time>
   <energy>
    <i name="e_fr_energy">   -360.85306095 </i>
    <i name="e_wo_entrp">   -360.87494964 </i>
    <i name="e_0_energy">   -360.86035718 </i>
   </energy>
  </scstep>
  <scstep>
   <time name="diag">    0.08    0.08</time>
   <time name="diis">    0.73    0.75</time>
   <time name="orth">    0.01    0.01</time>
   <time name="total">    0.88    0.92</time>
   <energy>
    <i name="e_fr_energy">   -360.83146587 </i>
    <i name="e_wo_entrp">   -360.85085862 </i>
    <i name="e_0_energy">   -360.83793012 </i>
   </energy>
  </scstep>
  <scstep>
   <time name="diag">    0.08    0.08</time>
   <time name="diis">    0.78    0.79</time>
   <time name="orth">    0.01    0.01</time>
   <time name="total">    0.93    0.97</time>
   <energy>
    <i name="e_fr_energy">   -360.81886233 </i>
    <i name="e_wo_entrp">   -360.83954103 </i>
    <i name="e_0_energy">   -360.82575523 </i>
   </energy>
  </scstep>
  <scstep>
   <time name="diag">    0.07    0.08</time>
   <time name="diis">    0.81    0.82</time>
   <time name="orth">    0.01    0.01</time>
   <time name="total">    0.95    1.00</time>
   <energy>
    <i name="e_fr_energy">   -360.81750234 </i>
    <i name="e_wo_entrp">   -360.83812895 </i>
    <i name="e_0_energy">   -360.82437787 </i>
   </energy>
  </scstep>
  <scstep>
   <time name="diag">    0.07    0.08</time>
   <time name="diis">    0.75    0.77</time>
   <time name="orth">    0.02    0.02</time>
   <time name="total">    0.93    0.97</time>
   <energy>
    <i name="e_fr_energy">   -360.81711261 </i>
    <i name="e_wo_entrp">   -360.83746333 </i>
    <i name="e_0_energy">   -360.82389619 </i>
   </energy>
  </scstep>
  <scstep>
   <time name="diag">    0.11    0.11</time>
   <time name="diis">    0.90    0.92</time>
   <time name="orth">    0.01    0.01</time>
   <time name="total">    1.08    1.13</time>
   <energy>
    <i name="e_fr_energy">   -360.81723940 </i>
    <i name="e_wo_entrp">   -360.83784784 </i>
    <i name="e_0_energy">   -360.82410888 </i>
   </energy>
  </scstep>
  <scstep>
   <time name="diag">    0.09    0.09</time>
   <time name="diis">    0.84    0.86</time>
   <time name="orth">    0.01    0.01</time>
   <time name="total">    1.00    1.05</time>
   <energy>
    <i name="e_fr_energy">   -360.81722158 </i>
    <i name="e_wo_entrp">   -360.83773266 </i>
    <i name="e_0_energy">   -360.82405861 </i>
   </energy>
  </scstep>
  <scstep>
   <time name="diag">    0.08    0.08</time>
   <time name="diis">    1.43    1.45</time>
   <time name="orth">    0.01    0.01</time>
   <time name="total">    1.59    1.63</time>
   <energy>
    <i name="e_fr_energy">   -360.81725622 </i>
    <i name="e_wo_entrp">   -360.83778225 </i>
    <i name="e_0_energy">   -360.82409823 </i>
   </energy>
  </scstep>
  <scstep>
   <time name="diag">    0.08    0.09</time>
   <time name="diis">    0.61    0.63</time>
   <time name="orth">    0.01    0.01</time>
   <time name="total">    0.77    0.82</time>
   <energy>
    <i name="e_fr_energy">   -360.81726915 </i>
    <i name="e_wo_entrp">   -360.83778253 </i>
    <i name="e_0_energy">   -360.82410694 </i>
   </energy>
  </scstep>
  <scstep>
   <time name="diag">    0.08    0.08</time>
   <time name="diis">    0.54    0.56</time>
   <time name="orth">    0.01    0.01</time>
   <time name="total">    0.69    0.73</time>
   <energy>
    <i name="e_fr_energy">   -360.81727108 </i>
    <i name="e_wo_entrp">   -360.83781807 </i>
    <i name="e_0_energy">   -360.82412008 </i>
   </energy>
  </scstep>
  <scstep>
   <time name="diag">    0.08    0.08</time>
   <time name="diis">    0.45    0.46</time>
   <time name="orth">    0.01    0.01</time>
   <time name="total">    0.57    0.60</time>
   <energy>
    <i name="alphaZ">   1399.50519064 </i>
    <i name="ewald"> -17545.13403544 </i>
    <i name="hartreedc">  -5713.43691536 </i>
    <i name="XCdc">   -485.76528809 </i>
    <i name="pawpsdc">  32191.43471171 </i>
    <i name="pawaedc"> -30494.77982351 </i>
    <i name="eentropy">      0.02052413 </i>
    <i name="bandstr">  -2255.03817314 </i>
    <i name="atom">  22542.37654026 </i>
    <i name="e_fr_energy">   -360.81726879 </i>
    <i name="e_wo_entrp">   -360.83779292 </i>
    <i name="e_0_energy">   -360.82411017 </i>
   </energy>
  </scstep>
  <structure>
   <crystal>
    <varray name="basis" >
     <v>       7.01343858       0.00128375      -0.04966832 </v>
     <v>       0.00202793      10.26409914       0.00011061 </v>
     <v>      -0.07361006       0.00009151      10.30793425 </v>
    </varray>
    <i name="volume">    741.99588401 </i>
    <varray name="rec_basis" >
     <v>       0.14259063      -0.00002818       0.00101826 </v>
     <v>      -0.00001784       0.09742697      -0.00000099 </v>
     <v>       0.00068707      -0.00000118       0.09701755 </v>
    </varray>
   </crystal>
   <varray name="positions" >
    <v>       0.73620173       0.82576679       0.82550233 </v>
    <v>       0.75507840       0.83588434       0.16940698 </v>
    <v>       0.99131636       0.98916669       0.32318275 </v>
    <v>       0.28407551       0.49541778       0.14359669 </v>
    <v>       0.24227755       0.84826099       0.17356325 </v>
    <v>       0.51485327       0.99641251       0.66733477 </v>
    <v>       0.72332751       0.50272729       0.15262519 </v>
    <v>       0.77872760       0.15451684       0.48651063 </v>
    <v>       0.50424577       0.67418609       0.99691993 </v>
    <v>       0.70994960       0.16204829       0.84728154 </v>
    <v>       0.51014909       0.66927758       0.67707305 </v>
    <v>       0.99484723       0.67492103       0.69434251 </v>
    <v>       0.25628612       0.82850299       0.81933641 </v>
    <v>       0.51204872       0.34303750       0.99873067 </v>
    <v>       0.73515404       0.50971971       0.83721271 </v>
    <v>       0.00182941       0.35005888       0.31643194 </v>
    <v>       0.49289053       0.66885019       0.32716935 </v>
    <v>       0.22837536       0.16628135       0.50217693 </v>
    <v>       0.27518885       0.17137796       0.82849278 </v>
    <v>       0.00042533       0.66872760       0.00208190 </v>
    <v>       0.50891191       0.33520050       0.34090823 </v>
    <v>       0.78175802       0.52051853       0.50761807 </v>
    <v>       0.76546198       0.82662144       0.50605302 </v>
    <v>       0.25799804       0.49779541       0.83235656 </v>
    <v>       0.25037129       0.16130766       0.16760457 </v>
    <v>       0.24183399       0.83029129       0.51009166 </v>
    <v>       0.99189441       0.99733101       0.99546135 </v>
    <v>       0.96577692       0.31979563       0.68214892 </v>
    <v>       0.74344430       0.16226367       0.16618442 </v>
    <v>       0.97768514       0.00827716       0.68535171 </v>
    <v>       0.23482142       0.50543884       0.51873124 </v>
    <v>       0.01726181       0.66221834       0.30693865 </v>
    <v>       0.49413169       0.97628147       0.99819675 </v>
    <v>       0.50881883       0.99617470       0.34203671 </v>
    <v>       0.53031544       0.33141317       0.65291019 </v>
    <v>       0.98226283       0.33393480       0.99844461 </v>
   </varray>
  </structure>
  <varray name="forces" >
   <v>       0.01342337       0.13388282       0.11833717 </v>
   <v>       0.00290937       0.02186235       0.01314163 </v>
   <v>      -0.01245964      -0.09269125       0.05687818 </v>
   <v>      -0.00827765      -0.01213271      -0.03592018 </v>
   <v>      -0.01149412       0.00465553      -0.01014045 </v>
   <v>      -0.03581343       0.04601646      -0.04496880 </v>
   <v>      -0.00271476      -0.01439984       0.01140485 </v>
   <v>       0.03920620       0.01411834      -0.02435034 </v>
   <v>      -0.04172433      -0.04437565       0.03063593 </v>
   <v>       0.00828392       0.03942900       0.00143412 </v>
   <v>      -0.12084803      -0.09123797       0.00906312 </v>
   <v>       0.01029747      -0.08106408      -0.06417805 </v>
   <v>       0.10471007       0.03671613       0.09429253 </v>
   <v>       0.00288976       0.04600158      -0.03623166 </v>
   <v>       0.05303157      -0.05020054       0.02852361 </v>
   <v>       0.02967586       0.11707939       0.12199597 </v>
   <v>      -0.00287264      -0.04369216      -0.10786063 </v>
   <v>      -0.01514157      -0.01609982       0.01719556 </v>
   <v>      -0.00918781       0.02227236       0.00855810 </v>
   <v>      -0.02103903      -0.01270569      -0.03670442 </v>
   <v>      -0.01808283       0.02864838      -0.00233508 </v>
   <v>      -0.04971968      -0.01041327      -0.00354469 </v>
   <v>      -0.03101431       0.04513365      -0.00815571 </v>
   <v>      -0.04307862      -0.02400761       0.03546925 </v>
   <v>      -0.03655477       0.00310128      -0.00914824 </v>
   <v>       0.07421274      -0.03770012      -0.02535745 </v>
   <v>      -0.02998448      -0.07594789      -0.01025728 </v>
   <v>       0.03699913       0.05212970      -0.04559242 </v>
   <v>       0.04857428      -0.00934300      -0.04398587 </v>
   <v>       0.02412851      -0.09716701      -0.02429778 </v>
   <v>       0.04792784       0.10826962      -0.04335022 </v>
   <v>      -0.01540194      -0.02672393       0.11598468 </v>
   <v>      -0.01251826       0.03615726      -0.03268583 </v>
   <v>       0.02115514      -0.04065680       0.01762303 </v>
   <v>       0.01214402      -0.06945634      -0.00438738 </v>
   <v>      -0.01164132       0.09454182      -0.06708528 </v>
  </varray>
  <varray name="stress" >
   <v>       0.33521419      -0.06838313       0.58096314 </v>
   <v>      -0.06838314       2.05699691       0.06012470 </v>
   <v>       0.58096314       0.06012469       2.42021746 </v>
  </varray>
  <energy>
   <i name="e_fr_energy">   -360.81726879 </i>
   <i name="e_wo_entrp">   -360.82411017 </i>
   <i name="e_0_energy">      0.02052413 </i>
  </energy>
  <time name="totalsc">   12.74   13.43</time>
 </calculation>
 <calculation>
  <scstep>
   <time name="dav">    0.89    0.92</time>
   <time name="total">    1.01    1.16</time>
   <energy>
    <i name="alphaZ">   1397.71794888 </i>
    <i name="ewald"> -17538.35592626 </i>
    <i name="hartreedc">  -5710.34601386 </i>
    <i name="XCdc">   -486.09742624 </i>
    <i name="pawpsdc">  32190.63713418 </i>
    <i name="pawaedc"> -30494.01609887 </i>
    <i name="eentropy">      0.02066554 </i>
    <i name="bandstr">  -2262.76164526 </i>
    <i name="atom">  22542.37654026 </i>
    <i name="e_fr_energy">   -360.82482163 </i>
    <i name="e_wo_entrp">   -360.84548717 </i>
    <i name="e_0_energy">   -360.83171015 </i>
   </energy>
  </scstep>
  <scstep>
   <time name="diag">    0.08    0.08</time>
   <time name="diis">    0.71    0.73</time>
   <time name="orth">    0.01    0.01</time>
   <time name="total">    0.86    0.90</time>
   <energy>
    <i name="e_fr_energy">   -360.82440966 </i>
    <i name="e_wo_entrp">   -360.84510652 </i>
    <i name="e_0_energy">   -360.83130861 </i>
   </energy>
  </scstep>
  <scstep>
   <time name="diag">    0.08    0.08</time>
   <time name="diis">    0.83    0.85</time>
   <time name="orth">    0.01    0.01</time>
   <time name="total">    1.00    1.06</time>
   <energy>
    <i name="e_fr_energy">   -360.82366419 </i>
    <i name="e_wo_entrp">   -360.84413563 </i>
    <i name="e_0_energy">   -360.83048801 </i>
   </energy>
  </scstep>
  <scstep>
   <time name="diag">    0.07    0.08</time>
   <time name="diis">    0.73    0.75</time>
   <time name="orth">    0.01    0.01</time>
   <time name="total">    0.89    0.94</time>
   <energy>
    <i name="e_fr_energy">   -360.82312522 </i>
    <i name="e_wo_entrp">   -360.84368779 </i>
    <i name="e_0_energy">   -360.82997941 </i>
   </energy>
  </scstep>
  <scstep>
   <time name="diag">    0.12    0.12</time>
   <time name="diis">    0.75    0.77</time>
   <time name="orth">    0.01    0.01</time>
   <time name="total">    0.94    0.99</time>
   <energy>
    <i name="e_fr_energy">   -360.82306775 </i>
    <i name="e_wo_entrp">   -360.84363737 </i>
    <i name="e_0_energy">   -360.82992429 </i>
   </energy>
  </scstep>
  <scstep>
   <time name="diag">    0.07    0.08</time>
   <time name="diis">    0.65    0.66</time>
   <time name="orth">    0.01    0.01</time>
   <time name="total">    0.80    0.84</time>
   <energy>
    <i name="e_fr_energy">   -360.82305890 </i>
    <i name="e_wo_entrp">   -360.84358612 </i>
    <i name="e_0_energy">   -360.82990130 </i>
   </energy>
  </scstep>
  <scstep>
[...]
       <r>    6.4045    1.0000 </r>
       <r>    6.4315    1.0000 </r>
       <r>    6.4621    1.0000 </r>
       <r>    6.5345    1.0000 </r>
       <r>    6.5508    1.0000 </r>
       <r>    6.5764    1.0000 </r>
       <r>    6.6326    1.0000 </r>
       <r>    6.6524    1.0000 </r>
       <r>    6.7286    1.0001 </r>
       <r>    6.7505    1.0003 </r>
       <r>    6.7570    1.0004 </r>
       <r>    6.7891    1.0010 </r>
       <r>    6.8068    1.0017 </r>
       <r>    6.8372    1.0039 </r>
       <r>    6.8552    1.0060 </r>
       <r>    6.9074    1.0169 </r>
       <r>    6.9478    1.0290 </r>
       <r>    7.0016    1.0331 </r>
       <r>    7.0404    1.0020 </r>
       <r>    7.0731    0.9342 </r>
       <r>    7.1212    0.7506 </r>
       <r>    7.1620    0.5338 </r>
       <r>    7.2100    0.2732 </r>
       <r>    7.2687    0.0506 </r>
       <r>    7.2843    0.0167 </r>
       <r>    7.3161   -0.0238 </r>
       <r>    7.3393   -0.0343 </r>
       <r>    7.3990   -0.0259 </r>
       <r>    7.4290   -0.0168 </r>
       <r>    7.4495   -0.0117 </r>
       <r>    7.5238   -0.0020 </r>
       <r>    7.5497   -0.0009 </r>
       <r>    7.5836   -0.0003 </r>
       <r>    7.6042   -0.0002 </r>
       <r>    7.6397   -0.0000 </r>
       <r>    7.6656   -0.0000 </r>
       <r>    7.7145   -0.0000 </r>
       <r>    7.7569   -0.0000 </r>
       <r>    7.8278   -0.0000 </r>
       <r>    7.8669   -0.0000 </r>
       <r>    7.9265   -0.0000 </r>
       <r>    8.0015   -0.0000 </r>
       <r>    8.0187   -0.0000 </r>
       <r>    8.0722   -0.0000 </r>
       <r>    8.1654   -0.0000 </r>
       <r>    8.2994   -0.0000 </r>
       <r>    8.4366   -0.0000 </r>
       <r>    8.5415   -0.0000 </r>
       <r>    8.8980   -0.0000 </r>
      </set>
     </set>
    </set>
   </array>
  </eigenvalues>
  <separator name="orbital magnetization" >
   <v name="MAGDIPOLOUT">      0.00000000      0.00000000      0.00000000</v>
  </separator>
  <dos>
   <i name="efermi">      7.16802840 </i>
   <total>
    <array>
     <dimension dim="1">gridpoints</dimension>
     <dimension dim="2">spin</dimension>
     <field>energy</field>
     <field>total</field>
     <field>integrated</field>
     <set>
      <set comment="spin 1">
       <r>   -49.8854     0.0000     0.0000 </r>
       <r>   -49.6798     0.0000     0.0000 </r>
       <r>   -49.4742     0.0000     0.0000 </r>
       <r>   -49.2686     0.0000     0.0000 </r>
       <r>   -49.0629     0.0000     0.0000 </r>
       <r>   -48.8573     0.0000     0.0000 </r>
       <r>   -48.6517     0.0000     0.0000 </r>
       <r>   -48.4461    -0.0000    -0.0000 </r>
       <r>   -48.2405    -0.0000    -0.0000 </r>
       <r>   -48.0349    -0.0000    -0.0000 </r>
       <r>   -47.8293    -0.0000    -0.0000 </r>
       <r>   -47.6237    -0.0000    -0.0000 </r>
       <r>   -47.4180    -0.0521    -0.0107 </r>
       <r>   -47.2124    -0.4184    -0.0967 </r>
       <r>   -47.0068    18.0131     3.6070 </r>
       <r>   -46.8012    18.0774     7.3239 </r>
       <r>   -46.5956     3.5788     8.0598 </r>
       <r>   -46.3900    -0.2889     8.0004 </r>
       <r>   -46.1844    -0.0018     8.0000 </r>
       <r>   -45.9788    -0.0000     8.0000 </r>
       <r>   -45.7731    -0.0000     8.0000 </r>
       <r>   -45.5675     0.0000     8.0000 </r>
       <r>   -45.3619     0.0000     8.0000 </r>
       <r>   -45.1563     0.0000     8.0000 </r>
       <r>   -44.9507     0.0000     8.0000 </r>
       <r>   -44.7451     0.0000     8.0000 </r>
       <r>   -44.5395     0.0000     8.0000 </r>
       <r>   -44.3339     0.0000     8.0000 </r>
       <r>   -44.1282     0.0000     8.0000 </r>
       <r>   -43.9226     0.0000     8.0000 </r>
       <r>   -43.7170     0.0000     8.0000 </r>
       <r>   -43.5114     0.0000     8.0000 </r>
       <r>   -43.3058     0.0000     8.0000 </r>
       <r>   -43.1002     0.0000     8.0000 </r>
       <r>   -42.8946     0.0000     8.0000 </r>
       <r>   -42.6890     0.0000     8.0000 </r>
       <r>   -42.4833    -0.0000     8.0000 </r>
       <r>   -42.2777    -0.0000     8.0000 </r>
       <r>   -42.0721    -0.0000     8.0000 </r>
       <r>   -41.8665    -0.0000     8.0000 </r>
       <r>   -41.6609    -0.0006     7.9999 </r>
       <r>   -41.4553    -0.3021     7.9378 </r>
       <r>   -41.2497     0.7198     8.0858 </r>
       <r>   -41.0441    61.7161    20.7754 </r>
       <r>   -40.8384    46.5720    30.3512 </r>
       <r>   -40.6328    -1.6022    30.0217 </r>
       <r>   -40.4272    -0.1056    30.0000 </r>
       <r>   -40.2216    -0.0001    30.0000 </r>
       <r>   -40.0160    -0.0000    30.0000 </r>
       <r>   -39.8104     0.0000    30.0000 </r>
       <r>   -39.6048     0.0000    30.0000 </r>
       <r>   -39.3992     0.0000    30.0000 </r>
       <r>   -39.1935     0.0000    30.0000 </r>
       <r>   -38.9879     0.0000    30.0000 </r>
       <r>   -38.7823     0.0000    30.0000 </r>
       <r>   -38.5767     0.0000    30.0000 </r>
       <r>   -38.3711     0.0000    30.0000 </r>
       <r>   -38.1655     0.0000    30.0000 </r>
       <r>   -37.9599     0.0000    30.0000 </r>
       <r>   -37.7543     0.0000    30.0000 </r>
       <r>   -37.5486     0.0000    30.0000 </r>
       <r>   -37.3430     0.0000    30.0000 </r>
       <r>   -37.1374     0.0000    30.0000 </r>
       <r>   -36.9318     0.0000    30.0000 </r>
       <r>   -36.7262     0.0000    30.0000 </r>
       <r>   -36.5206     0.0000    30.0000 </r>
       <r>   -36.3150     0.0000    30.0000 </r>
       <r>   -36.1094     0.0000    30.0000 </r>
       <r>   -35.9037     0.0000    30.0000 </r>
       <r>   -35.6981     0.0000    30.0000 </r>
       <r>   -35.4925     0.0000    30.0000 </r>
       <r>   -35.2869     0.0000    30.0000 </r>
       <r>   -35.0813     0.0000    30.0000 </r>
       <r>   -34.8757     0.0000    30.0000 </r>
       <r>   -34.6701     0.0000    30.0000 </r>
       <r>   -34.4645     0.0000    30.0000 </r>
       <r>   -34.2588     0.0000    30.0000 </r>
       <r>   -34.0532     0.0000    30.0000 </r>
       <r>   -33.8476     0.0000    30.0000 </r>
       <r>   -33.6420     0.0000    30.0000 </r>
       <r>   -33.4364     0.0000    30.0000 </r>
       <r>   -33.2308     0.0000    30.0000 </r>
       <r>   -33.0252     0.0000    30.0000 </r>
       <r>   -32.8196     0.0000    30.0000 </r>
       <r>   -32.6139     0.0000    30.0000 </r>
       <r>   -32.4083     0.0000    30.0000 </r>
       <r>   -32.2027     0.0000    30.0000 </r>
       <r>   -31.9971     0.0000    30.0000 </r>
       <r>   -31.7915     0.0000    30.0000 </r>
       <r>   -31.5859     0.0000    30.0000 </r>
       <r>   -31.3803     0.0000    30.0000 </r>
       <r>   -31.1747     0.0000    30.0000 </r>
       <r>   -30.9690     0.0000    30.0000 </r>
       <r>   -30.7634     0.0000    30.0000 </r>
       <r>   -30.5578     0.0000    30.0000 </r>
       <r>   -30.3522     0.0000    30.0000 </r>
       <r>   -30.1466     0.0000    30.0000 </r>
       <r>   -29.9410     0.0000    30.0000 </r>
       <r>   -29.7354     0.0000    30.0000 </r>
       <r>   -29.5298     0.0000    30.0000 </r>
       <r>   -29.3241     0.0000    30.0000 </r>
       <r>   -29.1185     0.0000    30.0000 </r>
       <r>   -28.9129     0.0000    30.0000 </r>
       <r>   -28.7073     0.0000    30.0000 </r>
       <r>   -28.5017     0.0000    30.0000 </r>
       <r>   -28.2961     0.0000    30.0000 </r>
       <r>   -28.0905     0.0000    30.0000 </r>
       <r>   -27.8849     0.0000    30.0000 </r>
       <r>   -27.6792     0.0000    30.0000 </r>
       <r>   -27.4736     0.0000    30.0000 </r>
       <r>   -27.2680     0.0000    30.0000 </r>
       <r>   -27.0624     0.0000    30.0000 </r>
       <r>   -26.8568     0.0000    30.0000 </r>
       <r>   -26.6512     0.0000    30.0000 </r>
       <r>   -26.4456     0.0000    30.0000 </r>
       <r>   -26.2400     0.0000    30.0000 </r>
       <r>   -26.0343     0.0000    30.0000 </r>
       <r>   -25.8287     0.0000    30.0000 </r>
       <r>   -25.6231     0.0000    30.0000 </r>
       <r>   -25.4175     0.0000    30.0000 </r>
       <r>   -25.2119     0.0000    30.0000 </r>
       <r>   -25.0063     0.0000    30.0000 </r>
       <r>   -24.8007    -0.0000    30.0000 </r>
       <r>   -24.5951    -0.0000    30.0000 </r>
       <r>   -24.3894    -0.0000    30.0000 </r>
       <r>   -24.1838    -0.0000    30.0000 </r>
       <r>   -23.9782    -0.0003    29.9999 </r>
       <r>   -23.7726    -0.1310    29.9730 </r>
       <r>   -23.5670     1.1353    30.2064 </r>
       <r>   -23.3614    13.4862    32.9794 </r>
       <r>   -23.1558    33.0171    39.7681 </r>
       <r>   -22.9502    45.5379    49.1313 </r>
       <r>   -22.7445    20.3667    53.3189 </r>
       <r>   -22.5389     3.6213    54.0635 </r>
       <r>   -22.3333    -0.3068    54.0004 </r>
       <r>   -22.1277    -0.0020    54.0000 </r>
       <r>   -21.9221    -0.0000    54.0000 </r>
       <r>   -21.7165    -0.0000    54.0000 </r>
       <r>   -21.5109     0.0000    54.0000 </r>
       <r>   -21.3053     0.0000    54.0000 </r>
       <r>   -21.0996     0.0000    54.0000 </r>
       <r>   -20.8940    -0.0000    54.0000 </r>
       <r>   -20.6884    -0.0000    54.0000 </r>
       <r>   -20.4828    -0.0000    54.0000 </r>
       <r>   -20.2772    -0.0000    54.0000 </r>
       <r>   -20.0716    -0.0000    54.0000 </r>
       <r>   -19.8660    -0.0468    53.9904 </r>
       <r>   -19.6604    -0.6044    53.8661 </r>
       <r>   -19.4547    15.3284    57.0178 </r>
       <r>   -19.2491    84.8115    74.4561 </r>
       <r>   -19.0435   139.8662   103.2144 </r>
       <r>   -18.8379    79.6990   119.6015 </r>
       <r>   -18.6323     2.4392   120.1030 </r>
       <r>   -18.4267    -0.4997   120.0002 </r>
       <r>   -18.2211    -0.0012   120.0000 </r>
       <r>   -18.0155    -0.0000   120.0000 </r>
       <r>   -17.8098    -0.0000   120.0000 </r>
       <r>   -17.6042     0.0000   120.0000 </r>
       <r>   -17.3986     0.0000   120.0000 </r>
       <r>   -17.1930     0.0000   120.0000 </r>
       <r>   -16.9874     0.0000   120.0000 </r>
       <r>   -16.7818     0.0000   120.0000 </r>
       <r>   -16.5762     0.0000   120.0000 </r>
       <r>   -16.3706     0.0000   120.0000 </r>
       <r>   -16.1649     0.0000   120.0000 </r>
       <r>   -15.9593     0.0000   120.0000 </r>
       <r>   -15.7537     0.0000   120.0000 </r>
       <r>   -15.5481     0.0000   120.0000 </r>
       <r>   -15.3425     0.0000   120.0000 </r>
       <r>   -15.1369     0.0000   120.0000 </r>
       <r>   -14.9313     0.0000   120.0000 </r>
       <r>   -14.7257     0.0000   120.0000 </r>
       <r>   -14.5200     0.0000   120.0000 </r>
       <r>   -14.3144     0.0000   120.0000 </r>
       <r>   -14.1088     0.0000   120.0000 </r>
       <r>   -13.9032     0.0000   120.0000 </r>
       <r>   -13.6976     0.0000   120.0000 </r>
       <r>   -13.4920     0.0000   120.0000 </r>
       <r>   -13.2864     0.0000   120.0000 </r>
       <r>   -13.0808     0.0000   120.0000 </r>
       <r>   -12.8751     0.0000   120.0000 </r>
       <r>   -12.6695     0.0000   120.0000 </r>
       <r>   -12.4639     0.0000   120.0000 </r>
       <r>   -12.2583     0.0000   120.0000 </r>
       <r>   -12.0527     0.0000   120.0000 </r>
       <r>   -11.8471     0.0000   120.0000 </r>
       <r>   -11.6415     0.0000   120.0000 </r>
       <r>   -11.4359     0.0000   120.0000 </r>
       <r>   -11.2302     0.0000   120.0000 </r>
       <r>   -11.0246     0.0000   120.0000 </r>
       <r>   -10.8190     0.0000   120.0000 </r>
       <r>   -10.6134     0.0000   120.0000 </r>
       <r>   -10.4078     0.0000   120.0000 </r>
       <r>   -10.2022     0.0000   120.0000 </r>
       <r>    -9.9966     0.0000   120.0000 </r>
       <r>    -9.7910     0.0000   120.0000 </r>
       <r>    -9.5853     0.0000   120.0000 </r>
       <r>    -9.3797     0.0000   120.0000 </r>
       <r>    -9.1741     0.0000   120.0000 </r>
       <r>    -8.9685     0.0000   120.0000 </r>
       <r>    -8.7629     0.0000   120.0000 </r>
       <r>    -8.5573     0.0000   120.0000 </r>
       <r>    -8.3517     0.0000   120.0000 </r>
       <r>    -8.1461     0.0000   120.0000 </r>
       <r>    -7.9404     0.0000   120.0000 </r>
       <r>    -7.7348     0.0000   120.0000 </r>
       <r>    -7.5292     0.0000   120.0000 </r>
       <r>    -7.3236     0.0000   120.0000 </r>
       <r>    -7.1180     0.0000   120.0000 </r>
       <r>    -6.9124     0.0000   120.0000 </r>
       <r>    -6.7068     0.0000   120.0000 </r>
       <r>    -6.5012     0.0000   120.0000 </r>
       <r>    -6.2955     0.0000   120.0000 </r>
       <r>    -6.0899     0.0000   120.0000 </r>
       <r>    -5.8843     0.0000   120.0000 </r>
       <r>    -5.6787     0.0000   120.0000 </r>
       <r>    -5.4731     0.0000   120.0000 </r>
       <r>    -5.2675     0.0000   120.0000 </r>
       <r>    -5.0619     0.0000   120.0000 </r>
       <r>    -4.8563     0.0000   120.0000 </r>
       <r>    -4.6506     0.0000   120.0000 </r>
       <r>    -4.4450     0.0000   120.0000 </r>
       <r>    -4.2394     0.0000   120.0000 </r>
       <r>    -4.0338     0.0000   120.0000 </r>
       <r>    -3.8282     0.0000   120.0000 </r>
       <r>    -3.6226     0.0000   120.0000 </r>
       <r>    -3.4170     0.0000   120.0000 </r>
       <r>    -3.2114     0.0000   120.0000 </r>
       <r>    -3.0057     0.0000   120.0000 </r>
       <r>    -2.8001     0.0000   120.0000 </r>
       <r>    -2.5945     0.0000   120.0000 </r>
       <r>    -2.3889     0.0000   120.0000 </r>
       <r>    -2.1833     0.0000   120.0000 </r>
       <r>    -1.9777     0.0000   120.0000 </r>
       <r>    -1.7721     0.0000   120.0000 </r>
       <r>    -1.5665     0.0000   120.0000 </r>
       <r>    -1.3608     0.0000   120.0000 </r>
       <r>    -1.1552     0.0000   120.0000 </r>
       <r>    -0.9496    -0.0000   120.0000 </r>
       <r>    -0.7440    -0.0000   120.0000 </r>
       <r>    -0.5384    -0.0000   120.0000 </r>
       <r>    -0.3328    -0.0000   120.0000 </r>
       <r>    -0.1272    -0.0000   120.0000 </r>
       <r>     0.0784    -0.0036   119.9993 </r>
       <r>     0.2841     0.0288   120.0052 </r>
       <r>     0.4897     0.3965   120.0867 </r>
       <r>     0.6953     1.3545   120.3652 </r>
       <r>     0.9009     1.8559   120.7468 </r>
       <r>     1.1065     2.5179   121.2645 </r>
       <r>     1.3121     4.0776   122.1030 </r>
       <r>     1.5177     2.4435   122.6054 </r>
       <r>     1.7233     3.7829   123.3832 </r>
       <r>     1.9290     4.0042   124.2065 </r>
       <r>     2.1346     3.8096   124.9898 </r>
       <r>     2.3402     4.0957   125.8319 </r>
       <r>     2.5458     7.5792   127.3903 </r>
       <r>     2.7514     8.8900   129.2182 </r>
       <r>     2.9570     7.9583   130.8545 </r>
       <r>     3.1626     7.9545   132.4901 </r>
       <r>     3.3682     8.9647   134.3333 </r>
       <r>     3.5739    16.8788   137.8038 </r>
       <r>     3.7795    20.2473   141.9669 </r>
       <r>     3.9851    23.8778   146.8765 </r>
       <r>     4.1907    28.9399   152.8269 </r>
       <r>     4.3963    30.5420   159.1067 </r>
       <r>     4.6019    35.9943   166.5076 </r>
       <r>     4.8075    38.5411   174.4321 </r>
       <r>     5.0131    37.8673   182.2181 </r>
       <r>     5.2188    32.3906   188.8780 </r>
       <r>     5.4244    34.7379   196.0205 </r>
       <r>     5.6300    20.6393   200.2642 </r>
       <r>     5.8356    28.3486   206.0931 </r>
       <r>     6.0412    56.5252   217.7153 </r>
       <r>     6.2468    57.6938   229.5779 </r>
       <r>     6.4524    56.5559   241.2065 </r>
       <r>     6.6580    53.8014   252.2687 </r>
       <r>     6.8637    57.0627   264.0015 </r>
       <r>     7.0693    51.5235   274.5954 </r>
       <r>     7.2749    44.4780   283.7406 </r>
       <r>     7.4805    49.8184   293.9839 </r>
       <r>     7.6861    49.9130   304.2467 </r>
       <r>     7.8917    39.8874   312.4480 </r>
       <r>     8.0973    34.1931   319.4785 </r>
       <r>     8.3029    27.7610   325.1865 </r>
       <r>     8.5086    22.4221   329.7968 </r>
       <r>     8.7142    13.8216   332.6387 </r>
       <r>     8.9198    12.6071   335.2308 </r>
       <r>     9.1254     3.9814   336.0495 </r>
       <r>     9.3310    -0.2352   336.0011 </r>
       <r>     9.5366    -0.0054   336.0000 </r>
       <r>     9.7422    -0.0000   336.0000 </r>
       <r>     9.9478    -0.0000   336.0000 </r>
       <r>    10.1535     0.0000   336.0000 </r>
       <r>    10.3591     0.0000   336.0000 </r>
       <r>    10.5647     0.0000   336.0000 </r>
       <r>    10.7703     0.0000   336.0000 </r>
       <r>    10.9759     0.0000   336.0000 </r>
       <r>    11.1815     0.0000   336.0000 </r>
       <r>    11.3871     0.0000   336.0000 </r>
       <r>    11.5927     0.0000   336.0000 </r>
       <r>    11.7984     0.0000   336.0000 </r>
      </set>
     </set>
    </array>
   </total>
  </dos>
 </calculation>
 <structure name="finalpos" >
  <crystal>
   <varray name="basis" >
    <v>       6.99121225       0.00425476      -0.04274775 </v>
    <v>       0.00643914      10.27609863       0.00704991 </v>
    <v>      -0.06301228       0.00702749      10.33675940 </v>
   </varray>
   <i name="volume">    742.58915187 </i>
   <varray name="rec_basis" >
    <v>       0.14304210      -0.00009023       0.00087204 </v>
    <v>      -0.00005963       0.09731328      -0.00006652 </v>
    <v>       0.00059159      -0.00006674       0.09674577 </v>
   </varray>
  </crystal>
  <varray name="positions" >
   <v>       0.73508018       0.82767213       0.82752596 </v>
   <v>       0.75168393       0.83554325       0.16821705 </v>
   <v>       0.98924373       0.98346481       0.32445522 </v>
   <v>       0.28243527       0.49378724       0.14212826 </v>
   <v>       0.24458266       0.84879151       0.17272087 </v>
   <v>       0.51447407       0.99779526       0.66795166 </v>
   <v>       0.72268827       0.50078331       0.15300642 </v>
   <v>       0.78416268       0.15377639       0.48550506 </v>
   <v>       0.50335500       0.67358289       0.99833223 </v>
   <v>       0.71322330       0.16290337       0.84568493 </v>
   <v>       0.50732720       0.66977703       0.68267340 </v>
   <v>       0.99515059       0.67486077       0.69465048 </v>
   <v>       0.25899715       0.82879898       0.82300200 </v>
   <v>       0.51302745       0.34168779       0.99830967 </v>
   <v>       0.73588572       0.50863264       0.83620750 </v>
   <v>       0.00371827       0.35480969       0.32061454 </v>
   <v>       0.48928708       0.66763924       0.32184967 </v>
   <v>       0.22781850       0.16378273       0.50128557 </v>
   <v>       0.27455292       0.17226049       0.82773614 </v>
   <v>      -0.00158964       0.66842625       0.00282267 </v>
   <v>       0.50863444       0.33399251       0.33922094 </v>
   <v>       0.77280764       0.52251251       0.50847688 </v>
   <v>       0.76004132       0.82549540       0.50753335 </v>
   <v>       0.25655223       0.49733818       0.83302781 </v>
   <v>       0.24319222       0.16110077       0.16854976 </v>
   <v>       0.24691814       0.82799218       0.51014264 </v>
   <v>       0.99247808       0.99485879       0.99393407 </v>
   <v>       0.96816961       0.32212227       0.67827928 </v>
   <v>       0.75271087       0.16327167       0.16564417 </v>
   <v>       0.98111166       0.00474332       0.68458258 </v>
   <v>       0.23889818       0.51012959       0.51940242 </v>
   <v>       0.01477519       0.66424439       0.31016894 </v>
   <v>       0.49496531       0.98086510       0.99849613 </v>
   <v>       0.51226319       0.99807540       0.34095872 </v>
   <v>       0.53064169       0.32824258       0.65181169 </v>
   <v>       0.98073189       0.33624557       0.99510032 </v>
  </varray>
 </structure>
</modeling>
