<?xml version="1.0" encoding="ISO-8859-1"?>
<modeling>
 <generator>
  <i name="program" type="string">vasp </i>
  <i name="version" type="string">5.4.1  </i>
  <i name="subversion" type="string">05Feb16 (build Jan 29 2020 16:04:39) complex                          parallel </i>
  <i name="platform" type="string">IFC91_ompi </i>
  <i name="date" type="string">2020 06 15 </i>
  <i name="time" type="string">03:25:33 </i>
 </generator>
 <incar>
  <i type="string" name="SYSTEM"> automatically generated by mexm</i>
  <i type="int" name="ISTART">     0</i>
  <i type="string" name="PREC">accurate               ! avoid wrap aro</i>
  <i type="string" name="ALGO"> Fast                   ! blocked Davids</i>
  <i type="int" name="ISPIN">     1</i>
  <i type="int" name="ICHARG">     2</i>
  <i type="int" name="NELM">    70</i>
  <i type="int" name="IBRION">     2</i>
  <i name="EDIFF">      0.00001000</i>
  <i name="EDIFFG">     -0.01000000</i>
  <i type="int" name="NSW">   300</i>
  <i type="int" name="ISIF">     3</i>
  <i type="int" name="ISYM">     1</i>
  <i name="ENCUT">    300.00000000</i>
  <i name="POTIM">      0.15000000</i>
  <i type="string" name="LREAL"> Auto                  ! unpublished met</i>
  <i type="int" name="ISMEAR">     1</i>
  <i name="SIGMA">      0.15000000</i>
  <i type="logical" name="LWAVE"> F  </i>
  <i type="logical" name="LCHARG"> F  </i>
  <i type="logical" name="LVTOT"> F  </i>
  <v type="int" name="KPOINT_BSE">    -1     0     0     0</v>
  <i type="int" name="NELM">    70</i>
 </incar>
 <kpoints>
  <generation param="Gamma">
   <v type="int" name="divisions">       3        3        3 </v>
   <v name="usershift">      0.00000000       0.00000000       0.00000000 </v>
   <v name="genvec1">      0.33333333       0.00000000       0.00000000 </v>
   <v name="genvec2">     -0.00000000       0.33333333       0.00000000 </v>
   <v name="genvec3">      0.00000000       0.00000000       0.33333333 </v>
   <v name="shift">      0.00000000       0.00000000       0.00000000 </v>
  </generation>
  <varray name="kpointlist" >
   <v>       0.00000000       0.00000000       0.00000000 </v>
   <v>       0.33333333       0.00000000      -0.00000000 </v>
   <v>      -0.00000000       0.33333333       0.00000000 </v>
   <v>       0.33333333       0.33333333       0.00000000 </v>
   <v>      -0.33333333       0.33333333       0.00000000 </v>
   <v>      -0.00000000       0.00000000       0.33333333 </v>
   <v>       0.33333333       0.00000000       0.33333333 </v>
   <v>      -0.33333333      -0.00000000       0.33333333 </v>
   <v>      -0.00000000       0.33333333       0.33333333 </v>
   <v>       0.33333333       0.33333333       0.33333333 </v>
   <v>      -0.33333333       0.33333333       0.33333333 </v>
   <v>      -0.00000000      -0.33333333       0.33333333 </v>
   <v>       0.33333333      -0.33333333       0.33333333 </v>
   <v>      -0.33333333      -0.33333333       0.33333333 </v>
  </varray>
  <varray name="weights" >
   <v>       0.03703704 </v>
   <v>       0.07407407 </v>
   <v>       0.07407407 </v>
   <v>       0.07407407 </v>
   <v>       0.07407407 </v>
   <v>       0.07407407 </v>
   <v>       0.07407407 </v>
   <v>       0.07407407 </v>
   <v>       0.07407407 </v>
   <v>       0.07407407 </v>
   <v>       0.07407407 </v>
   <v>       0.07407407 </v>
   <v>       0.07407407 </v>
   <v>       0.07407407 </v>
  </varray>
 </kpoints>
 <parameters>
  <separator name="general" >
   <i type="string" name="SYSTEM">automatically generated by mexm</i>
   <i type="logical" name="LCOMPAT"> F  </i>
  </separator>
  <separator name="electronic" >
   <i type="string" name="PREC">accura</i>
   <i name="ENMAX">    300.00000000</i>
   <i name="ENAUG">    461.25700000</i>
   <i name="EDIFF">      0.00001000</i>
   <i type="int" name="IALGO">    68</i>
   <i type="int" name="IWAVPR">    11</i>
   <i type="int" name="NBANDS">   180</i>
   <i name="NELECT">    299.00000000</i>
   <i type="int" name="TURBO">     0</i>
   <i type="int" name="IRESTART">     0</i>
   <i type="int" name="NREBOOT">     0</i>
   <i type="int" name="NMIN">     0</i>
   <i name="EREF">      0.00000000</i>
   <separator name="electronic smearing" >
    <i type="int" name="ISMEAR">     1</i>
    <i name="SIGMA">      0.15000000</i>
    <i name="KSPACING">      0.50000000</i>
    <i type="logical" name="KGAMMA"> T  </i>
   </separator>
   <separator name="electronic projectors" >
    <i type="logical" name="LREAL"> T  </i>
    <v name="ROPT">     -0.00025000     -0.00025000     -0.00025000     -0.00025000</v>
    <i type="int" name="LMAXPAW">  -100</i>
    <i type="int" name="LMAXMIX">     2</i>
    <i type="logical" name="NLSPLINE"> F  </i>
   </separator>
   <separator name="electronic startup" >
    <i type="int" name="ISTART">     0</i>
    <i type="int" name="ICHARG">     2</i>
    <i type="int" name="INIWAV">     1</i>
   </separator>
   <separator name="electronic spin" >
    <i type="int" name="ISPIN">     1</i>
    <i type="logical" name="LNONCOLLINEAR"> F  </i>
    <v name="MAGMOM">      1.00000000      1.00000000      1.00000000      1.00000000      1.00000000      1.00000000      1.00000000      1.00000000      1.00000000      1.00000000      1.00000000      1.00000000      1.00000000      1.00000000      1.00000000      1.00000000      1.00000000      1.00000000      1.00000000      1.00000000
      1.00000000      1.00000000      1.00000000      1.00000000      1.00000000      1.00000000      1.00000000      1.00000000      1.00000000      1.00000000      1.00000000      1.00000000      1.00000000      1.00000000      1.00000000      1.00000000</v>
    <i name="NUPDOWN">     -1.00000000</i>
    <i type="logical" name="LSORBIT"> F  </i>
    <v name="SAXIS">      0.00000000      0.00000000      1.00000000</v>
    <i type="logical" name="LSPIRAL"> F  </i>
    <v name="QSPIRAL">      0.00000000      0.00000000      0.00000000</v>
    <i type="logical" name="LZEROZ"> F  </i>
   </separator>
   <separator name="electronic exchange-correlation" >
    <i type="logical" name="LASPH"> F  </i>
    <i type="logical" name="LMETAGGA"> F  </i>
   </separator>
   <separator name="electronic convergence" >
    <i type="int" name="NELM">    70</i>
    <i type="int" name="NELMDL">    -5</i>
    <i type="int" name="NELMIN">     2</i>
    <i name="ENINI">    300.00000000</i>
    <separator name="electronic convergence detail" >
     <i type="logical" name="LDIAG"> T  </i>
     <i type="logical" name="LSUBROT"> F  </i>
     <i name="WEIMIN">      0.00100000</i>
     <i name="EBREAK">      0.00000001</i>
     <i name="DEPER">      0.30000000</i>
     <i type="int" name="NRMM">     4</i>
     <i name="TIME">      0.40000000</i>
    </separator>
   </separator>
   <separator name="electronic mixer" >
    <i name="AMIX">      0.40000000</i>
    <i name="BMIX">      1.00000000</i>
    <i name="AMIN">      0.10000000</i>
    <i name="AMIX_MAG">      1.60000000</i>
    <i name="BMIX_MAG">      1.00000000</i>
    <separator name="electronic mixer details" >
     <i type="int" name="IMIX">     4</i>
     <i type="logical" name="MIXFIRST"> F  </i>
     <i type="int" name="MAXMIX">   -45</i>
     <i name="WC">    100.00000000</i>
     <i type="int" name="INIMIX">     1</i>
     <i type="int" name="MIXPRE">     1</i>
     <i type="int" name="MREMOVE">     5</i>
    </separator>
   </separator>
   <separator name="electronic dipolcorrection" >
    <i type="logical" name="LDIPOL"> F  </i>
    <i type="logical" name="LMONO"> F  </i>
    <i type="int" name="IDIPOL">     0</i>
    <i name="EPSILON">      1.00000000</i>
    <v name="DIPOL">   -100.00000000   -100.00000000   -100.00000000</v>
    <i name="EFIELD">      0.00000000</i>
   </separator>
  </separator>
  <separator name="grids" >
   <i type="int" name="NGX">    40</i>
   <i type="int" name="NGY">    60</i>
   <i type="int" name="NGZ">    60</i>
   <i type="int" name="NGXF">    80</i>
   <i type="int" name="NGYF">   120</i>
   <i type="int" name="NGZF">   120</i>
   <i type="logical" name="ADDGRID"> F  </i>
  </separator>
  <separator name="ionic" >
   <i type="int" name="NSW">   300</i>
   <i type="int" name="IBRION">     2</i>
   <i type="int" name="ISIF">     3</i>
   <i name="PSTRESS">      0.00000000</i>
   <i name="EDIFFG">     -0.01000000</i>
   <i type="int" name="NFREE">     1</i>
   <i name="POTIM">      0.15000000</i>
   <i name="SMASS">     -3.00000000</i>
   <i name="SCALEE">      1.00000000</i>
  </separator>
  <separator name="ionic md" >
   <i name="TEBEG">      0.00010000</i>
   <i name="TEEND">      0.00010000</i>
   <i type="int" name="NBLOCK">     1</i>
   <i type="int" name="KBLOCK">   300</i>
   <i type="int" name="NPACO">   256</i>
   <i name="APACO">     16.00000000</i>
  </separator>
  <separator name="symmetry" >
   <i type="int" name="ISYM">     1</i>
   <i name="SYMPREC">      0.00001000</i>
  </separator>
  <separator name="dos" >
   <i type="logical" name="LORBIT"> F  </i>
   <v name="RWIGS">     -1.00000000     -1.00000000     -1.00000000     -1.00000000</v>
   <i type="int" name="NEDOS">   301</i>
   <i name="EMIN">     10.00000000</i>
   <i name="EMAX">    -10.00000000</i>
   <i name="EFERMI">      0.00000000</i>
  </separator>
  <separator name="writing" >
   <i type="int" name="NWRITE">     2</i>
   <i type="logical" name="LWAVE"> F  </i>
   <i type="logical" name="LCHARG"> F  </i>
   <i type="logical" name="LPARD"> F  </i>
   <i type="logical" name="LVTOT"> F  </i>
   <i type="logical" name="LVHAR"> F  </i>
   <i type="logical" name="LELF"> F  </i>
   <i type="logical" name="LOPTICS"> F  </i>
   <v name="STM">      0.00000000      0.00000000      0.00000000      0.00000000      0.00000000      0.00000000      0.00000000</v>
  </separator>
  <separator name="performance" >
   <i type="int" name="NPAR">     4</i>
   <i type="int" name="NSIM">     4</i>
   <i type="int" name="NBLK">    -1</i>
   <i type="logical" name="LPLANE"> T  </i>
   <i type="logical" name="LSCALAPACK"> T  </i>
   <i type="logical" name="LSCAAWARE"> F  </i>
   <i type="logical" name="LSCALU"> F  </i>
   <i type="logical" name="LASYNC"> F  </i>
   <i type="logical" name="LORBITALREAL"> F  </i>
  </separator>
  <separator name="miscellaneous" >
   <i type="int" name="IDIOT">     3</i>
   <i type="logical" name="LMUSIC"> F  </i>
   <v name="POMASS">    180.94800000     92.91000000    178.49000000     91.22400000</v>
   <v name="DARWINR">      0.00000000      0.00000000      0.00000000      0.00000000</v>
   <v name="DARWINV">      1.00000000      1.00000000      1.00000000      1.00000000</v>
   <i type="logical" name="LCORR"> T  </i>
  </separator>
  <i type="logical" name="GGA_COMPAT"> T  </i>
  <i type="logical" name="LBERRY"> F  </i>
  <i type="int" name="ICORELEVEL">     0</i>
  <i type="logical" name="LDAU"> F  </i>
  <i type="int" name="I_CONSTRAINED_M">     0</i>
  <separator name="electronic exchange-correlation" >
   <i type="string" name="GGA">--</i>
   <i type="int" name="VOSKOWN">     0</i>
   <i type="logical" name="LHFCALC"> F  </i>
   <i type="string" name="PRECFOCK"></i>
   <i type="logical" name="LSYMGRAD"> F  </i>
   <i type="logical" name="LHFONE"> F  </i>
   <i type="logical" name="LRHFCALC"> F  </i>
   <i type="logical" name="LTHOMAS"> F  </i>
   <i type="logical" name="LMODELHF"> F  </i>
   <i name="ENCUT4O">     -1.00000000</i>
   <i type="int" name="EXXOEP">     0</i>
   <i type="int" name="FOURORBIT">     0</i>
   <i name="AEXX">      0.00000000</i>
   <i name="HFALPHA">      0.00000000</i>
   <i name="MCALPHA">      0.00000000</i>
   <i name="ALDAX">      1.00000000</i>
   <i name="AGGAX">      1.00000000</i>
   <i name="ALDAC">      1.00000000</i>
   <i name="AGGAC">      1.00000000</i>
   <i type="int" name="NKREDX">     1</i>
   <i type="int" name="NKREDY">     1</i>
   <i type="int" name="NKREDZ">     1</i>
   <i type="logical" name="SHIFTRED"> F  </i>
   <i type="logical" name="ODDONLY"> F  </i>
   <i type="logical" name="EVENONLY"> F  </i>
   <i type="int" name="LMAXFOCK">     0</i>
   <i type="int" name="NMAXFOCKAE">     0</i>
   <i type="logical" name="LFOCKAEDFT"> F  </i>
   <i name="HFSCREEN">      0.00000000</i>
   <i name="HFSCREENC">      0.00000000</i>
   <i type="int" name="NBANDSGWLOW">     0</i>
  </separator>
  <separator name="vdW DFT" >
   <i type="logical" name="LUSE_VDW"> F  </i>
   <i name="Zab_VDW">     -0.84910000</i>
   <i name="PARAM1">      0.12340000</i>
   <i name="PARAM2">      1.00000000</i>
   <i name="PARAM3">      0.00000000</i>
  </separator>
  <separator name="model GW" >
   <i type="int" name="MODEL_GW">     0</i>
   <i name="MODEL_EPS0">     11.95464341</i>
   <i name="MODEL_ALPHA">      1.00000000</i>
  </separator>
  <separator name="linear response parameters" >
   <i type="logical" name="LEPSILON"> F  </i>
   <i type="logical" name="LRPA"> F  </i>
   <i type="logical" name="LNABLA"> F  </i>
   <i type="logical" name="LVEL"> F  </i>
   <i type="int" name="KINTER">     0</i>
   <i name="CSHIFT">      0.10000000</i>
   <i name="OMEGAMAX">     -1.00000000</i>
   <i name="DEG_THRESHOLD">      0.00200000</i>
  </separator>
  <separator name="orbital magnetization" >
   <i type="logical" name="NUCIND"> F  </i>
   <v name="MAGPOS">      0.00000000      0.00000000      0.00000000</v>
   <i type="logical" name="LNICSALL"> T  </i>
   <i type="logical" name="ORBITALMAG"> F  </i>
   <i type="logical" name="LMAGBLOCH"> F  </i>
   <i type="logical" name="LCHIMAG"> F  </i>
   <i type="logical" name="LGAUGE"> T  </i>
   <i type="int" name="MAGATOM">     0</i>
   <v name="MAGDIPOL">      0.00000000      0.00000000      0.00000000</v>
   <v name="AVECCONST">      0.00000000      0.00000000      0.00000000</v>
  </separator>
  <separator name="response functions" >
   <i type="logical" name="LADDER"> F  </i>
   <i type="logical" name="LFXC"> F  </i>
   <i type="logical" name="LHARTREE"> T  </i>
   <i type="int" name="IBSE">     0</i>
   <v type="int" name="KPOINT">    -1     0     0     0</v>
   <i type="logical" name="LTCTE"> F  </i>
   <i type="logical" name="LTETE"> F  </i>
   <i type="logical" name="LTRIPLET"> F  </i>
   <i type="logical" name="LFXCEPS"> F  </i>
   <i type="logical" name="LFXHEG"> F  </i>
   <i type="int" name="NATURALO">     0</i>
   <i type="logical" name="L2ORDER"> F  </i>
   <i type="logical" name="LUSEW"> F  </i>
   <i name="ENCUTGW">     -2.00000000</i>
   <i name="ENCUTGWSOFT">     -2.00000000</i>
   <i name="ENCUTLF">     -1.00000000</i>
   <i type="int" name="LMAXMP2">    -1</i>
   <i name="SCISSOR">      0.00000000</i>
   <i type="int" name="NOMEGA">     0</i>
   <i type="int" name="NOMEGAR">     0</i>
   <i type="int" name="NBANDSGW">    -1</i>
   <i type="int" name="NBANDSO">    -1</i>
   <i type="int" name="NBANDSV">    -1</i>
   <i type="int" name="NELM">    70</i>
   <i type="int" name="NELMHF">     1</i>
   <i type="int" name="DIM">     3</i>
   <i type="int" name="ANTIRES">     0</i>
   <i name="OMEGAMAX">    -30.00000000</i>
   <i name="OMEGAMIN">    -30.00000000</i>
   <i name="OMEGATL">   -200.00000000</i>
   <i type="int" name="OMEGAGRID">     0</i>
   <i name="CSHIFT">     -0.10000000</i>
   <i type="logical" name="SELFENERGY"> F  </i>
   <i type="logical" name="LSPECTRAL"> F  </i>
   <i type="logical" name="LSPECTRALGW"> F  </i>
   <i type="logical" name="LSINGLES"> F  </i>
   <i type="logical" name="LFERMIGW"> F  </i>
   <i type="logical" name="ODDONLYGW"> F  </i>
   <i type="logical" name="EVENONLYGW"> F  </i>
   <i type="int" name="NKREDLFX">     1</i>
   <i type="int" name="NKREDLFY">     1</i>
   <i type="int" name="NKREDLFZ">     1</i>
   <i type="int" name="MAXMEM">  1800</i>
   <i type="int" name="TELESCOPE">     0</i>
   <i type="int" name="TAUPAR">     1</i>
   <i type="int" name="OMEGAPAR">    -1</i>
   <i name="LAMBDA">      1.00000000</i>
  </separator>
  <separator name="External order field" >
   <i name="OFIELD_KAPPA">      0.00000000</i>
   <v name="OFIELD_K">      0.00000000      0.00000000      0.00000000</v>
   <i name="OFIELD_Q6_NEAR">      0.00000000</i>
   <i name="OFIELD_Q6_FAR">      0.00000000</i>
   <i name="OFIELD_A">      0.00000000</i>
  </separator>
 </parameters>
 <atominfo>
  <atoms>      36 </atoms>
  <types>       4 </types>
  <array name="atoms" >
   <dimension dim="1">ion</dimension>
   <field type="string">element</field>
   <field type="int">atomtype</field>
   <set>
    <rc><c>Ta</c><c>   1</c></rc>
    <rc><c>Ta</c><c>   1</c></rc>
    <rc><c>Ta</c><c>   1</c></rc>
    <rc><c>Ta</c><c>   1</c></rc>
    <rc><c>Ta</c><c>   1</c></rc>
    <rc><c>Ta</c><c>   1</c></rc>
    <rc><c>Ta</c><c>   1</c></rc>
    <rc><c>Ta</c><c>   1</c></rc>
    <rc><c>Ta</c><c>   1</c></rc>
    <rc><c>Ta</c><c>   1</c></rc>
    <rc><c>Nb</c><c>   2</c></rc>
    <rc><c>Nb</c><c>   2</c></rc>
    <rc><c>Nb</c><c>   2</c></rc>
    <rc><c>Nb</c><c>   2</c></rc>
    <rc><c>Nb</c><c>   2</c></rc>
    <rc><c>Nb</c><c>   2</c></rc>
    <rc><c>Nb</c><c>   2</c></rc>
    <rc><c>Nb</c><c>   2</c></rc>
    <rc><c>Nb</c><c>   2</c></rc>
    <rc><c>Hf</c><c>   3</c></rc>
    <rc><c>Hf</c><c>   3</c></rc>
    <rc><c>Hf</c><c>   3</c></rc>
    <rc><c>Hf</c><c>   3</c></rc>
    <rc><c>Hf</c><c>   3</c></rc>
    <rc><c>Hf</c><c>   3</c></rc>
    <rc><c>Hf</c><c>   3</c></rc>
    <rc><c>Hf</c><c>   3</c></rc>
    <rc><c>Hf</c><c>   3</c></rc>
    <rc><c>Zr</c><c>   4</c></rc>
    <rc><c>Zr</c><c>   4</c></rc>
    <rc><c>Zr</c><c>   4</c></rc>
    <rc><c>Zr</c><c>   4</c></rc>
    <rc><c>Zr</c><c>   4</c></rc>
    <rc><c>Zr</c><c>   4</c></rc>
    <rc><c>Zr</c><c>   4</c></rc>
    <rc><c>Zr</c><c>   4</c></rc>
   </set>
  </array>
  <array name="atomtypes" >
   <dimension dim="1">type</dimension>
   <field type="int">atomspertype</field>
   <field type="string">element</field>
   <field>mass</field>
   <field>valence</field>
   <field type="string">pseudopotential</field>
   <set>
    <rc><c>  10</c><c>Ta</c><c>    180.94800000</c><c>      5.00000000</c><c>  PAW_PBE Ta 17Jan2003                  </c></rc>
    <rc><c>   9</c><c>Nb</c><c>     92.91000000</c><c>     13.00000000</c><c>  PAW_PBE Nb_sv 25May2007               </c></rc>
    <rc><c>   9</c><c>Hf</c><c>    178.49000000</c><c>      4.00000000</c><c>  PAW_PBE Hf 20Jan2003                  </c></rc>
    <rc><c>   8</c><c>Zr</c><c>     91.22400000</c><c>     12.00000000</c><c>  PAW_PBE Zr_sv 04Jan2005               </c></rc>
   </set>
  </array>
 </atominfo>
 <structure name="initialpos" >
  <crystal>
   <varray name="basis" >
    <v>       6.84805173      -0.00151146       0.00449447 </v>
    <v>      -0.00202027      10.25649911       0.01668590 </v>
    <v>       0.00697865       0.01634170      10.21228772 </v>
   </varray>
   <i name="volume">    717.27860478 </i>
   <varray name="rec_basis" >
    <v>       0.14602701       0.00002893      -0.00009983 </v>
    <v>       0.00002162       0.09749941      -0.00015603 </v>
    <v>      -0.00006430      -0.00015932       0.09792155 </v>
   </varray>
  </crystal>
  <varray name="positions" >
   <v>       0.25086600       0.16521800       0.50922800 </v>
   <v>       0.01912200       0.32244500       0.33613700 </v>
   <v>       0.00228400       0.34045000       0.67038100 </v>
   <v>       0.25207100       0.48165600       0.83724200 </v>
   <v>       0.24770400       0.85632900       0.51989900 </v>
   <v>       0.75285200       0.84990700       0.51627400 </v>
   <v>       0.24709600       0.84416300       0.83257700 </v>
   <v>       0.23732800       0.81437400       0.14298100 </v>
   <v>       0.49516400       0.34330500       0.66872900 </v>
   <v>       0.50516900       0.32788700       0.99738000 </v>
   <v>       0.25580300       0.17981900       0.17264300 </v>
   <v>       0.00398700       0.00265300       0.66738600 </v>
   <v>       0.25203600       0.48474100       0.49493000 </v>
   <v>       0.00270700       0.66459400       0.98842500 </v>
   <v>       0.74025600       0.18511500       0.18271100 </v>
   <v>       0.49774000       0.99907800       0.66698400 </v>
   <v>       0.73946400       0.16991900       0.82156400 </v>
   <v>       0.76588500       0.81158600       0.15786100 </v>
   <v>       0.74981000       0.48997600       0.82699300 </v>
   <v>       0.25776900       0.16874900       0.82489100 </v>
   <v>       0.25152800       0.50122500       0.16380100 </v>
   <v>       0.01392400       0.68013100       0.34546200 </v>
   <v>       0.50473000       0.00361200       0.01175200 </v>
   <v>       0.74865700       0.16864100       0.50566900 </v>
   <v>       0.74753700       0.48700400       0.49110700 </v>
   <v>       0.48898300       0.68409800       0.34253300 </v>
   <v>       0.48995000       0.66115900       0.66292000 </v>
   <v>       0.47964900       0.32288500       0.33585900 </v>
   <v>       0.99234300       0.00545800       0.00954300 </v>
   <v>       0.00196100       0.99863900       0.32725500 </v>
   <v>       0.98811900       0.32482400       0.99853400 </v>
   <v>       0.00975600       0.65986600       0.66316900 </v>
   <v>       0.49839800       0.99640500       0.32626000 </v>
   <v>       0.74947500       0.50044100       0.17299200 </v>
   <v>       0.50275800       0.66415600       0.98454900 </v>
   <v>       0.75711000       0.83949600       0.82337800 </v>
  </varray>
 </structure>
 <calculation>
  <scstep>
   <time name="dav">    1.02    1.03</time>
   <time name="total">    1.14    1.53</time>
   <energy>
    <i name="alphaZ">   1571.38552913 </i>
    <i name="ewald"> -20162.71801941 </i>
    <i name="hartreedc">  -7003.89397127 </i>
    <i name="XCdc">   -232.84777212 </i>
    <i name="pawpsdc">  22141.40317339 </i>
    <i name="pawaedc"> -20549.38285755 </i>
    <i name="eentropy">     -0.00539039 </i>
    <i name="bandstr">   -105.35855172 </i>
    <i name="atom">  26258.95213085 </i>
    <i name="e_fr_energy">   1917.53427092 </i>
    <i name="e_wo_entrp">   1917.53966131 </i>
    <i name="e_0_energy">   1917.53606772 </i>
   </energy>
  </scstep>
  <scstep>
   <time name="dav">    1.07    1.08</time>
   <time name="total">    1.07    1.25</time>
   <energy>
    <i name="e_fr_energy">    -91.09059221 </i>
    <i name="e_wo_entrp">    -91.09378180 </i>
    <i name="e_0_energy">    -91.09165541 </i>
   </energy>
  </scstep>
  <scstep>
   <time name="dav">    1.52    1.65</time>
   <time name="total">    1.52    1.68</time>
   <energy>
    <i name="e_fr_energy">   -346.58733072 </i>
    <i name="e_wo_entrp">   -346.58265499 </i>
    <i name="e_0_energy">   -346.58577214 </i>
   </energy>
  </scstep>
  <scstep>
   <time name="dav">    1.47    1.48</time>
   <time name="total">    1.47    1.51</time>
   <energy>
    <i name="e_fr_energy">   -376.66833097 </i>
    <i name="e_wo_entrp">   -376.68369829 </i>
    <i name="e_0_energy">   -376.67345341 </i>
   </energy>
  </scstep>
  <scstep>
   <time name="dav">    1.40    1.41</time>
   <time name="total">    1.43    1.49</time>
   <energy>
    <i name="e_fr_energy">   -379.72895105 </i>
    <i name="e_wo_entrp">   -379.74733202 </i>
    <i name="e_0_energy">   -379.73507804 </i>
   </energy>
  </scstep>
  <scstep>
   <time name="diag">    0.08    0.08</time>
   <time name="diis">    0.80    0.81</time>
   <time name="orth">    0.01    0.01</time>
   <time name="total">    0.96    1.00</time>
   <energy>
    <i name="e_fr_energy">   -369.50366841 </i>
    <i name="e_wo_entrp">   -369.51358730 </i>
    <i name="e_0_energy">   -369.50697471 </i>
   </energy>
  </scstep>
  <scstep>
   <time name="diag">    0.08    0.08</time>
   <time name="diis">    0.86    0.87</time>
   <time name="orth">    0.01    0.01</time>
   <time name="total">    1.03    1.06</time>
   <energy>
    <i name="e_fr_energy">   -373.53794207 </i>
    <i name="e_wo_entrp">   -373.54823148 </i>
    <i name="e_0_energy">   -373.54137187 </i>
   </energy>
  </scstep>
  <scstep>
   <time name="diag">    0.12    0.12</time>
   <time name="diis">    0.82    0.82</time>
   <time name="orth">    0.01    0.01</time>
   <time name="total">    1.02    1.06</time>
   <energy>
    <i name="e_fr_energy">   -365.38202605 </i>
    <i name="e_wo_entrp">   -365.39132132 </i>
    <i name="e_0_energy">   -365.38512447 </i>
   </energy>
  </scstep>
  <scstep>
   <time name="diag">    0.08    0.08</time>
   <time name="diis">    0.84    0.85</time>
   <time name="orth">    0.01    0.01</time>
   <time name="total">    1.02    1.06</time>
   <energy>
    <i name="e_fr_energy">   -364.78372644 </i>
    <i name="e_wo_entrp">   -364.79231444 </i>
    <i name="e_0_energy">   -364.78658911 </i>
   </energy>
  </scstep>
  <scstep>
   <time name="diag">    0.08    0.09</time>
   <time name="diis">    0.78    0.80</time>
   <time name="orth">    0.01    0.01</time>
   <time name="total">    0.94    1.01</time>
   <energy>
    <i name="e_fr_energy">   -364.76297910 </i>
    <i name="e_wo_entrp">   -364.77134430 </i>
    <i name="e_0_energy">   -364.76576750 </i>
   </energy>
  </scstep>
  <scstep>
   <time name="diag">    0.08    0.08</time>
   <time name="diis">    0.86    0.87</time>
   <time name="orth">    0.02    0.02</time>
   <time name="total">    1.04    1.08</time>
   <energy>
    <i name="e_fr_energy">   -364.73807476 </i>
    <i name="e_wo_entrp">   -364.74551886 </i>
    <i name="e_0_energy">   -364.74055613 </i>
   </energy>
  </scstep>
  <scstep>
   <time name="diag">    0.10    0.11</time>
   <time name="diis">    0.82    0.84</time>
   <time name="orth">    0.01    0.01</time>
   <time name="total">    1.03    1.11</time>
   <energy>
    <i name="e_fr_energy">   -364.72789736 </i>
    <i name="e_wo_entrp">   -364.73634552 </i>
    <i name="e_0_energy">   -364.73071342 </i>
   </energy>
  </scstep>
  <scstep>
   <time name="diag">    0.08    0.08</time>
   <time name="diis">    0.85    0.86</time>
   <time name="orth">    0.02    0.02</time>
   <time name="total">    1.04    1.08</time>
   <energy>
    <i name="e_fr_energy">   -364.72559562 </i>
    <i name="e_wo_entrp">   -364.73370455 </i>
    <i name="e_0_energy">   -364.72829860 </i>
   </energy>
  </scstep>
  <scstep>
   <time name="diag">    0.08    0.08</time>
   <time name="diis">    0.80    0.81</time>
   <time name="orth">    0.01    0.01</time>
   <time name="total">    0.97    1.00</time>
   <energy>
    <i name="e_fr_energy">   -364.72573009 </i>
    <i name="e_wo_entrp">   -364.73399891 </i>
    <i name="e_0_energy">   -364.72848636 </i>
   </energy>
  </scstep>
  <scstep>
   <time name="diag">    0.08    0.08</time>
   <time name="diis">    0.81    0.82</time>
   <time name="orth">    0.01    0.01</time>
   <time name="total">    0.98    1.02</time>
   <energy>
    <i name="e_fr_energy">   -364.72585323 </i>
    <i name="e_wo_entrp">   -364.73397643 </i>
    <i name="e_0_energy">   -364.72856096 </i>
   </energy>
  </scstep>
  <scstep>
   <time name="diag">    0.12    0.12</time>
   <time name="diis">    0.84    0.85</time>
   <time name="orth">    0.01    0.01</time>
   <time name="total">    1.05    1.08</time>
   <energy>
    <i name="e_fr_energy">   -364.72591344 </i>
    <i name="e_wo_entrp">   -364.73407250 </i>
    <i name="e_0_energy">   -364.72863312 </i>
   </energy>
  </scstep>
  <scstep>
   <time name="diag">    0.08    0.08</time>
   <time name="diis">    0.67    0.67</time>
   <time name="orth">    0.01    0.01</time>
   <time name="total">    0.83    0.86</time>
   <energy>
    <i name="e_fr_energy">   -364.72593339 </i>
    <i name="e_wo_entrp">   -364.73409656 </i>
    <i name="e_0_energy">   -364.72865444 </i>
   </energy>
  </scstep>
  <scstep>
   <time name="diag">    0.08    0.08</time>
   <time name="diis">    0.64    0.65</time>
   <time name="orth">    0.01    0.01</time>
   <time name="total">    0.80    0.83</time>
   <energy>
    <i name="e_fr_energy">   -364.72594813 </i>
    <i name="e_wo_entrp">   -364.73413935 </i>
    <i name="e_0_energy">   -364.72867854 </i>
   </energy>
  </scstep>
  <scstep>
   <time name="diag">    0.08    0.08</time>
   <time name="diis">    0.54    0.54</time>
   <time name="orth">    0.01    0.01</time>
   <time name="total">    0.69    0.73</time>
   <energy>
    <i name="e_fr_energy">   -364.72595667 </i>
    <i name="e_wo_entrp">   -364.73414173 </i>
    <i name="e_0_energy">   -364.72868502 </i>
   </energy>
  </scstep>
  <scstep>
   <time name="diag">    0.08    0.08</time>
   <time name="diis">    0.48    0.48</time>
   <time name="orth">    0.01    0.01</time>
   <time name="total">    0.60    0.63</time>
   <energy>
    <i name="alphaZ">   1571.38552913 </i>
    <i name="ewald"> -20162.71801941 </i>
    <i name="hartreedc">  -6765.69007158 </i>
    <i name="XCdc">   -233.23112916 </i>
    <i name="pawpsdc">  34973.25720289 </i>
    <i name="pawaedc"> -33361.17060923 </i>
    <i name="eentropy">      0.00818703 </i>
    <i name="bandstr">  -2645.51918062 </i>
    <i name="atom">  26258.95213085 </i>
    <i name="e_fr_energy">   -364.72596009 </i>
    <i name="e_wo_entrp">   -364.73414712 </i>
    <i name="e_0_energy">   -364.72868910 </i>
   </energy>
  </scstep>
  <structure>
   <crystal>
    <varray name="basis" >
     <v>       6.84805173      -0.00151146       0.00449447 </v>
     <v>      -0.00202027      10.25649911       0.01668590 </v>
     <v>       0.00697865       0.01634170      10.21228772 </v>
    </varray>
    <i name="volume">    717.27860478 </i>
    <varray name="rec_basis" >
     <v>       0.14602701       0.00002893      -0.00009983 </v>
     <v>       0.00002162       0.09749941      -0.00015603 </v>
     <v>      -0.00006430      -0.00015932       0.09792155 </v>
    </varray>
   </crystal>
   <varray name="positions" >
    <v>       0.25086600       0.16521800       0.50922800 </v>
    <v>       0.01912200       0.32244500       0.33613700 </v>
    <v>       0.00228400       0.34045000       0.67038100 </v>
    <v>       0.25207100       0.48165600       0.83724200 </v>
    <v>       0.24770400       0.85632900       0.51989900 </v>
    <v>       0.75285200       0.84990700       0.51627400 </v>
    <v>       0.24709600       0.84416300       0.83257700 </v>
    <v>       0.23732800       0.81437400       0.14298100 </v>
    <v>       0.49516400       0.34330500       0.66872900 </v>
    <v>       0.50516900       0.32788700       0.99738000 </v>
    <v>       0.25580300       0.17981900       0.17264300 </v>
    <v>       0.00398700       0.00265300       0.66738600 </v>
    <v>       0.25203600       0.48474100       0.49493000 </v>
    <v>       0.00270700       0.66459400       0.98842500 </v>
    <v>       0.74025600       0.18511500       0.18271100 </v>
    <v>       0.49774000       0.99907800       0.66698400 </v>
    <v>       0.73946400       0.16991900       0.82156400 </v>
    <v>       0.76588500       0.81158600       0.15786100 </v>
    <v>       0.74981000       0.48997600       0.82699300 </v>
    <v>       0.25776900       0.16874900       0.82489100 </v>
    <v>       0.25152800       0.50122500       0.16380100 </v>
    <v>       0.01392400       0.68013100       0.34546200 </v>
    <v>       0.50473000       0.00361200       0.01175200 </v>
    <v>       0.74865700       0.16864100       0.50566900 </v>
    <v>       0.74753700       0.48700400       0.49110700 </v>
    <v>       0.48898300       0.68409800       0.34253300 </v>
    <v>       0.48995000       0.66115900       0.66292000 </v>
    <v>       0.47964900       0.32288500       0.33585900 </v>
    <v>       0.99234300       0.00545800       0.00954300 </v>
    <v>       0.00196100       0.99863900       0.32725500 </v>
    <v>       0.98811900       0.32482400       0.99853400 </v>
    <v>       0.00975600       0.65986600       0.66316900 </v>
    <v>       0.49839800       0.99640500       0.32626000 </v>
    <v>       0.74947500       0.50044100       0.17299200 </v>
    <v>       0.50275800       0.66415600       0.98454900 </v>
    <v>       0.75711000       0.83949600       0.82337800 </v>
   </varray>
  </structure>
  <varray name="forces" >
   <v>      -0.26215861      -0.23649461       0.36807369 </v>
   <v>       0.04510855       0.07921696       0.03431280 </v>
   <v>       0.00597988       0.02317516       0.00521824 </v>
   <v>      -0.03401134       0.01351356       0.00516925 </v>
   <v>      -0.03005129       0.01487147       0.03314731 </v>
   <v>       0.02103956       0.00208171       0.03514901 </v>
   <v>      -0.00438671       0.00191779      -0.00338709 </v>
   <v>      -0.00875225       0.00671682      -0.01352302 </v>
   <v>       0.00008230      -0.02641563      -0.05238785 </v>
   <v>       0.01389061       0.01156919       0.01094922 </v>
   <v>      -0.40509032      -0.31906770      -0.49920166 </v>
   <v>       0.01877680       0.02501327      -0.03028790 </v>
   <v>      -0.34487282       0.25694725       0.30285633 </v>
   <v>      -0.01155576      -0.03193944       0.02589173 </v>
   <v>       0.41679352      -0.21760916      -0.30721661 </v>
   <v>       0.00794559       0.02304330      -0.03433274 </v>
   <v>       0.02171898      -0.03225322       0.01744810 </v>
   <v>       0.00780255       0.00212704      -0.02370045 </v>
   <v>       0.04105034       0.02112513       0.00052652 </v>
   <v>      -0.01971988      -0.01459537       0.00507287 </v>
   <v>      -0.18483792       0.21530763      -0.20397414 </v>
   <v>       0.00521023      -0.01104653      -0.00926115 </v>
   <v>      -0.00847431       0.00948730       0.02249633 </v>
   <v>       0.22672054      -0.14821805       0.18662588 </v>
   <v>       0.29676893       0.18843329       0.17251503 </v>
   <v>       0.02398771       0.02736537      -0.04053810 </v>
   <v>      -0.00642697      -0.00406489      -0.02100724 </v>
   <v>      -0.05153544       0.10088948       0.04744503 </v>
   <v>       0.00612914       0.01987291       0.02815823 </v>
   <v>       0.01795189       0.00669631      -0.03301079 </v>
   <v>       0.00664361      -0.05924019       0.02118400 </v>
   <v>       0.00070080      -0.01743678      -0.02046928 </v>
   <v>      -0.00546625      -0.07691680       0.04327043 </v>
   <v>       0.18959837       0.14921240      -0.10366998 </v>
   <v>      -0.00782938      -0.02058178       0.03217623 </v>
   <v>       0.01126933       0.01729678      -0.00171820 </v>
  </varray>
  <varray name="stress" >
   <v>       8.39109983       0.06988063      -0.01108544 </v>
   <v>       0.06988060       5.86178883       0.45702699 </v>
   <v>      -0.01108549       0.45702698       7.38268500 </v>
  </varray>
  <energy>
   <i name="e_fr_energy">   -364.72596009 </i>
   <i name="e_wo_entrp">   -364.72868910 </i>
   <i name="e_0_energy">      0.00818703 </i>
  </energy>
  <time name="totalsc">   22.30   23.81</time>
 </calculation>
 <calculation>
  <scstep>
   <time name="dav">    1.10    1.11</time>
   <time name="total">    1.21    1.35</time>
   <energy>
    <i name="alphaZ">   1565.28250134 </i>
    <i name="ewald"> -20130.22195405 </i>
    <i name="hartreedc">  -6763.18413073 </i>
    <i name="XCdc">   -234.38603977 </i>
    <i name="pawpsdc">  34973.35818522 </i>
    <i name="pawaedc"> -33361.26664639 </i>
    <i name="eentropy">      0.00973014 </i>
    <i name="bandstr">  -2673.33139734 </i>
    <i name="atom">  26258.95213085 </i>
    <i name="e_fr_energy">   -364.78762073 </i>
    <i name="e_wo_entrp">   -364.79735087 </i>
    <i name="e_0_energy">   -364.79086411 </i>
   </energy>
  </scstep>
  <scstep>
   <time name="diag">    0.09    0.09</time>
   <time name="diis">    0.67    0.80</time>
   <time name="orth">    0.01    0.01</time>
   <time name="total">    1.00    1.18</time>
   <energy>
    <i name="e_fr_energy">   -364.77715451 </i>
    <i name="e_wo_entrp">   -364.78471236 </i>
    <i name="e_0_energy">   -364.77967379 </i>
   </energy>
  </scstep>
  <scstep>
   <time name="diag">    0.08    0.08</time>
   <time name="diis">    0.80    0.81</time>
   <time name="orth">    0.01    0.01</time>
   <time name="total">    0.96    1.00</time>
   <energy>
    <i name="e_fr_energy">   -364.76591500 </i>
    <i name="e_wo_entrp">   -364.77516329 </i>
    <i name="e_0_energy">   -364.76899776 </i>
   </energy>
  </scstep>
  <scstep>
   <time name="diag">    0.08    0.08</time>
   <time name="diis">    0.88    0.88</time>
   <time name="orth">    0.01    0.01</time>
   <time name="total">    1.03    1.09</time>
   <energy>
    <i name="e_fr_energy">   -364.76031995 </i>
    <i name="e_wo_entrp">   -364.76947696 </i>
    <i name="e_0_energy">   -364.76337229 </i>
   </energy>
  </scstep>
  <scstep>
   <time name="diag">    0.08    0.08</time>
   <time name="diis">    0.82    0.89</time>
   <time name="orth">    0.02    0.02</time>
   <time name="total">    0.99    1.10</time>
   <energy>
    <i name="e_fr_energy">   -364.75926803 </i>
    <i name="e_wo_entrp">   -364.76812878 </i>
    <i name="e_0_energy">   -364.76222161 </i>
   </energy>
  </scstep>
  <scstep>
   <time name="diag">    0.10    0.10</time>
   <time name="diis">    0.82    0.85</time>
   <time name="orth">    0.01    0.01</time>
   <time name="total">    1.00    1.11</time>
   <energy>
    <i name="e_fr_energy">   -364.75931425 </i>
    <i name="e_wo_entrp">   -364.76822686 </i>
    <i name="e_0_energy">   -364.76228512 </i>
   </energy>
  </scstep>
  <scstep>
   <time name="diag">    0.08    0.08</time>
   <time name="diis">    0.78    0.79</time>
   <time name="orth">    0.01    0.01</time>
   <time name="total">    0.94    0.98</time>
   <energy>
    <i name="e_fr_energy">   -364.75930029 </i>
    <i name="e_wo_entrp">   -364.76825782 </i>
    <i name="e_0_energy">   -364.76228613 </i>
   </energy>
  </scstep>
  <scstep>
   <time name="diag">    0.08    0.08</time>
   <time name="diis">    0.76    0.77</time>
   <time name="orth">    0.01    0.01</time>
   <time name="total">    0.92    0.95</time>
   <energy>
    <i name="e_fr_energy">   -364.75931163 </i>
    <i name="e_wo_entrp">   -364.76828428 </i>
    <i name="e_0_energy">   -364.76230252 </i>
   </energy>
  </scstep>
  <scstep>
   <time name="diag">    0.08    0.08</time>
   <time name="diis">    0.66    0.66</time>
   <time name="orth">    0.01    0.01</time>
   <time name="total">    0.81    0.85</time>
   <energy>
    <i name="e_fr_energy">   -364.75932255 </i>
    <i name="e_wo_entrp">   -364.76826689 </i>
    <i name="e_0_energy">   -364.76230400 </i>
   </energy>
  </scstep>
  <scstep>
   <time name="diag">    0.08    0.08</time>
   <time name="diis">    0.58    0.58</time>
   <time name="orth">    0.01    0.01</time>
   <time name="total">    0.70    0.73</time>
   <energy>
    <i name="alphaZ">   1565.28250134 </i>
    <i name="ewald"> -20130.22195405 </i>
    <i name="hartreedc">  -6780.04302984 </i>
    <i name="XCdc">   -233.66317005 </i>
    <i name="pawpsdc">  34795.68975739 </i>
    <i name="pawaedc"> -33183.61016752 </i>
    <i name="eentropy">      0.00897377 </i>
    <i name="bandstr">  -2657.15437352 </i>
    <i name="atom">  26258.95213085 </i>
    <i name="e_fr_energy">   -364.75933162 </i>
    <i name="e_wo_entrp">   -364.76830539 </i>
    <i name="e_0_energy">   -364.76232288 </i>
   </energy>
  </scstep>
  <structure>
   <crystal>
    <varray name="basis" >
     <v>       6.85839391      -0.00142655       0.00448665 </v>
     <v>      -0.00189435      10.26732119       0.01755173 </v>
     <v>       0.00696902       0.01719906      10.22585857 </v>
    </varray>
    <i name="volume">    720.07527009 </i>
    <varray name="rec_basis" >
     <v>       0.14580680       0.00002707      -0.00009941 </v>
     <v>       0.00002037       0.09739667      -0.00016383 </v>
     <v>      -0.00006401      -0.00016718       0.09779162 </v>
    </varray>
   </crystal>
   <varray name="positions" >
    <v>       0.25031132       0.16488337       0.50975042 </v>
    <v>       0.01921732       0.32255672       0.33618540 </v>
    <v>       0.00229664       0.34048269       0.67038834 </v>
    <v>       0.25199912       0.48167505       0.83724933 </v>
    <v>       0.24764045       0.85634990       0.51994597 </v>
    <v>       0.75289642       0.84990986       0.51632379 </v>
    <v>       0.24708673       0.84416571       0.83257220 </v>
    <v>       0.23730953       0.81438351       0.14296183 </v>
    <v>       0.49516424       0.34326784       0.66865482 </v>
    <v>       0.50519835       0.32790330       0.99739548 </v>
    <v>       0.25494746       0.17936977       0.17193664 </v>
    <v>       0.00402674       0.00268837       0.66734300 </v>
    <v>       0.25130681       0.48510278       0.49535894 </v>
    <v>       0.00268253       0.66454887       0.98846178 </v>
    <v>       0.74113721       0.18480876       0.18227573 </v>
    <v>       0.49775685       0.99911060       0.66693528 </v>
    <v>       0.73950986       0.16987346       0.82158878 </v>
    <v>       0.76590153       0.81158906       0.15782740 </v>
    <v>       0.74989676       0.49000582       0.82699366 </v>
    <v>       0.25772731       0.16872839       0.82489824 </v>
    <v>       0.25113774       0.50152922       0.16351160 </v>
    <v>       0.01393502       0.68011543       0.34544890 </v>
    <v>       0.50471206       0.00362533       0.01178387 </v>
    <v>       0.74913582       0.16843150       0.50593362 </v>
    <v>       0.74816403       0.48726960       0.49135078 </v>
    <v>       0.48903377       0.68413671       0.34247546 </v>
    <v>       0.48993645       0.66115331       0.66289024 </v>
    <v>       0.47954006       0.32302724       0.33592605 </v>
    <v>       0.99235592       0.00548598       0.00958285 </v>
    <v>       0.00199899       0.99864853       0.32720819 </v>
    <v>       0.98813299       0.32474036       0.99856415 </v>
    <v>       0.00975750       0.65984144       0.66314003 </v>
    <v>       0.49838635       0.99629636       0.32632151 </v>
    <v>       0.74987591       0.50065185       0.17284456 </v>
    <v>       0.50274140       0.66412688       0.98459465 </v>
    <v>       0.75713383       0.83952041       0.82337551 </v>
   </varray>
  </structure>
  <varray name="forces" >
   <v>      -0.23382040      -0.19945122       0.32402843 </v>
   <v>       0.07201702       0.05274003       0.02107017 </v>
   <v>       0.01069415       0.02611403       0.02301068 </v>
   <v>      -0.02751614       0.00041154      -0.00066856 </v>
   <v>      -0.02200799       0.02128240       0.03728477 </v>
   <v>       0.01341193       0.01133974       0.03579256 </v>
   <v>      -0.00405498       0.00142557      -0.00716304 </v>
   <v>      -0.01499816      -0.00549454      -0.01988594 </v>
   <v>      -0.00674410      -0.01290176      -0.04869405 </v>
   <v>       0.01590112       0.00071675       0.00987303 </v>
   <v>      -0.35073810      -0.26086525      -0.43133749 </v>
   <v>       0.02221536       0.00617475      -0.02399692 </v>
   <v>      -0.32240658       0.21458429       0.26790389 </v>
   <v>      -0.00220057      -0.01561534       0.01737646 </v>
   <v>       0.36790691      -0.17215319      -0.25189983 </v>
   <v>       0.00045192       0.00875249      -0.03047214 </v>
   <v>       0.00590288      -0.01640753       0.01287399 </v>
   <v>       0.01114263      -0.00868806      -0.02074924 </v>
   <v>       0.02908008       0.00213001      -0.00790414 </v>
   <v>      -0.00440337      -0.00304652       0.00638792 </v>
   <v>      -0.16162232       0.18874787      -0.18015943 </v>
   <v>       0.01417778       0.00956394      -0.00898887 </v>
   <v>      -0.00798142       0.00736758       0.02015625 </v>
   <v>       0.20366015      -0.12311829       0.15643806 </v>
   <v>       0.27698932       0.15451970       0.15886278 </v>
   <v>       0.01514027       0.02126594      -0.03993217 </v>
   <v>      -0.01268699      -0.00076775      -0.01021463 </v>
   <v>      -0.07794695       0.06279230       0.02743097 </v>
   <v>       0.00443083       0.01002499       0.01889355 </v>
   <v>       0.01728934       0.00150986      -0.02179600 </v>
   <v>       0.00129178      -0.05410420       0.00485298 </v>
   <v>       0.00806933      -0.00921096      -0.00839855 </v>
   <v>      -0.00655130      -0.05645609       0.03958812 </v>
   <v>       0.16528916       0.12779594      -0.08360116 </v>
   <v>      -0.01227828      -0.01064959       0.02099532 </v>
   <v>       0.01289570       0.01967058      -0.00695778 </v>
  </varray>
  <varray name="stress" >
   <v>       2.89534392       0.03991786      -0.00366408 </v>
   <v>       0.03991782       0.52174302       0.29498447 </v>
   <v>      -0.00366415       0.29498445       1.84472849 </v>
  </varray>
  <energy>
   <i name="e_fr_energy">   -364.75933162 </i>
   <i name="e_wo_entrp">   -364.76232288 </i>
   <i name="e_0_energy">      0.00897377 </i>
  </energy>
  <time name="totalsc">   11.16   12.17</time>
 </calculation>
 <calculation>
  <scstep>
   <time name="dav">    1.04    1.05</time>
   <time name="total">    1.13    1.41</time>
   <energy>
    <i name="alphaZ">   1547.16307633 </i>
    <i name="ewald"> -20032.07845460 </i>
    <i name="hartreedc">  -6773.40115102 </i>
    <i name="XCdc">   -237.11459357 </i>
    <i name="pawpsdc">  34795.46098691 </i>
    <i name="pawaedc"> -33183.54676074 </i>
    <i name="eentropy">      0.01301197 </i>
    <i name="bandstr">  -2740.48568554 </i>
    <i name="atom">  26258.95213085 </i>
    <i name="e_fr_energy">   -365.03743939 </i>
    <i name="e_wo_entrp">   -365.05045136 </i>
    <i name="e_0_energy">   -365.04177672 </i>
   </energy>
  </scstep>
  <scstep>
   <time name="diag">    0.08    0.08</time>
   <time name="diis">    0.79    0.80</time>
   <time name="orth">    0.01    0.01</time>
   <time name="total">    0.95    0.98</time>
   <energy>
    <i name="e_fr_energy">   -364.94780979 </i>
    <i name="e_wo_entrp">   -364.95500880 </i>
    <i name="e_0_energy">   -364.95020946 </i>
   </energy>
  </scstep>
  <scstep>
   <time name="diag">    0.11    0.12</time>
   <time name="diis">    0.85    0.86</time>
   <time name="orth">    0.01    0.01</time>
   <time name="total">    1.06    1.10</time>
   <energy>
    <i name="e_fr_energy">   -364.83641637 </i>
    <i name="e_wo_entrp">   -364.84854944 </i>
    <i name="e_0_energy">   -364.84046073 </i>
   </energy>
  </scstep>
  <scstep>
   <time name="diag">    0.11    0.11</time>
   <time name="diis">    0.83    0.84</time>
   <time name="orth">    0.01    0.01</time>
   <time name="total">    1.02    1.05</time>
   <energy>
    <i name="e_fr_energy">   -364.78896042 </i>
    <i name="e_wo_entrp">   -364.80068336 </i>
    <i name="e_0_energy">   -364.79286807 </i>
   </energy>
  </scstep>
  <scstep>
   <time name="diag">    0.08    0.08</time>
   <time name="diis">    0.83    0.85</time>
   <time name="orth">    0.02    0.02</time>
   <time name="total">    1.02    1.06</time>
   <energy>
    <i name="e_fr_energy">   -364.77828212 </i>
    <i name="e_wo_entrp">   -364.78937284 </i>
    <i name="e_0_energy">   -364.78197902 </i>
   </energy>
  </scstep>
  <scstep>
   <time name="diag">    0.09    0.09</time>
   <time name="diis">    0.83    0.84</time>
   <time name="orth">    0.01    0.01</time>
   <time name="total">    1.01    1.05</time>
   <energy>
    <i name="e_fr_energy">   -364.77888171 </i>
    <i name="e_wo_entrp">   -364.79000393 </i>
    <i name="e_0_energy">   -364.78258912 </i>
   </energy>
  </scstep>
  <scstep>
   <time name="diag">    0.08    0.08</time>
   <time name="diis">    0.85    0.86</time>
   <time name="orth">    0.01    0.01</time>
   <time name="total">    1.01    1.04</time>
   <energy>
    <i name="e_fr_energy">   -364.77890110 </i>
    <i name="e_wo_entrp">   -364.79022053 </i>
    <i name="e_0_energy">   -364.78267424 </i>
   </energy>
  </scstep>
  <scstep>
   <time name="diag">    0.13    0.13</time>
   <time name="diis">    0.90    0.91</time>
   <time name="orth">    0.01    0.01</time>
   <time name="total">    1.12    1.18</time>
   <energy>
    <i name="e_fr_energy">   -364.77909435 </i>
    <i name="e_wo_entrp">   -364.79038506 </i>
    <i name="e_0_energy">   -364.78285792 </i>
   </energy>
  </scstep>
  <scstep>
   <time name="diag">    0.08    0.08</time>
   <time name="diis">    0.86    0.97</time>
   <time name="orth">    0.01    0.01</time>
   <time name="total">    1.02    1.17</time>
   <energy>
    <i name="e_fr_energy">   -364.77924687 </i>
    <i name="e_wo_entrp">   -364.79047689 </i>
    <i name="e_0_energy">   -364.78299021 </i>
   </energy>
  </scstep>
  <scstep>
   <time name="diag">    0.08    0.08</time>
   <time name="diis">    0.75    0.80</time>
   <time name="orth">    0.01    0.01</time>
   <time name="total">    0.93    1.01</time>
   <energy>
    <i name="e_fr_energy">   -364.77943702 </i>
    <i name="e_wo_entrp">   -364.79075970 </i>
    <i name="e_0_energy">   -364.78321124 </i>
   </energy>
  </scstep>
  <scstep>
   <time name="diag">    0.09    0.10</time>
   <time name="diis">    0.73    0.73</time>
   <time name="orth">    0.01    0.01</time>
   <time name="total">    0.91    0.97</time>
   <energy>
    <i name="e_fr_energy">   -364.77951777 </i>
    <i name="e_wo_entrp">   -364.79078942 </i>
    <i name="e_0_energy">   -364.78327498 </i>
   </energy>
  </scstep>
  <scstep>
   <time name="diag">    0.13    0.13</time>
   <time name="diis">    0.64    0.64</time>
   <time name="orth">    0.01    0.01</time>
   <time name="total">    0.87    0.90</time>
   <energy>
    <i name="e_fr_energy">   -364.77950583 </i>
    <i name="e_wo_entrp">   -364.79079480 </i>
    <i name="e_0_energy">   -364.78326882 </i>
   </energy>
  </scstep>
  <scstep>
   <time name="diag">    0.08    0.08</time>
   <time name="diis">    0.54    0.55</time>
   <time name="orth">    0.01    0.01</time>
   <time name="total">    0.67    0.70</time>
   <energy>
    <i name="alphaZ">   1547.16307633 </i>
    <i name="ewald"> -20032.07845460 </i>
    <i name="hartreedc">  -6823.10139942 </i>
    <i name="XCdc">   -234.98629262 </i>
    <i name="pawpsdc">  34278.16919297 </i>
    <i name="pawaedc"> -32667.19759475 </i>
    <i name="eentropy">      0.01130249 </i>
    <i name="bandstr">  -2691.71147012 </i>
    <i name="atom">  26258.95213085 </i>
    <i name="e_fr_energy">   -364.77950886 </i>
    <i name="e_wo_entrp">   -364.79081135 </i>
    <i name="e_0_energy">   -364.78327635 </i>
   </energy>
  </scstep>
  <structure>
   <crystal>
    <varray name="basis" >
     <v>       6.88942044      -0.00117184       0.00446321 </v>
     <v>      -0.00151661      10.29978742       0.02014924 </v>
     <v>       0.00694012       0.01977112      10.26657114 </v>
    </varray>
    <i name="volume">    728.50834999 </i>
    <varray name="rec_basis" >
     <v>       0.14515016       0.00002156      -0.00009816 </v>
     <v>       0.00001664       0.09708975      -0.00018698 </v>
     <v>      -0.00006313      -0.00019056       0.09740391 </v>
    </varray>
   </crystal>
   <varray name="positions" >
    <v>       0.24864980       0.16388043       0.51131569 </v>
    <v>       0.01950283       0.32289151       0.33633039 </v>
    <v>       0.00233450       0.34058066       0.67041031 </v>
    <v>       0.25178380       0.48173213       0.83727127 </v>
    <v>       0.24745008       0.85641253       0.52008669 </v>
    <v>       0.75302946       0.84991844       0.51647296 </v>
    <v>       0.24705898       0.84417384       0.83255782 </v>
    <v>       0.23725418       0.81441200       0.14290439 </v>
    <v>       0.49516495       0.34315651       0.66843257 </v>
    <v>       0.50528625       0.32795216       0.99744184 </v>
    <v>       0.25238474       0.17802368       0.16982050 </v>
    <v>       0.00414577       0.00279438       0.66721417 </v>
    <v>       0.24912252       0.48618690       0.49664394 </v>
    <v>       0.00260922       0.66441361       0.98857198 </v>
    <v>       0.74377688       0.18389109       0.18097172 </v>
    <v>       0.49780733       0.99920829       0.66678932 </v>
    <v>       0.73964725       0.16973696       0.82166304 </v>
    <v>       0.76595103       0.81159823       0.15772673 </v>
    <v>       0.75015666       0.49009519       0.82699563 </v>
    <v>       0.25760243       0.16866661       0.82491994 </v>
    <v>       0.24996873       0.50244100       0.16264449 </v>
    <v>       0.01396803       0.68006879       0.34540964 </v>
    <v>       0.50465833       0.00366529       0.01187934 </v>
    <v>       0.75057014       0.16780359       0.50672647 </v>
    <v>       0.75004226       0.48806548       0.49208108 </v>
    <v>       0.48918583       0.68425275       0.34230308 </v>
    <v>       0.48989584       0.66113626       0.66280110 </v>
    <v>       0.47921372       0.32345350       0.33612691 </v>
    <v>       0.99239462       0.00556982       0.00970225 </v>
    <v>       0.00211279       0.99867710       0.32706792 </v>
    <v>       0.98817488       0.32448970       0.99865451 </v>
    <v>       0.00976201       0.65976785       0.66305324 </v>
    <v>       0.49835147       0.99597079       0.32650580 </v>
    <v>       0.75107683       0.50128374       0.17240277 </v>
    <v>       0.50269167       0.66403961       0.98473144 </v>
    <v>       0.75720520       0.83959358       0.82336806 </v>
   </varray>
  </structure>
  <varray name="forces" >
   <v>      -0.15399775      -0.09427926       0.20162631 </v>
   <v>       0.14603213      -0.02040610      -0.01630774 </v>
   <v>       0.02516433       0.03523181       0.07344887 </v>
   <v>      -0.00929964      -0.03415204      -0.01762413 </v>
   <v>       0.00269717       0.03939670       0.04918012 </v>
   <v>      -0.01016968       0.03731305       0.03814260 </v>
   <v>      -0.00236490      -0.00281339      -0.01801306 </v>
   <v>      -0.03147443      -0.04174111      -0.03583887 </v>
   <v>      -0.02538206       0.02708549      -0.03514109 </v>
   <v>       0.02257162      -0.02922002       0.00033502 </v>
   <v>      -0.20231166      -0.10161277      -0.24665246 </v>
   <v>       0.02981759      -0.05164507      -0.00290217 </v>
   <v>      -0.26367628       0.09193284       0.16949766 </v>
   <v>       0.02263052       0.03177759      -0.00516271 </v>
   <v>       0.23675534      -0.04448015      -0.10168410 </v>
   <v>      -0.02002937      -0.03134074      -0.01865184 </v>
   <v>      -0.03856954       0.02797980       0.00051695 </v>
   <v>       0.02140970      -0.04083394      -0.01361532 </v>
   <v>      -0.00392586      -0.05159499      -0.02997773 </v>
   <v>       0.04079488       0.02837246       0.01122280 </v>
   <v>      -0.09614821       0.11915266      -0.11445383 </v>
   <v>       0.03960005       0.06802237      -0.01172439 </v>
   <v>      -0.00868745      -0.00065375       0.01140604 </v>
   <v>       0.13823466      -0.05016126       0.07528037 </v>
   <v>       0.22190924       0.05680434       0.12079335 </v>
   <v>      -0.00975372       0.00403812      -0.04002966 </v>
   <v>      -0.02955216       0.01016778       0.02287625 </v>
   <v>      -0.15001133      -0.03545215      -0.02304517 </v>
   <v>      -0.00152444      -0.02240791      -0.01117276 </v>
   <v>       0.01670563      -0.01435366       0.01156363 </v>
   <v>      -0.01719140      -0.03624749      -0.04274622 </v>
   <v>       0.02825639       0.01716451       0.03068238 </v>
   <v>      -0.00923446      -0.00193087       0.02857369 </v>
   <v>       0.09623129       0.06766495      -0.02691731 </v>
   <v>      -0.02411493       0.01572197      -0.01127092 </v>
   <v>       0.01860874       0.02750023      -0.02221453 </v>
  </varray>
  <varray name="stress" >
   <v>     -14.00967259      -0.04362894       0.01746335 </v>
   <v>      -0.04362893     -15.82446791      -0.19846886 </v>
   <v>       0.01746334      -0.19846889     -15.04976508 </v>
  </varray>
  <energy>
   <i name="e_fr_energy">   -364.77950886 </i>
   <i name="e_wo_entrp">   -364.78327635 </i>
   <i name="e_0_energy">      0.01130249 </i>
  </energy>
  <time name="totalsc">   14.32   15.34</time>
 </calculation>
 <calculation>
  <scstep>
   <time name="dav">    1.06    1.07</time>
   <time name="total">    1.15    1.28</time>
   <energy>
    <i name="alphaZ">   1552.94563575 </i>
    <i name="ewald"> -20063.65060725 </i>
    <i name="hartreedc">  -6825.04761799 </i>
    <i name="XCdc">   -233.88255565 </i>
    <i name="pawpsdc">  34277.40636472 </i>
    <i name="pawaedc"> -32666.47812612 </i>
    <i name="eentropy">      0.01009254 </i>
    <i name="bandstr">  -2665.06781099 </i>
    <i name="atom">  26258.95213085 </i>
    <i name="e_fr_energy">   -364.81249414 </i>
    <i name="e_wo_entrp">   -364.82258668 </i>
    <i name="e_0_energy">   -364.81585832 </i>
   </energy>
  </scstep>
  <scstep>
   <time name="diag">    0.08    0.08</time>
   <time name="diis">    0.75    0.76</time>
   <time name="orth">    0.01    0.01</time>
   <time name="total">    0.91    0.94</time>
   <energy>
    <i name="e_fr_energy">   -364.80221900 </i>
    <i name="e_wo_entrp">   -364.81414304 </i>
    <i name="e_0_energy">   -364.80619368 </i>
   </energy>
  </scstep>
  <scstep>
   <time name="diag">    0.08    0.08</time>
   <time name="diis">    0.87    0.88</time>
   <time name="orth">    0.01    0.01</time>
   <time name="total">    1.03    1.07</time>
   <energy>
    <i name="e_fr_energy">   -364.79160723 </i>
    <i name="e_wo_entrp">   -364.80189804 </i>
    <i name="e_0_energy">   -364.79503750 </i>
   </energy>
  </scstep>
  <scstep>
   <time name="diag">    0.08    0.08</time>
   <time name="diis">    0.99    1.00</time>
   <time name="orth">    0.02    0.02</time>
   <time name="total">    1.20    1.23</time>
   <energy>
    <i name="e_fr_energy">   -364.78643793 </i>
    <i name="e_wo_entrp">   -364.79686149 </i>
    <i name="e_0_energy">   -364.78991245 </i>
   </energy>
  </scstep>
  <scstep>
   <time name="diag">    0.09    0.09</time>
   <time name="diis">    1.32    1.33</time>
   <time name="orth">    0.01    0.01</time>
   <time name="total">    1.49    1.53</time>
   <energy>
    <i name="e_fr_energy">   -364.78555038 </i>
    <i name="e_wo_entrp">   -364.79619928 </i>
    <i name="e_0_energy">   -364.78910001 </i>
   </energy>
  </scstep>
  <scstep>
   <time name="diag">    0.09    0.09</time>
   <time name="diis">    1.01    1.01</time>
   <time name="orth">    0.01    0.01</time>
   <time name="total">    1.51    1.58</time>
   <energy>
    <i name="e_fr_energy">   -364.78568026 </i>
    <i name="e_wo_entrp">   -364.79630109 </i>
    <i name="e_0_energy">   -364.78922053 </i>
   </energy>
  </scstep>
  <scstep>
   <time name="diag">    0.08    0.08</time>
   <time name="diis">    0.76    0.77</time>
   <time name="orth">    0.01    0.01</time>
   <time name="total">    1.26    1.32</time>
   <energy>
    <i name="e_fr_energy">   -364.78573405 </i>
    <i name="e_wo_entrp">   -364.79629093 </i>
    <i name="e_0_energy">   -364.78925301 </i>
   </energy>
  </scstep>
  <scstep>
   <time name="diag">    0.08    0.08</time>
   <time name="diis">    0.87    0.88</time>
   <time name="orth">    0.01    0.01</time>
   <time name="total">    1.03    1.08</time>
   <energy>
    <i name="e_fr_energy">   -364.78578868 </i>
    <i name="e_wo_entrp">   -364.79634982 </i>
    <i name="e_0_energy">   -364.78930906 </i>
   </energy>
  </scstep>
  <scstep>
   <time name="diag">    0.10    0.10</time>
   <time name="diis">    1.20    1.21</time>
   <time name="orth">    0.01    0.01</time>
   <time name="total">    1.39    1.43</time>
   <energy>
    <i name="e_fr_energy">   -364.78582449 </i>
    <i name="e_wo_entrp">   -364.79640717 </i>
    <i name="e_0_energy">   -364.78935205 </i>
   </energy>
  </scstep>
  <scstep>
   <time name="diag">    0.10    0.10</time>
   <time name="diis">    0.55    0.56</time>
   <time name="orth">    0.01    0.01</time>
   <time name="total">    0.73    0.77</time>
   <energy>
    <i name="e_fr_energy">   -364.78586097 </i>
    <i name="e_wo_entrp">   -364.79641675 </i>
    <i name="e_0_energy">   -364.78937956 </i>
   </energy>
  </scstep>
  <scstep>
   <time name="diag">    0.09    0.09</time>
   <time name="diis">    1.20    1.21</time>
   <time name="orth">    0.04    0.04</time>
   <time name="total">    1.47    1.51</time>
   <energy>
    <i name="e_fr_energy">   -364.78588354 </i>
    <i name="e_wo_entrp">   -364.79645323 </i>
    <i name="e_0_energy">   -364.78940677 </i>
   </energy>
  </scstep>
  <scstep>
   <time name="diag">    0.09    0.09</time>
   <time name="diis">    0.43    0.43</time>
   <time name="orth">    0.02    0.02</time>
   <time name="total">    0.57    0.60</time>
   <energy>
    <i name="alphaZ">   1552.94563575 </i>
    <i name="ewald"> -20063.65060725 </i>
    <i name="hartreedc">  -6808.87348283 </i>
    <i name="XCdc">   -234.57489394 </i>
    <i name="pawpsdc">  34437.88057884 </i>
    <i name="pawaedc"> -32826.84263895 </i>
    <i name="eentropy">      0.01056375 </i>
    <i name="bandstr">  -2680.63317479 </i>
    <i name="atom">  26258.95213085 </i>
    <i name="e_fr_energy">   -364.78588857 </i>
    <i name="e_wo_entrp">   -364.79645232 </i>
    <i name="e_0_energy">   -364.78940982 </i>
   </energy>
  </scstep>
  <structure>
   <crystal>
    <varray name="basis" >
     <v>       6.87946604      -0.00125356       0.00447073 </v>
     <v>      -0.00163780      10.28937111       0.01931587 </v>
     <v>       0.00694939       0.01894591      10.25350911 </v>
    </varray>
    <i name="volume">    725.79567112 </i>
    <varray name="rec_basis" >
     <v>       0.14536019       0.00002332      -0.00009856 </v>
     <v>       0.00001783       0.09718801      -0.00017959 </v>
     <v>      -0.00006341      -0.00018310       0.09752797 </v>
    </varray>
   </crystal>
   <varray name="positions" >
    <v>       0.24918045       0.16420130       0.51081541 </v>
    <v>       0.01941165       0.32278445       0.33628409 </v>
    <v>       0.00232241       0.34054933       0.67040329 </v>
    <v>       0.25185257       0.48171387       0.83726426 </v>
    <v>       0.24751088       0.85639251       0.52004172 </v>
    <v>       0.75298697       0.84991571       0.51642529 </v>
    <v>       0.24706785       0.84417124       0.83256241 </v>
    <v>       0.23727186       0.81440288       0.14292274 </v>
    <v>       0.49516472       0.34319210       0.66850358 </v>
    <v>       0.50525817       0.32793654       0.99742703 </v>
    <v>       0.25320323       0.17845401       0.17049664 </v>
    <v>       0.00410775       0.00276047       0.66725535 </v>
    <v>       0.24982018       0.48584026       0.49623339 </v>
    <v>       0.00263263       0.66445688       0.98853675 </v>
    <v>       0.74293378       0.18418450       0.18138836 </v>
    <v>       0.49779121       0.99917704       0.66683597 </v>
    <v>       0.73960336       0.16978062       0.82163930 </v>
    <v>       0.76593522       0.81159529       0.15775890 </v>
    <v>       0.75007366       0.49006661       0.82699501 </v>
    <v>       0.25764231       0.16868637       0.82491300 </v>
    <v>       0.25034212       0.50214932       0.16292166 </v>
    <v>       0.01395749       0.68008371       0.34542218 </v>
    <v>       0.50467549       0.00365252       0.01184883 </v>
    <v>       0.75011202       0.16800448       0.50647305 </v>
    <v>       0.74944238       0.48781101       0.49184776 </v>
    <v>       0.48913727       0.68421562       0.34235817 </v>
    <v>       0.48990881       0.66114171       0.66282958 </v>
    <v>       0.47931795       0.32331718       0.33606276 </v>
    <v>       0.99238226       0.00554302       0.00966410 </v>
    <v>       0.00207644       0.99866795       0.32711275 </v>
    <v>       0.98816150       0.32456988       0.99862562 </v>
    <v>       0.00976057       0.65979138       0.66308097 </v>
    <v>       0.49836261       0.99607493       0.32644688 </v>
    <v>       0.75069328       0.50108162       0.17254400 </v>
    <v>       0.50270755       0.66406753       0.98468772 </v>
    <v>       0.75718240       0.83957018       0.82337045 </v>
   </varray>
  </structure>
  <varray name="forces" >
   <v>      -0.17904128      -0.12781433       0.24036782 </v>
   <v>       0.12352270       0.00243588      -0.00476565 </v>
   <v>       0.02071079       0.03258696       0.05749553 </v>
   <v>      -0.01481877      -0.02307438      -0.01193672 </v>
   <v>      -0.00513846       0.03369519       0.04578350 </v>
   <v>      -0.00253454       0.02931793       0.03752552 </v>
   <v>      -0.00260152      -0.00166684      -0.01434176 </v>
   <v>      -0.02605164      -0.03042779      -0.03097234 </v>
   <v>      -0.01959321       0.01462759      -0.04005638 </v>
   <v>       0.02016948      -0.01938935       0.00483850 </v>
   <v>      -0.24936887      -0.15240926      -0.30509526 </v>
   <v>       0.02759143      -0.03316967      -0.01044547 </v>
   <v>      -0.28210373       0.13109563       0.20118974 </v>
   <v>       0.01483925       0.01685642       0.00273394 </v>
   <v>       0.27784606      -0.08448545      -0.14831934 </v>
   <v>      -0.01340972      -0.01850170      -0.02314542 </v>
   <v>      -0.02475676       0.01388306       0.00412188 </v>
   <v>       0.01827376      -0.03116318      -0.01590589 </v>
   <v>       0.00644304      -0.03453881      -0.02288722 </v>
   <v>       0.02675738       0.01872677       0.00933420 </v>
   <v>      -0.11645042       0.14119670      -0.13499662 </v>
   <v>       0.03201073       0.04944600      -0.01099410 </v>
   <v>      -0.00881100       0.00176840       0.01458146 </v>
   <v>       0.15887119      -0.07318946       0.10034850 </v>
   <v>       0.23895748       0.08758124       0.13262191 </v>
   <v>      -0.00214625       0.00886666      -0.04021972 </v>
   <v>      -0.02432064       0.00653402       0.01242212 </v>
   <v>      -0.12824331      -0.00585369      -0.00861787 </v>
   <v>       0.00046576      -0.01279540      -0.00176587 </v>
   <v>       0.01693249      -0.00904595       0.00113655 </v>
   <v>      -0.01128819      -0.04197038      -0.02745054 </v>
   <v>       0.02171393       0.00908510       0.01791990 </v>
   <v>      -0.00873192      -0.01730347       0.03197977 </v>
   <v>       0.11793109       0.08631307      -0.04435799 </v>
   <v>      -0.02042916       0.00771280      -0.00058626 </v>
   <v>       0.01680282       0.02506973      -0.01754040 </v>
  </varray>
  <varray name="stress" >
   <v>      -8.90208650      -0.01369695       0.01089874 </v>
   <v>      -0.01369697     -10.87636391      -0.03660565 </v>
   <v>       0.01089879      -0.03660569      -9.92394476 </v>
  </varray>
  <energy>
   <i name="e_fr_energy">   -364.78588857 </i>
   <i name="e_wo_entrp">   -364.78940982 </i>
   <i name="e_0_energy">      0.01056375 </i>
  </energy>
  <time name="totalsc">   15.32   16.11</time>
 </calculation>
 <calculation>
  <scstep>
   <time name="dav">    1.03    1.04</time>
   <time name="total">    1.12    1.25</time>
   <energy>
    <i name="alphaZ">   1555.36229770 </i>
    <i name="ewald"> -20065.36116423 </i>
    <i name="hartreedc">  -6820.87770129 </i>
    <i name="XCdc">   -234.09292956 </i>
    <i name="pawpsdc">  34438.02315240 </i>
    <i name="pawaedc"> -32826.96985249 </i>
    <i name="eentropy">      0.01043250 </i>
    <i name="bandstr">  -2669.85477333 </i>
    <i name="atom">  26258.95213085 </i>
    <i name="e_fr_energy">   -364.80840744 </i>
    <i name="e_wo_entrp">   -364.81883994 </i>
    <i name="e_0_energy">   -364.81188494 </i>
   </energy>
  </scstep>
  <scstep>
   <time name="diag">    0.08    0.08</time>
   <time name="diis">    0.73    0.73</time>
   <time name="orth">    0.01    0.01</time>
   <time name="total">    0.89    0.92</time>
   <energy>
    <i name="e_fr_energy">   -364.81547664 </i>
    <i name="e_wo_entrp">   -364.82658954 </i>
    <i name="e_0_energy">   -364.81918094 </i>
   </energy>
  </scstep>
  <scstep>
   <time name="diag">    0.11    0.11</time>
   <time name="diis">    0.80    0.80</time>
   <time name="orth">    0.01    0.01</time>
   <time name="total">    0.98    1.02</time>
   <energy>
    <i name="e_fr_energy">   -364.81351101 </i>
    <i name="e_wo_entrp">   -364.82394782 </i>
    <i name="e_0_energy">   -364.81698995 </i>
   </energy>
  </scstep>
  <scstep>
   <time name="diag">    0.08    0.08</time>
   <time name="diis">    0.87    0.89</time>
   <time name="orth">    0.01    0.01</time>
   <time name="total">    1.02    1.08</time>
   <energy>
    <i name="e_fr_energy">   -364.81232293 </i>
    <i name="e_wo_entrp">   -364.82293779 </i>
    <i name="e_0_energy">   -364.81586121 </i>
   </energy>
  </scstep>
  <scstep>
   <time name="diag">    0.08    0.08</time>
   <time name="diis">    0.80    0.81</time>
   <time name="orth">    0.01    0.01</time>
   <time name="total">    0.96    0.99</time>
   <energy>
    <i name="e_fr_energy">   -364.81216178 </i>
    <i name="e_wo_entrp">   -364.82280266 </i>
    <i name="e_0_energy">   -364.81570874 </i>
   </energy>
  </scstep>
  <scstep>
   <time name="diag">    0.08    0.08</time>
   <time name="diis">    0.79    0.80</time>
   <time name="orth">    0.01    0.01</time>
   <time name="total">    0.94    0.98</time>
   <energy>
    <i name="e_fr_energy">   -364.81220223 </i>
    <i name="e_wo_entrp">   -364.82283102 </i>
    <i name="e_0_energy">   -364.81574516 </i>
   </energy>
  </scstep>
  <scstep>
   <time name="diag">    0.12    0.12</time>
   <time name="diis">    0.74    0.74</time>
   <time name="orth">    0.01    0.01</time>
   <time name="total">    0.94    0.98</time>
   <energy>
    <i name="e_fr_energy">   -364.81220567 </i>
    <i name="e_wo_entrp">   -364.82280427 </i>
    <i name="e_0_energy">   -364.81573853 </i>
   </energy>
  </scstep>
  <scstep>
   <time name="diag">    0.08    0.08</time>
   <time name="diis">    0.60    0.60</time>
   <time name="orth">    0.01    0.01</time>
   <time name="total">    0.76    0.80</time>
   <energy>
    <i name="e_fr_energy">   -364.81222531 </i>
    <i name="e_wo_entrp">   -364.82282756 </i>
    <i name="e_0_energy">   -364.81575939 </i>
   </energy>
  </scstep>
  <scstep>
   <time name="diag">    0.08    0.09</time>
   <time name="diis">    0.44    0.57</time>
   <time name="orth">    0.01    0.01</time>
   <time name="total">    0.60    0.78</time>
   <energy>
    <i name="e_fr_energy">   -364.81223804 </i>
    <i name="e_wo_entrp">   -364.82285155 </i>
    <i name="e_0_energy">   -364.81577588 </i>
   </energy>
  </scstep>
  <scstep>
   <time name="diag">    0.08    0.08</time>
   <time name="diis">    0.42    0.43</time>
   <time name="orth">    0.01    0.01</time>
   <time name="total">    0.55    0.58</time>
   <energy>
    <i name="alphaZ">   1555.36229770 </i>
    <i name="ewald"> -20065.36116423 </i>
    <i name="hartreedc">  -6814.94531817 </i>
    <i name="XCdc">   -234.35742668 </i>
    <i name="pawpsdc">  34510.38321497 </i>
    <i name="pawaedc"> -32899.19550716 </i>
    <i name="eentropy">      0.01060080 </i>
    <i name="bandstr">  -2675.66107409 </i>
    <i name="atom">  26258.95213085 </i>
    <i name="e_fr_energy">   -364.81224600 </i>
    <i name="e_wo_entrp">   -364.82284680 </i>
    <i name="e_0_energy">   -364.81577960 </i>
   </energy>
  </scstep>
  <structure>
   <crystal>
    <varray name="basis" >
     <v>       6.87803973      -0.00120129       0.00446942 </v>
     <v>      -0.00156125      10.28064014       0.01988701 </v>
     <v>       0.00694957       0.01950863      10.24839895 </v>
    </varray>
    <i name="volume">    724.66795780 </i>
    <varray name="rec_basis" >
     <v>       0.14539033       0.00002227      -0.00009863 </v>
     <v>       0.00001711       0.09727057      -0.00018517 </v>
     <v>      -0.00006344      -0.00018876       0.09757662 </v>
    </varray>
   </crystal>
   <varray name="positions" >
    <v>       0.24845161       0.16380017       0.51148943 </v>
    <v>       0.01969875       0.32287122       0.33631471 </v>
    <v>       0.00236798       0.34061180       0.67047604 </v>
    <v>       0.25177280       0.48170127       0.83725584 </v>
    <v>       0.24745420       0.85644742       0.52013052 </v>
    <v>       0.75301582       0.84995198       0.51650654 </v>
    <v>       0.24705637       0.84417136       0.83254202 </v>
    <v>       0.23721256       0.81437457       0.14287217 </v>
    <v>       0.49513075       0.34318136       0.66840099 </v>
    <v>       0.50531538       0.32792615       0.99744434 </v>
    <v>       0.25212662       0.17793950       0.16960987 </v>
    <v>       0.00418572       0.00274835       0.66721089 </v>
    <v>       0.24878064       0.48626441       0.49679075 </v>
    <v>       0.00264018       0.66444264       0.98856751 </v>
    <v>       0.74407985       0.18385634       0.18088805 </v>
    <v>       0.49778046       0.99917998       0.66677235 </v>
    <v>       0.73959455       0.16976260       0.82166272 </v>
    <v>       0.76597952       0.81156126       0.15771511 </v>
    <v>       0.75014999       0.49004874       0.82696876 </v>
    <v>       0.25765775       0.16869273       0.82492931 </v>
    <v>       0.24984634       0.50254291       0.16254611 </v>
    <v>       0.01402166       0.68012976       0.34539934 </v>
    <v>       0.50464664       0.00366455       0.01188983 </v>
    <v>       0.75074833       0.16776148       0.50678923 </v>
    <v>       0.75032962       0.48811241       0.49218559 </v>
    <v>       0.48917164       0.68425514       0.34226787 </v>
    <v>       0.48985618       0.66114503       0.66282181 </v>
    <v>       0.47901239       0.32341716       0.33610307 </v>
    <v>       0.99239277       0.00554910       0.00969196 </v>
    <v>       0.00213449       0.99866456       0.32707895 </v>
    <v>       0.98815231       0.32445813       0.99861621 </v>
    <v>       0.00979958       0.65978351       0.66308019 </v>
    <v>       0.49833859       0.99597306       0.32653056 </v>
    <v>       0.75119989       0.50134085       0.17238109 </v>
    <v>       0.50265944       0.66405465       0.98472130 </v>
    <v>       0.75722963       0.83961782       0.82334797 </v>
   </varray>
  </structure>
  <varray name="forces" >
   <v>      -0.14108615      -0.08696118       0.18025565 </v>
   <v>       0.12292453      -0.00764904      -0.01709452 </v>
   <v>       0.01726251       0.02321993       0.06529317 </v>
   <v>      -0.01189874      -0.01090774      -0.01015724 </v>
   <v>       0.00588238       0.01224153       0.02248472 </v>
   <v>      -0.01226514       0.02008947       0.01410359 </v>
   <v>       0.00232688      -0.01011699      -0.00943045 </v>
   <v>      -0.01367614      -0.02391174      -0.01933885 </v>
   <v>      -0.01727366       0.01952214      -0.04183563 </v>
   <v>       0.01873892      -0.02525487       0.00688544 </v>
   <v>      -0.19546444      -0.11695729      -0.24134326 </v>
   <v>       0.01643267      -0.03725649       0.01495644 </v>
   <v>      -0.25245100       0.10200638       0.15806078 </v>
   <v>       0.01147179       0.02169956      -0.01467058 </v>
   <v>       0.22924863      -0.05452033      -0.09667915 </v>
   <v>      -0.00822155      -0.01945932      -0.00665546 </v>
   <v>      -0.03388220       0.01854580       0.01251089 </v>
   <v>       0.00645084      -0.02895761      -0.00475416 </v>
   <v>      -0.00430652      -0.03359285      -0.02151415 </v>
   <v>       0.03491957       0.01874431       0.02619630 </v>
   <v>      -0.08711257       0.11534626      -0.10664690 </v>
   <v>       0.03364250       0.05841507      -0.01273871 </v>
   <v>      -0.00465902      -0.00026775       0.01052611 </v>
   <v>       0.12836822      -0.04766654       0.06269284 </v>
   <v>       0.21208737       0.06540211       0.10910441 </v>
   <v>      -0.00393399      -0.00715986      -0.03936053 </v>
   <v>      -0.02133112       0.00910156       0.01984010 </v>
   <v>      -0.12667936      -0.02192498      -0.02248589 </v>
   <v>      -0.00564878      -0.01901594      -0.01658366 </v>
   <v>       0.01357176      -0.01571119       0.00543340 </v>
   <v>      -0.01456374      -0.03318041      -0.03945080 </v>
   <v>       0.01836688       0.01691289       0.03382710 </v>
   <v>      -0.00630480      -0.00364622       0.02177631 </v>
   <v>       0.08837372       0.06658779      -0.02073690 </v>
   <v>      -0.01410150       0.01366781      -0.01126493 </v>
   <v>       0.01479128       0.02261573      -0.01120549 </v>
  </varray>
  <varray name="stress" >
   <v>      -6.97066775      -0.05274693       0.03260219 </v>
   <v>      -0.05274687      -8.57615879      -0.14148599 </v>
   <v>       0.03260211      -0.14148595      -7.92340822 </v>
  </varray>
  <energy>
   <i name="e_fr_energy">   -364.81224600 </i>
   <i name="e_wo_entrp">   -364.81577960 </i>
   <i name="e_0_energy">      0.01060080 </i>
  </energy>
  <time name="totalsc">   10.47   11.21</time>
 </calculation>
 <calculation>
  <scstep>
   <time name="dav">    1.01    1.02</time>
   <time name="total">    1.14    1.28</time>
   <energy>
    <i name="alphaZ">   1562.64444130 </i>
    <i name="ewald"> -20068.66552954 </i>
    <i name="hartreedc">  -6852.64216190 </i>
    <i name="XCdc">   -232.90113559 </i>
    <i name="pawpsdc">  34510.90282040 </i>
    <i name="pawaedc"> -32899.67333400 </i>
    <i name="eentropy">      0.01000741 </i>
    <i name="bandstr">  -2643.44757648 </i>
    <i name="atom">  26258.95213085 </i>
    <i name="e_fr_energy">   -364.82033754 </i>
    <i name="e_wo_entrp">   -364.83034495 </i>
    <i name="e_0_energy">   -364.82367335 </i>
   </energy>
  </scstep>
  <scstep>
   <time name="diag">    0.10    0.11</time>
   <time name="diis">    0.70    0.70</time>
   <time name="orth">    0.03    0.03</time>
   <time name="total">    1.15    1.18</time>
   <energy>
    <i name="e_fr_energy">   -364.88559473 </i>
    <i name="e_wo_entrp">   -364.89743350 </i>
    <i name="e_0_energy">   -364.88954099 </i>
   </energy>
  </scstep>
  <scstep>
   <time name="diag">    0.08    0.08</time>
   <time name="diis">    0.78    0.79</time>
   <time name="orth">    0.01    0.01</time>
   <time name="total">    1.08    1.14</time>
   <energy>
    <i name="e_fr_energy">   -364.86638270 </i>
    <i name="e_wo_entrp">   -364.87692572 </i>
    <i name="e_0_energy">   -364.86989704 </i>
   </energy>
  </scstep>
  <scstep>
   <time name="diag">    0.08    0.08</time>
   <time name="diis">    0.81    0.82</time>
   <time name="orth">    0.01    0.01</time>
   <time name="total">    0.97    1.03</time>
   <energy>
    <i name="e_fr_energy">   -364.85558089 </i>
    <i name="e_wo_entrp">   -364.86623880 </i>
    <i name="e_0_energy">   -364.85913353 </i>
   </energy>
  </scstep>
  <scstep>
   <time name="diag">    0.14    0.14</time>
   <time name="diis">    0.96    1.03</time>
   <time name="orth">    0.01    0.01</time>
   <time name="total">    1.19    1.31</time>
   <energy>
    <i name="e_fr_energy">   -364.85394289 </i>
    <i name="e_wo_entrp">   -364.86480176 </i>
    <i name="e_0_energy">   -364.85756252 </i>
   </energy>
  </scstep>
  <scstep>
   <time name="diag">    0.08    0.08</time>
   <time name="diis">    0.59    1.33</time>
   <time name="orth">    0.01    0.01</time>
   <time name="total">    0.76    1.58</time>
   <energy>
    <i name="e_fr_energy">   -364.85421796 </i>
    <i name="e_wo_entrp">   -364.86501548 </i>
    <i name="e_0_energy">   -364.85781713 </i>
   </energy>
  </scstep>
  <scstep>
   <time name="diag">    0.08    0.13</time>
   <time name="diis">    1.77    1.84</time>
   <time name="orth">    0.01    0.01</time>
   <time name="total">    1.93    2.11</time>
   <energy>
    <i name="e_fr_energy">   -364.85419727 </i>
    <i name="e_wo_entrp">   -364.86492064 </i>
    <i name="e_0_energy">   -364.85777173 </i>
   </energy>
  </scstep>
  <scstep>
[...]
       <r>    6.9460    1.0000 </r>
       <r>    6.9792    1.0000 </r>
       <r>    7.0186    1.0000 </r>
       <r>    7.0328    1.0000 </r>
       <r>    7.0768    1.0000 </r>
       <r>    7.0988    1.0000 </r>
       <r>    7.1651    1.0001 </r>
       <r>    7.1906    1.0002 </r>
       <r>    7.2343    1.0010 </r>
       <r>    7.2624    1.0022 </r>
       <r>    7.3142    1.0078 </r>
       <r>    7.3278    1.0104 </r>
       <r>    7.3770    1.0236 </r>
       <r>    7.4187    1.0344 </r>
       <r>    7.4380    1.0352 </r>
       <r>    7.4648    1.0255 </r>
       <r>    7.4819    1.0096 </r>
       <r>    7.5309    0.9026 </r>
       <r>    7.5699    0.7438 </r>
       <r>    7.6061    0.5521 </r>
       <r>    7.6584    0.2678 </r>
       <r>    7.6702    0.2123 </r>
       <r>    7.7234    0.0331 </r>
       <r>    7.7671   -0.0263 </r>
       <r>    7.7961   -0.0354 </r>
       <r>    7.8590   -0.0219 </r>
       <r>    7.8756   -0.0170 </r>
       <r>    7.9215   -0.0070 </r>
       <r>    7.9518   -0.0034 </r>
       <r>    7.9951   -0.0010 </r>
       <r>    8.0131   -0.0006 </r>
       <r>    8.0882   -0.0000 </r>
       <r>    8.1141   -0.0000 </r>
       <r>    8.1524   -0.0000 </r>
       <r>    8.1958   -0.0000 </r>
       <r>    8.2317   -0.0000 </r>
       <r>    8.3007   -0.0000 </r>
       <r>    8.3392   -0.0000 </r>
       <r>    8.3746   -0.0000 </r>
       <r>    8.4433   -0.0000 </r>
       <r>    8.5105   -0.0000 </r>
       <r>    8.7034   -0.0000 </r>
       <r>    8.9535   -0.0000 </r>
       <r>    8.9834   -0.0000 </r>
       <r>    9.5331   -0.0000 </r>
       <r>    9.5687   -0.0000 </r>
       <r>    9.6133   -0.0000 </r>
       <r>    9.6775   -0.0000 </r>
       <r>    9.7184   -0.0000 </r>
      </set>
     </set>
    </set>
   </array>
  </eigenvalues>
  <separator name="orbital magnetization" >
   <v name="MAGDIPOLOUT">      0.00000000      0.00000000      0.00000000</v>
  </separator>
  <dos>
   <i name="efermi">      7.61531973 </i>
   <total>
    <array>
     <dimension dim="1">gridpoints</dimension>
     <dimension dim="2">spin</dimension>
     <field>energy</field>
     <field>total</field>
     <field>integrated</field>
     <set>
      <set comment="spin 1">
       <r>   -49.4676     0.0000     0.0000 </r>
       <r>   -49.2609     0.0000     0.0000 </r>
       <r>   -49.0542     0.0000     0.0000 </r>
       <r>   -48.8474     0.0000     0.0000 </r>
       <r>   -48.6407     0.0000     0.0000 </r>
       <r>   -48.4340     0.0000     0.0000 </r>
       <r>   -48.2273     0.0000     0.0000 </r>
       <r>   -48.0205    -0.0000    -0.0000 </r>
       <r>   -47.8138    -0.0000    -0.0000 </r>
       <r>   -47.6071    -0.0000    -0.0000 </r>
       <r>   -47.4004    -0.0000    -0.0000 </r>
       <r>   -47.1936    -0.0000    -0.0000 </r>
       <r>   -46.9869    -0.0431    -0.0089 </r>
       <r>   -46.7802    -1.0260    -0.2210 </r>
       <r>   -46.5735    23.7425     4.6872 </r>
       <r>   -46.3667    46.5677    14.3140 </r>
       <r>   -46.1600    18.8652    18.2140 </r>
       <r>   -45.9533    -1.0073    18.0057 </r>
       <r>   -45.7465    -0.0277    18.0000 </r>
       <r>   -45.5398    -0.0000    18.0000 </r>
       <r>   -45.3331    -0.0000    18.0000 </r>
       <r>   -45.1264     0.0000    18.0000 </r>
       <r>   -44.9196     0.0000    18.0000 </r>
       <r>   -44.7129     0.0000    18.0000 </r>
       <r>   -44.5062     0.0000    18.0000 </r>
       <r>   -44.2995     0.0000    18.0000 </r>
       <r>   -44.0927     0.0000    18.0000 </r>
       <r>   -43.8860     0.0000    18.0000 </r>
       <r>   -43.6793     0.0000    18.0000 </r>
       <r>   -43.4725     0.0000    18.0000 </r>
       <r>   -43.2658     0.0000    18.0000 </r>
       <r>   -43.0591     0.0000    18.0000 </r>
       <r>   -42.8524     0.0000    18.0000 </r>
       <r>   -42.6456     0.0000    18.0000 </r>
       <r>   -42.4389     0.0000    18.0000 </r>
       <r>   -42.2322     0.0000    18.0000 </r>
       <r>   -42.0255    -0.0000    18.0000 </r>
       <r>   -41.8187    -0.0000    18.0000 </r>
       <r>   -41.6120    -0.0000    18.0000 </r>
       <r>   -41.4053    -0.0000    18.0000 </r>
       <r>   -41.1986    -0.0000    18.0000 </r>
       <r>   -40.9918    -0.0350    17.9928 </r>
       <r>   -40.7851    -0.7530    17.8371 </r>
       <r>   -40.5784    17.5447    21.4641 </r>
       <r>   -40.3716    49.1060    31.6156 </r>
       <r>   -40.1649    12.3598    34.1707 </r>
       <r>   -39.9582    -0.8135    34.0025 </r>
       <r>   -39.7515    -0.0122    34.0000 </r>
       <r>   -39.5447    -0.0000    34.0000 </r>
       <r>   -39.3380    -0.0000    34.0000 </r>
       <r>   -39.1313     0.0000    34.0000 </r>
       <r>   -38.9246     0.0000    34.0000 </r>
       <r>   -38.7178     0.0000    34.0000 </r>
       <r>   -38.5111     0.0000    34.0000 </r>
       <r>   -38.3044     0.0000    34.0000 </r>
       <r>   -38.0976     0.0000    34.0000 </r>
       <r>   -37.8909     0.0000    34.0000 </r>
       <r>   -37.6842     0.0000    34.0000 </r>
       <r>   -37.4775     0.0000    34.0000 </r>
       <r>   -37.2707     0.0000    34.0000 </r>
       <r>   -37.0640     0.0000    34.0000 </r>
       <r>   -36.8573     0.0000    34.0000 </r>
       <r>   -36.6506     0.0000    34.0000 </r>
       <r>   -36.4438     0.0000    34.0000 </r>
       <r>   -36.2371     0.0000    34.0000 </r>
       <r>   -36.0304     0.0000    34.0000 </r>
       <r>   -35.8237     0.0000    34.0000 </r>
       <r>   -35.6169     0.0000    34.0000 </r>
       <r>   -35.4102     0.0000    34.0000 </r>
       <r>   -35.2035     0.0000    34.0000 </r>
       <r>   -34.9967     0.0000    34.0000 </r>
       <r>   -34.7900     0.0000    34.0000 </r>
       <r>   -34.5833     0.0000    34.0000 </r>
       <r>   -34.3766     0.0000    34.0000 </r>
       <r>   -34.1698     0.0000    34.0000 </r>
       <r>   -33.9631     0.0000    34.0000 </r>
       <r>   -33.7564     0.0000    34.0000 </r>
       <r>   -33.5497     0.0000    34.0000 </r>
       <r>   -33.3429     0.0000    34.0000 </r>
       <r>   -33.1362     0.0000    34.0000 </r>
       <r>   -32.9295     0.0000    34.0000 </r>
       <r>   -32.7227     0.0000    34.0000 </r>
       <r>   -32.5160     0.0000    34.0000 </r>
       <r>   -32.3093     0.0000    34.0000 </r>
       <r>   -32.1026     0.0000    34.0000 </r>
       <r>   -31.8958     0.0000    34.0000 </r>
       <r>   -31.6891     0.0000    34.0000 </r>
       <r>   -31.4824     0.0000    34.0000 </r>
       <r>   -31.2757     0.0000    34.0000 </r>
       <r>   -31.0689     0.0000    34.0000 </r>
       <r>   -30.8622     0.0000    34.0000 </r>
       <r>   -30.6555     0.0000    34.0000 </r>
       <r>   -30.4488     0.0000    34.0000 </r>
       <r>   -30.2420     0.0000    34.0000 </r>
       <r>   -30.0353     0.0000    34.0000 </r>
       <r>   -29.8286     0.0000    34.0000 </r>
       <r>   -29.6218     0.0000    34.0000 </r>
       <r>   -29.4151     0.0000    34.0000 </r>
       <r>   -29.2084     0.0000    34.0000 </r>
       <r>   -29.0017     0.0000    34.0000 </r>
       <r>   -28.7949     0.0000    34.0000 </r>
       <r>   -28.5882     0.0000    34.0000 </r>
       <r>   -28.3815     0.0000    34.0000 </r>
       <r>   -28.1748     0.0000    34.0000 </r>
       <r>   -27.9680     0.0000    34.0000 </r>
       <r>   -27.7613     0.0000    34.0000 </r>
       <r>   -27.5546     0.0000    34.0000 </r>
       <r>   -27.3478     0.0000    34.0000 </r>
       <r>   -27.1411     0.0000    34.0000 </r>
       <r>   -26.9344     0.0000    34.0000 </r>
       <r>   -26.7277     0.0000    34.0000 </r>
       <r>   -26.5209     0.0000    34.0000 </r>
       <r>   -26.3142     0.0000    34.0000 </r>
       <r>   -26.1075     0.0000    34.0000 </r>
       <r>   -25.9008     0.0000    34.0000 </r>
       <r>   -25.6940     0.0000    34.0000 </r>
       <r>   -25.4873     0.0000    34.0000 </r>
       <r>   -25.2806     0.0000    34.0000 </r>
       <r>   -25.0739     0.0000    34.0000 </r>
       <r>   -24.8671     0.0000    34.0000 </r>
       <r>   -24.6604     0.0000    34.0000 </r>
       <r>   -24.4537     0.0000    34.0000 </r>
       <r>   -24.2469    -0.0000    34.0000 </r>
       <r>   -24.0402    -0.0000    34.0000 </r>
       <r>   -23.8335    -0.0000    34.0000 </r>
       <r>   -23.6268    -0.0000    34.0000 </r>
       <r>   -23.4200    -0.0002    34.0000 </r>
       <r>   -23.2133    -0.1747    33.9638 </r>
       <r>   -23.0066     0.3015    34.0262 </r>
       <r>   -22.7999    34.2687    41.1104 </r>
       <r>   -22.5931   114.0181    64.6810 </r>
       <r>   -22.3864    96.4123    84.6121 </r>
       <r>   -22.1797    17.7211    88.2755 </r>
       <r>   -21.9729    -1.3169    88.0032 </r>
       <r>   -21.7662    -0.0157    88.0000 </r>
       <r>   -21.5595    -0.0000    88.0000 </r>
       <r>   -21.3528    -0.0000    88.0000 </r>
       <r>   -21.1460     0.0000    88.0000 </r>
       <r>   -20.9393     0.0000    88.0000 </r>
       <r>   -20.7326     0.0000    88.0000 </r>
       <r>   -20.5259     0.0000    88.0000 </r>
       <r>   -20.3191     0.0000    88.0000 </r>
       <r>   -20.1124    -0.0000    88.0000 </r>
       <r>   -19.9057    -0.0000    88.0000 </r>
       <r>   -19.6990    -0.0000    88.0000 </r>
       <r>   -19.4922    -0.0000    88.0000 </r>
       <r>   -19.2855    -0.0162    87.9967 </r>
       <r>   -19.0788    -1.1323    87.7626 </r>
       <r>   -18.8720    16.2790    91.1279 </r>
       <r>   -18.6653    70.5757   105.7178 </r>
       <r>   -18.4586    89.9527   124.3134 </r>
       <r>   -18.2519    53.2201   135.3155 </r>
       <r>   -18.0451     3.7654   136.0939 </r>
       <r>   -17.8384    -0.4526   136.0003 </r>
       <r>   -17.6317    -0.0015   136.0000 </r>
       <r>   -17.4250    -0.0000   136.0000 </r>
       <r>   -17.2182    -0.0000   136.0000 </r>
       <r>   -17.0115     0.0000   136.0000 </r>
       <r>   -16.8048     0.0000   136.0000 </r>
       <r>   -16.5980     0.0000   136.0000 </r>
       <r>   -16.3913     0.0000   136.0000 </r>
       <r>   -16.1846     0.0000   136.0000 </r>
       <r>   -15.9779     0.0000   136.0000 </r>
       <r>   -15.7711     0.0000   136.0000 </r>
       <r>   -15.5644     0.0000   136.0000 </r>
       <r>   -15.3577     0.0000   136.0000 </r>
       <r>   -15.1510     0.0000   136.0000 </r>
       <r>   -14.9442     0.0000   136.0000 </r>
       <r>   -14.7375     0.0000   136.0000 </r>
       <r>   -14.5308     0.0000   136.0000 </r>
       <r>   -14.3240     0.0000   136.0000 </r>
       <r>   -14.1173     0.0000   136.0000 </r>
       <r>   -13.9106     0.0000   136.0000 </r>
       <r>   -13.7039     0.0000   136.0000 </r>
       <r>   -13.4971     0.0000   136.0000 </r>
       <r>   -13.2904     0.0000   136.0000 </r>
       <r>   -13.0837     0.0000   136.0000 </r>
       <r>   -12.8770     0.0000   136.0000 </r>
       <r>   -12.6702     0.0000   136.0000 </r>
       <r>   -12.4635     0.0000   136.0000 </r>
       <r>   -12.2568     0.0000   136.0000 </r>
       <r>   -12.0501     0.0000   136.0000 </r>
       <r>   -11.8433     0.0000   136.0000 </r>
       <r>   -11.6366     0.0000   136.0000 </r>
       <r>   -11.4299     0.0000   136.0000 </r>
       <r>   -11.2231     0.0000   136.0000 </r>
       <r>   -11.0164     0.0000   136.0000 </r>
       <r>   -10.8097     0.0000   136.0000 </r>
       <r>   -10.6030     0.0000   136.0000 </r>
       <r>   -10.3962     0.0000   136.0000 </r>
       <r>   -10.1895     0.0000   136.0000 </r>
       <r>    -9.9828     0.0000   136.0000 </r>
       <r>    -9.7761     0.0000   136.0000 </r>
       <r>    -9.5693     0.0000   136.0000 </r>
       <r>    -9.3626     0.0000   136.0000 </r>
       <r>    -9.1559     0.0000   136.0000 </r>
       <r>    -8.9491     0.0000   136.0000 </r>
       <r>    -8.7424     0.0000   136.0000 </r>
       <r>    -8.5357     0.0000   136.0000 </r>
       <r>    -8.3290     0.0000   136.0000 </r>
       <r>    -8.1222     0.0000   136.0000 </r>
       <r>    -7.9155     0.0000   136.0000 </r>
       <r>    -7.7088     0.0000   136.0000 </r>
       <r>    -7.5021     0.0000   136.0000 </r>
       <r>    -7.2953     0.0000   136.0000 </r>
       <r>    -7.0886     0.0000   136.0000 </r>
       <r>    -6.8819     0.0000   136.0000 </r>
       <r>    -6.6752     0.0000   136.0000 </r>
       <r>    -6.4684     0.0000   136.0000 </r>
       <r>    -6.2617     0.0000   136.0000 </r>
       <r>    -6.0550     0.0000   136.0000 </r>
       <r>    -5.8482     0.0000   136.0000 </r>
       <r>    -5.6415     0.0000   136.0000 </r>
       <r>    -5.4348     0.0000   136.0000 </r>
       <r>    -5.2281     0.0000   136.0000 </r>
       <r>    -5.0213     0.0000   136.0000 </r>
       <r>    -4.8146     0.0000   136.0000 </r>
       <r>    -4.6079     0.0000   136.0000 </r>
       <r>    -4.4012     0.0000   136.0000 </r>
       <r>    -4.1944     0.0000   136.0000 </r>
       <r>    -3.9877     0.0000   136.0000 </r>
       <r>    -3.7810     0.0000   136.0000 </r>
       <r>    -3.5742     0.0000   136.0000 </r>
       <r>    -3.3675     0.0000   136.0000 </r>
       <r>    -3.1608     0.0000   136.0000 </r>
       <r>    -2.9541     0.0000   136.0000 </r>
       <r>    -2.7473     0.0000   136.0000 </r>
       <r>    -2.5406     0.0000   136.0000 </r>
       <r>    -2.3339     0.0000   136.0000 </r>
       <r>    -2.1272     0.0000   136.0000 </r>
       <r>    -1.9204     0.0000   136.0000 </r>
       <r>    -1.7137     0.0000   136.0000 </r>
       <r>    -1.5070     0.0000   136.0000 </r>
       <r>    -1.3003     0.0000   136.0000 </r>
       <r>    -1.0935     0.0000   136.0000 </r>
       <r>    -0.8868     0.0000   136.0000 </r>
       <r>    -0.6801     0.0000   136.0000 </r>
       <r>    -0.4733    -0.0000   136.0000 </r>
       <r>    -0.2666    -0.0000   136.0000 </r>
       <r>    -0.0599    -0.0000   136.0000 </r>
       <r>     0.1468    -0.0000   136.0000 </r>
       <r>     0.3536    -0.0000   136.0000 </r>
       <r>     0.5603    -0.0033   135.9993 </r>
       <r>     0.7670     0.0257   136.0046 </r>
       <r>     0.9737     0.3950   136.0863 </r>
       <r>     1.1805     1.3592   136.3673 </r>
       <r>     1.3872     1.7609   136.7313 </r>
       <r>     1.5939     2.2928   137.2053 </r>
       <r>     1.8007     3.7784   137.9864 </r>
       <r>     2.0074     2.9004   138.5859 </r>
       <r>     2.2141     2.8820   139.1817 </r>
       <r>     2.4208     4.6473   140.1425 </r>
       <r>     2.6276     3.7981   140.9276 </r>
       <r>     2.8343     4.1722   141.7901 </r>
       <r>     3.0410     8.2320   143.4919 </r>
       <r>     3.2477     7.6587   145.0752 </r>
       <r>     3.4545     7.3183   146.5881 </r>
       <r>     3.6612     7.8752   148.2161 </r>
       <r>     3.8679    13.1726   150.9392 </r>
       <r>     4.0746    17.3214   154.5200 </r>
       <r>     4.2814    22.9917   159.2730 </r>
       <r>     4.4881    23.4015   164.1107 </r>
       <r>     4.6948    29.8885   170.2895 </r>
       <r>     4.9016    35.6594   177.6612 </r>
       <r>     5.1083    38.8638   185.6955 </r>
       <r>     5.3150    39.0252   193.7630 </r>
       <r>     5.5217    37.5031   201.5159 </r>
       <r>     5.7285    33.4767   208.4365 </r>
       <r>     5.9352    32.2972   215.1132 </r>
       <r>     6.1419    12.2724   217.6502 </r>
       <r>     6.3486    44.5219   226.8541 </r>
       <r>     6.5554    67.0505   240.7152 </r>
       <r>     6.7621    59.4078   252.9964 </r>
       <r>     6.9688    50.9521   263.5296 </r>
       <r>     7.1756    56.6333   275.2372 </r>
       <r>     7.3823    57.6119   287.1471 </r>
       <r>     7.5890    51.5173   297.7972 </r>
       <r>     7.7957    45.2356   307.1486 </r>
       <r>     8.0025    47.1599   316.8978 </r>
       <r>     8.2092    42.9920   325.7854 </r>
       <r>     8.4159    34.4527   332.9077 </r>
       <r>     8.6226    27.7856   338.6517 </r>
       <r>     8.8294    22.2946   343.2606 </r>
       <r>     9.0361    17.6351   346.9063 </r>
       <r>     9.2428    12.6096   349.5130 </r>
       <r>     9.4495    22.1910   354.1005 </r>
       <r>     9.6563    21.3146   358.5068 </r>
       <r>     9.8630     7.6261   360.0833 </r>
       <r>    10.0697    -0.3904   360.0026 </r>
       <r>    10.2765    -0.0127   360.0000 </r>
       <r>    10.4832    -0.0000   360.0000 </r>
       <r>    10.6899    -0.0000   360.0000 </r>
       <r>    10.8966     0.0000   360.0000 </r>
       <r>    11.1034     0.0000   360.0000 </r>
       <r>    11.3101     0.0000   360.0000 </r>
       <r>    11.5168     0.0000   360.0000 </r>
       <r>    11.7235     0.0000   360.0000 </r>
       <r>    11.9303     0.0000   360.0000 </r>
       <r>    12.1370     0.0000   360.0000 </r>
       <r>    12.3437     0.0000   360.0000 </r>
       <r>    12.5505     0.0000   360.0000 </r>
      </set>
     </set>
    </array>
   </total>
  </dos>
 </calculation>
 <structure name="finalpos" >
  <crystal>
   <varray name="basis" >
    <v>       6.88561928      -0.00948329       0.00432856 </v>
    <v>      -0.01389981      10.24526351       0.01430735 </v>
    <v>       0.00674539       0.01391521      10.22171406 </v>
   </varray>
   <i name="volume">    721.08763498 </i>
   <varray name="rec_basis" >
    <v>       0.14523055       0.00019717      -0.00009611 </v>
    <v>       0.00013451       0.09760645      -0.00013296 </v>
    <v>      -0.00006169      -0.00013670       0.09783118 </v>
   </varray>
  </crystal>
  <varray name="positions" >
   <v>       0.24524557       0.16224490       0.51476559 </v>
   <v>       0.02613966       0.32060394       0.33283856 </v>
   <v>       0.00103846       0.33751179       0.67531749 </v>
   <v>       0.25148097       0.48299144       0.83759392 </v>
   <v>       0.25109744       0.85555688       0.52043980 </v>
   <v>       0.74837644       0.85019984       0.51550745 </v>
   <v>       0.24715837       0.84361622       0.83265655 </v>
   <v>       0.24390134       0.81477566       0.14336899 </v>
   <v>       0.49160738       0.34387685       0.66505862 </v>
   <v>       0.50693436       0.32809878       0.99821196 </v>
   <v>       0.25118476       0.17403191       0.16285204 </v>
   <v>       0.00451520       0.00245947       0.66817105 </v>
   <v>       0.22564238       0.48791645       0.50058081 </v>
   <v>       0.00463301       0.66629357       0.98791629 </v>
   <v>       0.75075310       0.18391347       0.18404045 </v>
   <v>       0.49812442       0.00011134       0.66617504 </v>
   <v>       0.73488077       0.16990787       0.82154245 </v>
   <v>       0.76283704       0.81035853       0.15941252 </v>
   <v>       0.74564106       0.48825058       0.82617780 </v>
   <v>       0.26250139       0.16839241       0.82797779 </v>
   <v>       0.24730082       0.50611961       0.15819257 </v>
   <v>       0.01481352       0.68413764       0.34371477 </v>
   <v>       0.50902901       0.00336604       0.01294598 </v>
   <v>       0.75331669       0.16723369       0.50441308 </v>
   <v>       0.76549274       0.48709618       0.49378958 </v>
   <v>       0.48873256       0.67915390       0.34304963 </v>
   <v>       0.48890780       0.66025321       0.66208926 </v>
   <v>       0.47374880       0.32925002       0.33741244 </v>
   <v>       0.99280418       0.00359510       0.00963910 </v>
   <v>       0.00436693       0.99723994       0.32758628 </v>
   <v>       0.98570759       0.32386547       0.99732956 </v>
   <v>       0.00637390       0.66196386       0.66655744 </v>
   <v>       0.49909231       0.99510206       0.32572455 </v>
   <v>       0.75419297       0.50367729       0.17175438 </v>
   <v>       0.50364712       0.66533376       0.98269270 </v>
   <v>       0.75877093       0.84150434       0.82250251 </v>
  </varray>
 </structure>
</modeling>
