       N       E                     dE             d eps       ncg     rms          rms(c)
DAV:   1     0.179520993440E+04    0.17952E+04   -0.10777E+05  5296   0.106E+03
DAV:   2    -0.962864450011E+02   -0.18915E+04   -0.18282E+04  5476   0.385E+02
DAV:   3    -0.341556072698E+03   -0.24527E+03   -0.23315E+03  8080   0.977E+01
DAV:   4    -0.371548614438E+03   -0.29993E+02   -0.28388E+02  8280   0.310E+01
DAV:   5    -0.374760206442E+03   -0.32116E+01   -0.31097E+01  7736   0.100E+01    0.645E+01
RMM:   6    -0.364827607880E+03    0.99326E+01   -0.27305E+01  6868   0.107E+01    0.306E+01
RMM:   7    -0.366045920740E+03   -0.12183E+01   -0.29148E+01  7061   0.783E+00    0.116E+01
RMM:   8    -0.360617319084E+03    0.54286E+01   -0.68796E+00  7265   0.400E+00    0.470E+00
RMM:   9    -0.360179148281E+03    0.43817E+00   -0.27412E+00  7395   0.214E+00    0.295E+00
RMM:  10    -0.360189168729E+03   -0.10020E-01   -0.77002E-01  7371   0.134E+00    0.158E+00
RMM:  11    -0.360144952349E+03    0.44216E-01   -0.19206E-01  7333   0.671E-01    0.782E-01
RMM:  12    -0.360138857516E+03    0.60948E-02   -0.83254E-02  7464   0.369E-01    0.494E-01
RMM:  13    -0.360137903086E+03    0.95443E-03   -0.32257E-02  7478   0.242E-01    0.295E-01
RMM:  14    -0.360137726590E+03    0.17650E-03   -0.11482E-02  7572   0.121E-01    0.170E-01
RMM:  15    -0.360137839969E+03   -0.11338E-03   -0.64218E-03  7472   0.785E-02    0.897E-02
RMM:  16    -0.360138089360E+03   -0.24939E-03   -0.34468E-03  7144   0.533E-02    0.531E-02
RMM:  17    -0.360138130452E+03   -0.41093E-04   -0.13327E-03  6398   0.333E-02    0.266E-02
RMM:  18    -0.360138168766E+03   -0.38313E-04   -0.67451E-04  5952   0.228E-02    0.112E-02
RMM:  19    -0.360138197469E+03   -0.28703E-04   -0.33384E-04  4708   0.158E-02    0.704E-03
RMM:  20    -0.360138210351E+03   -0.12882E-04   -0.16449E-04  4114   0.120E-02    0.515E-03
RMM:  21    -0.360138215267E+03   -0.49162E-05   -0.72454E-05  3741   0.106E-02
   1 F= -.36013822E+03 E0= -.36014339E+03  d E =-.360138E+03
       N       E                     dE             d eps       ncg     rms          rms(c)
DAV:   1    -0.360206426121E+03   -0.68216E-01   -0.21142E+00  5760   0.466E+00    0.166E+00
RMM:   2    -0.360193118686E+03    0.13307E-01   -0.19352E-01  7220   0.113E+00    0.616E-01
RMM:   3    -0.360181943205E+03    0.11175E-01   -0.51034E-02  7541   0.383E-01    0.451E-01
RMM:   4    -0.360176755246E+03    0.51880E-02   -0.14072E-02  7522   0.247E-01    0.235E-01
RMM:   5    -0.360175857812E+03    0.89743E-03   -0.42772E-03  7412   0.132E-01    0.171E-01
RMM:   6    -0.360175927913E+03   -0.70101E-04   -0.16012E-03  7677   0.642E-02    0.112E-01
RMM:   7    -0.360175937501E+03   -0.95879E-05   -0.63798E-04  6903   0.444E-02    0.643E-02
RMM:   8    -0.360175962308E+03   -0.24807E-04   -0.39835E-04  6511   0.297E-02    0.396E-02
RMM:   9    -0.360175978708E+03   -0.16400E-04   -0.15906E-04  5451   0.229E-02    0.258E-02
RMM:  10    -0.360175984423E+03   -0.57152E-05   -0.81700E-05  4944   0.166E-02
   2 F= -.36017598E+03 E0= -.36018149E+03  d E =-.377692E-01
       N       E                     dE             d eps       ncg     rms          rms(c)
DAV:   1    -0.360483998454E+03   -0.30802E+00   -0.18955E+01  5360   0.139E+01    0.487E+00
RMM:   2    -0.360367857324E+03    0.11614E+00   -0.17283E+00  7285   0.338E+00    0.186E+00
RMM:   3    -0.360260332594E+03    0.10752E+00   -0.44777E-01  7565   0.113E+00    0.133E+00
RMM:   4    -0.360216131972E+03    0.44201E-01   -0.12625E-01  7548   0.733E-01    0.697E-01
RMM:   5    -0.360207579882E+03    0.85521E-02   -0.37897E-02  7466   0.390E-01    0.501E-01
RMM:   6    -0.360208424843E+03   -0.84496E-03   -0.13733E-02  7828   0.185E-01    0.332E-01
RMM:   7    -0.360208739231E+03   -0.31439E-03   -0.56852E-03  8291   0.130E-01    0.194E-01
RMM:   8    -0.360209113217E+03   -0.37399E-03   -0.36803E-03  8204   0.816E-02    0.121E-01
RMM:   9    -0.360209358076E+03   -0.24486E-03   -0.13345E-03  7571   0.587E-02    0.805E-02
RMM:  10    -0.360209489989E+03   -0.13191E-03   -0.72937E-04  7200   0.385E-02    0.572E-02
RMM:  11    -0.360209530234E+03   -0.40244E-04   -0.33763E-04  6247   0.297E-02    0.266E-02
RMM:  12    -0.360209530518E+03   -0.28416E-06   -0.17375E-04  5761   0.208E-02    0.114E-02
RMM:  13    -0.360209529174E+03    0.13439E-05   -0.59549E-05  4795   0.148E-02
   3 F= -.36020953E+03 E0= -.36021592E+03  d E =-.713139E-01
       N       E                     dE             d eps       ncg     rms          rms(c)
DAV:   1    -0.360224281455E+03   -0.14751E-01   -0.83229E-01  5440   0.291E+00    0.103E+00
RMM:   2    -0.360218807590E+03    0.54739E-02   -0.76304E-02  7239   0.706E-01    0.385E-01
RMM:   3    -0.360214401954E+03    0.44056E-02   -0.19863E-02  7558   0.238E-01    0.281E-01
RMM:   4    -0.360212391794E+03    0.20102E-02   -0.54313E-03  7500   0.153E-01    0.148E-01
RMM:   5    -0.360212052352E+03    0.33944E-03   -0.16705E-03  7399   0.825E-02    0.107E-01
RMM:   6    -0.360212114361E+03   -0.62009E-04   -0.62219E-04  7355   0.407E-02    0.695E-02
RMM:   7    -0.360212150087E+03   -0.35726E-04   -0.24263E-04  6379   0.279E-02    0.399E-02
RMM:   8    -0.360212183343E+03   -0.33256E-04   -0.15626E-04  6295   0.199E-02    0.242E-02
RMM:   9    -0.360212204827E+03   -0.21484E-04   -0.54633E-05  4097   0.145E-02    0.158E-02
RMM:  10    -0.360212219564E+03   -0.14737E-04   -0.31861E-05  3731   0.126E-02    0.973E-03
RMM:  11    -0.360212227085E+03   -0.75207E-05   -0.16699E-05  3418   0.119E-02
   4 F= -.36021223E+03 E0= -.36021844E+03  d E =-.740118E-01
       N       E                     dE             d eps       ncg     rms          rms(c)
DAV:   1    -0.360247114248E+03   -0.34895E-01   -0.22758E+00  4968   0.412E+00    0.876E-01
RMM:   2    -0.360247650551E+03   -0.53630E-03   -0.10563E-01  6951   0.836E-01    0.390E-01
RMM:   3    -0.360243519176E+03    0.41314E-02   -0.17607E-02  7238   0.256E-01    0.275E-01
RMM:   4    -0.360242280366E+03    0.12388E-02   -0.53650E-03  7435   0.131E-01    0.155E-01
RMM:   5    -0.360241979847E+03    0.30052E-03   -0.20258E-03  7421   0.846E-02    0.103E-01
RMM:   6    -0.360242012419E+03   -0.32573E-04   -0.77777E-04  7640   0.452E-02    0.692E-02
RMM:   7    -0.360242044415E+03   -0.31995E-04   -0.32730E-04  6558   0.291E-02    0.412E-02
RMM:   8    -0.360242067057E+03   -0.22643E-04   -0.15490E-04  5985   0.206E-02    0.240E-02
RMM:   9    -0.360242086409E+03   -0.19352E-04   -0.84820E-05  4878   0.161E-02    0.153E-02
RMM:  10    -0.360242095026E+03   -0.86169E-05   -0.27646E-05  3824   0.123E-02
   5 F= -.36024210E+03 E0= -.36024818E+03  d E =-.298679E-01
       N       E                     dE             d eps       ncg     rms          rms(c)
DAV:   1    -0.360315607219E+03   -0.73521E-01   -0.17612E+01  4928   0.115E+01    0.248E+00
RMM:   2    -0.360319717325E+03   -0.41101E-02   -0.82581E-01  6950   0.235E+00    0.109E+00
RMM:   3    -0.360288168329E+03    0.31549E-01   -0.13853E-01  7271   0.716E-01    0.768E-01
RMM:   4    -0.360278516052E+03    0.96523E-02   -0.42167E-02  7463   0.367E-01    0.429E-01
RMM:   5    -0.360276261929E+03    0.22541E-02   -0.15909E-02  7465   0.234E-01    0.288E-01
RMM:   6    -0.360276426716E+03   -0.16479E-03   -0.60548E-03  7959   0.127E-01    0.188E-01
RMM:   7    -0.360276619165E+03   -0.19245E-03   -0.26368E-03  8093   0.815E-02    0.109E-01
RMM:   8    -0.360276744736E+03   -0.12557E-03   -0.12328E-03  7767   0.502E-02    0.682E-02
RMM:   9    -0.360276834093E+03   -0.89357E-04   -0.56219E-04  6917   0.357E-02    0.451E-02
RMM:  10    -0.360276886877E+03   -0.52785E-04   -0.22735E-04  5888   0.240E-02    0.281E-02
RMM:  11    -0.360276909204E+03   -0.22327E-04   -0.11702E-04  5418   0.183E-02    0.139E-02
RMM:  12    -0.360276918966E+03   -0.97620E-05   -0.49896E-05  4487   0.140E-02
   6 F= -.36027692E+03 E0= -.36028251E+03  d E =-.646919E-01
       N       E                     dE             d eps       ncg     rms          rms(c)
DAV:   1    -0.360281897016E+03   -0.49878E-02   -0.48284E-01  4960   0.198E+00    0.162E-01
RMM:   2    -0.360283217898E+03   -0.13209E-02   -0.15266E-02  6773   0.369E-01    0.932E-02
RMM:   3    -0.360282927492E+03    0.29041E-03   -0.20568E-03  7262   0.103E-01    0.676E-02
RMM:   4    -0.360282894786E+03    0.32705E-04   -0.46922E-04  7680   0.334E-02    0.421E-02
RMM:   5    -0.360282887378E+03    0.74089E-05   -0.17722E-04  6357   0.211E-02    0.244E-02
RMM:   6    -0.360282886062E+03    0.13159E-05   -0.77876E-05  5108   0.151E-02
   7 F= -.36028289E+03 E0= -.36028847E+03  d E =-.596710E-02
       N       E                     dE             d eps       ncg     rms          rms(c)
DAV:   1    -0.360287848618E+03   -0.49612E-02   -0.43438E+00  4816   0.594E+00    0.490E-01
RMM:   2    -0.360299781257E+03   -0.11933E-01   -0.13723E-01  6732   0.111E+00    0.281E-01
RMM:   3    -0.360297180827E+03    0.26004E-02   -0.18499E-02  7288   0.311E-01    0.205E-01
RMM:   4    -0.360296890788E+03    0.29004E-03   -0.41598E-03  8162   0.998E-02    0.127E-01
RMM:   5    -0.360296837194E+03    0.53594E-04   -0.16090E-03  7852   0.639E-02    0.748E-02
RMM:   6    -0.360296819743E+03    0.17451E-04   -0.68339E-04  7905   0.438E-02    0.357E-02
RMM:   7    -0.360296802722E+03    0.17021E-04   -0.25311E-04  6215   0.220E-02    0.198E-02
RMM:   8    -0.360296808034E+03   -0.53121E-05   -0.12111E-04  4838   0.175E-02    0.122E-02
RMM:   9    -0.360296808568E+03   -0.53411E-06   -0.42899E-05  3888   0.122E-02
   8 F= -.36029681E+03 E0= -.36030235E+03  d E =-.198896E-01
       N       E                     dE             d eps       ncg     rms          rms(c)
DAV:   1    -0.360270661133E+03    0.26147E-01   -0.17369E+01  4816   0.119E+01    0.992E-01
RMM:   2    -0.360319026046E+03   -0.48365E-01   -0.55300E-01  6699   0.223E+00    0.568E-01
RMM:   3    -0.360308592844E+03    0.10433E-01   -0.74554E-02  7327   0.625E-01    0.418E-01
RMM:   4    -0.360307360222E+03    0.12326E-02   -0.16207E-02  8246   0.198E-01    0.262E-01
RMM:   5    -0.360307177780E+03    0.18244E-03   -0.62459E-03  7967   0.127E-01    0.157E-01
RMM:   6    -0.360307059679E+03    0.11810E-03   -0.27196E-03  7974   0.903E-02    0.727E-02
RMM:   7    -0.360307002625E+03    0.57054E-04   -0.11306E-03  8054   0.450E-02    0.414E-02
RMM:   8    -0.360307021888E+03   -0.19262E-04   -0.45970E-04  6846   0.274E-02    0.256E-02
RMM:   9    -0.360307025627E+03   -0.37393E-05   -0.15179E-04  5747   0.203E-02    0.114E-02
RMM:  10    -0.360307030900E+03   -0.52735E-05   -0.88822E-05  4635   0.149E-02
   9 F= -.36030703E+03 E0= -.36031240E+03  d E =-.301119E-01
       N       E                     dE             d eps       ncg     rms          rms(c)
DAV:   1    -0.360313721431E+03   -0.66958E-02   -0.32103E+00  4928   0.503E+00    0.681E-01
RMM:   2    -0.360320232777E+03   -0.65113E-02   -0.12650E-01  6999   0.973E-01    0.323E-01
RMM:   3    -0.360317706429E+03    0.25263E-02   -0.15945E-02  7292   0.260E-01    0.228E-01
RMM:   4    -0.360317073876E+03    0.63255E-03   -0.45312E-03  7497   0.110E-01    0.139E-01
RMM:   5    -0.360316944971E+03    0.12890E-03   -0.18394E-03  7496   0.740E-02    0.855E-02
RMM:   6    -0.360316928578E+03    0.16394E-04   -0.72754E-04  7588   0.454E-02    0.502E-02
RMM:   7    -0.360316953284E+03   -0.24707E-04   -0.29908E-04  6499   0.260E-02    0.318E-02
RMM:   8    -0.360316966987E+03   -0.13702E-04   -0.10702E-04  5316   0.172E-02    0.206E-02
RMM:   9    -0.360316980933E+03   -0.13946E-04   -0.68053E-05  4689   0.146E-02    0.125E-02
RMM:  10    -0.360316988885E+03   -0.79527E-05   -0.25864E-05  3540   0.128E-02
  10 F= -.36031699E+03 E0= -.36032236E+03  d E =-.995799E-02
       N       E                     dE             d eps       ncg     rms          rms(c)
DAV:   1    -0.360317431169E+03   -0.45024E-03   -0.71192E+00  4928   0.748E+00    0.102E+00
RMM:   2    -0.360331626999E+03   -0.14196E-01   -0.27947E-01  6978   0.145E+00    0.474E-01
RMM:   3    -0.360326319325E+03    0.53077E-02   -0.35223E-02  7278   0.388E-01    0.337E-01
RMM:   4    -0.360324920858E+03    0.13985E-02   -0.99710E-03  7503   0.163E-01    0.203E-01
RMM:   5    -0.360324660800E+03    0.26006E-03   -0.40749E-03  7568   0.109E-01    0.126E-01
RMM:   6    -0.360324619051E+03    0.41748E-04   -0.15780E-03  7654   0.671E-02    0.748E-02
RMM:   7    -0.360324669240E+03   -0.50189E-04   -0.66238E-04  7181   0.384E-02    0.474E-02
RMM:   8    -0.360324698225E+03   -0.28985E-04   -0.26255E-04  6161   0.234E-02    0.317E-02
RMM:   9    -0.360324722414E+03   -0.24189E-04   -0.12837E-04  5353   0.202E-02    0.197E-02
RMM:  10    -0.360324739194E+03   -0.16779E-04   -0.62024E-05  4672   0.150E-02    0.110E-02
RMM:  11    -0.360324745160E+03   -0.59666E-05   -0.26967E-05  3644   0.124E-02
  11 F= -.36032475E+03 E0= -.36033014E+03  d E =-.177143E-01
       N       E                     dE             d eps       ncg     rms          rms(c)
DAV:   1    -0.360335432697E+03   -0.10694E-01   -0.13111E+00  5216   0.340E+00    0.752E-01
RMM:   2    -0.360335434266E+03   -0.15682E-05   -0.75269E-02  6661   0.718E-01    0.313E-01
RMM:   3    -0.360332811840E+03    0.26224E-02   -0.12404E-02  7424   0.228E-01    0.217E-01
RMM:   4    -0.360331819686E+03    0.99215E-03   -0.40524E-03  7518   0.119E-01    0.114E-01
RMM:   5    -0.360331641987E+03    0.17770E-03   -0.12619E-03  7329   0.714E-02    0.829E-02
RMM:   6    -0.360331643691E+03   -0.17042E-05   -0.50962E-04  7213   0.359E-02    0.516E-02
RMM:   7    -0.360331638870E+03    0.48215E-05   -0.18708E-04  6064   0.250E-02    0.298E-02
RMM:   8    -0.360331637698E+03    0.11718E-05   -0.10963E-04  5415   0.176E-02    0.185E-02
RMM:   9    -0.360331637000E+03    0.69859E-06   -0.45491E-05  4332   0.139E-02
  12 F= -.36033164E+03 E0= -.36033722E+03  d E =-.689184E-02
       N       E                     dE             d eps       ncg     rms          rms(c)
DAV:   1    -0.360353396542E+03   -0.21759E-01   -0.58206E+00  5152   0.716E+00    0.156E+00
RMM:   2    -0.360353838634E+03   -0.44209E-03   -0.33165E-01  6605   0.151E+00    0.656E-01
RMM:   3    -0.360341681846E+03    0.12157E-01   -0.52945E-02  7395   0.480E-01    0.449E-01
RMM:   4    -0.360337500623E+03    0.41812E-02   -0.17530E-02  7523   0.249E-01    0.238E-01
RMM:   5    -0.360336741273E+03    0.75935E-03   -0.54418E-03  7385   0.149E-01    0.173E-01
RMM:   6    -0.360336813142E+03   -0.71869E-04   -0.22270E-03  7969   0.745E-02    0.109E-01
RMM:   7    -0.360336848236E+03   -0.35094E-04   -0.84577E-04  7504   0.515E-02    0.636E-02
RMM:   8    -0.360336877744E+03   -0.29507E-04   -0.50129E-04  6746   0.321E-02    0.412E-02
RMM:   9    -0.360336894809E+03   -0.17065E-04   -0.20530E-04  5995   0.246E-02    0.287E-02
RMM:  10    -0.360336903960E+03   -0.91516E-05   -0.10584E-04  5187   0.179E-02    0.185E-02
RMM:  11    -0.360336900990E+03    0.29706E-05   -0.52512E-05  4456   0.150E-02
  13 F= -.36033690E+03 E0= -.36034287E+03  d E =-.121558E-01
       N       E                     dE             d eps       ncg     rms          rms(c)
DAV:   1    -0.360337320794E+03   -0.41683E-03   -0.19030E+00  4936   0.381E+00    0.214E-01
RMM:   2    -0.360341700351E+03   -0.43796E-02   -0.51404E-02  5896   0.659E-01    0.120E-01
RMM:   3    -0.360341564426E+03    0.13592E-03   -0.71385E-03  7211   0.207E-01    0.992E-02
RMM:   4    -0.360341552078E+03    0.12348E-04   -0.14869E-03  8063   0.505E-02    0.695E-02
RMM:   5    -0.360341531631E+03    0.20447E-04   -0.49130E-04  7431   0.374E-02    0.389E-02
RMM:   6    -0.360341528182E+03    0.34483E-05   -0.20916E-04  6811   0.252E-02    0.162E-02
RMM:   7    -0.360341527338E+03    0.84451E-06   -0.66059E-05  4285   0.136E-02
  14 F= -.36034153E+03 E0= -.36034761E+03  d E =-.462635E-02
       N       E                     dE             d eps       ncg     rms          rms(c)
DAV:   1    -0.360311613770E+03    0.29914E-01   -0.17120E+01  4816   0.114E+01    0.654E-01
RMM:   2    -0.360351521917E+03   -0.39908E-01   -0.46850E-01  5856   0.199E+00    0.362E-01
RMM:   3    -0.360350225170E+03    0.12967E-02   -0.64299E-02  7205   0.637E-01    0.295E-01
RMM:   4    -0.360350128507E+03    0.96663E-04   -0.13525E-02  8473   0.154E-01    0.207E-01
RMM:   5    -0.360349958714E+03    0.16979E-03   -0.42742E-03  7988   0.111E-01    0.117E-01
RMM:   6    -0.360349935562E+03    0.23152E-04   -0.18556E-03  7918   0.746E-02    0.500E-02
RMM:   7    -0.360349938585E+03   -0.30225E-05   -0.75173E-04  7966   0.368E-02    0.291E-02
RMM:   8    -0.360349953629E+03   -0.15044E-04   -0.27060E-04  6041   0.206E-02    0.196E-02
RMM:   9    -0.360349963561E+03   -0.99327E-05   -0.13569E-04  5542   0.178E-02    0.956E-03
RMM:  10    -0.360349966890E+03   -0.33290E-05   -0.45249E-05  3840   0.125E-02
  15 F= -.36034997E+03 E0= -.36035642E+03  d E =-.130659E-01
       N       E                     dE             d eps       ncg     rms          rms(c)
DAV:   1    -0.360343912355E+03    0.60512E-02   -0.31458E+00  4928   0.491E+00    0.276E-01
RMM:   2    -0.360351219382E+03   -0.73070E-02   -0.85682E-02  5928   0.848E-01    0.155E-01
RMM:   3    -0.360350959689E+03    0.25969E-03   -0.11821E-02  7221   0.267E-01    0.127E-01
RMM:   4    -0.360350947533E+03    0.12156E-04   -0.25097E-03  8377   0.656E-02    0.883E-02
RMM:   5    -0.360350918851E+03    0.28683E-04   -0.82094E-04  7708   0.484E-02    0.494E-02
RMM:   6    -0.360350917586E+03    0.12649E-05   -0.35568E-04  7341   0.321E-02    0.210E-02
RMM:   7    -0.360350917332E+03    0.25349E-06   -0.12738E-04  5216   0.159E-02    0.126E-02
RMM:   8    -0.360350920380E+03   -0.30478E-05   -0.52055E-05  3775   0.131E-02
  16 F= -.36035092E+03 E0= -.36035752E+03  d E =-.140194E-01
       N       E                     dE             d eps       ncg     rms          rms(c)
DAV:   1    -0.360374929403E+03   -0.24012E-01   -0.15830E+00  5400   0.410E+00    0.131E+00
RMM:   2    -0.360366024227E+03    0.89052E-02   -0.13196E-01  7191   0.975E-01    0.459E-01
RMM:   3    -0.360360979758E+03    0.50445E-02   -0.30222E-02  7544   0.315E-01    0.342E-01
RMM:   4    -0.360357914683E+03    0.30651E-02   -0.84667E-03  7521   0.201E-01    0.175E-01
RMM:   5    -0.360357531163E+03    0.38352E-03   -0.28619E-03  7447   0.100E-01    0.132E-01
RMM:   6    -0.360357628343E+03   -0.97180E-04   -0.98687E-04  7698   0.563E-02    0.783E-02
RMM:   7    -0.360357703465E+03   -0.75122E-04   -0.48006E-04  6667   0.365E-02    0.426E-02
RMM:   8    -0.360357742512E+03   -0.39047E-04   -0.20530E-04  5998   0.256E-02    0.307E-02
RMM:   9    -0.360357779717E+03   -0.37205E-04   -0.10691E-04  5097   0.191E-02    0.218E-02
RMM:  10    -0.360357803647E+03   -0.23930E-04   -0.53015E-05  4274   0.150E-02    0.121E-02
RMM:  11    -0.360357815203E+03   -0.11556E-04   -0.27224E-05  3742   0.133E-02    0.636E-03
RMM:  12    -0.360357819680E+03   -0.44774E-05   -0.16447E-05  3484   0.123E-02
  17 F= -.36035782E+03 E0= -.36036441E+03  d E =-.689930E-02
       N       E                     dE             d eps       ncg     rms          rms(c)
DAV:   1    -0.360361722502E+03   -0.39073E-02   -0.29854E-01  5416   0.178E+00    0.567E-01
RMM:   2    -0.360360008678E+03    0.17138E-02   -0.24611E-02  7146   0.423E-01    0.198E-01
RMM:   3    -0.360359070636E+03    0.93804E-03   -0.56069E-03  7529   0.137E-01    0.146E-01
RMM:   4    -0.360358509961E+03    0.56067E-03   -0.15893E-03  7464   0.868E-02    0.747E-02
RMM:   5    -0.360358447284E+03    0.62676E-04   -0.53569E-04  7403   0.438E-02    0.569E-02
RMM:   6    -0.360358476646E+03   -0.29362E-04   -0.18350E-04  6590   0.242E-02    0.342E-02
RMM:   7    -0.360358500008E+03   -0.23361E-04   -0.88228E-05  5101   0.173E-02    0.191E-02
RMM:   8    -0.360358512498E+03   -0.12490E-04   -0.44919E-05  4034   0.146E-02    0.138E-02
RMM:   9    -0.360358524093E+03   -0.11595E-04   -0.27271E-05  3726   0.124E-02    0.769E-03
RMM:  10    -0.360358529716E+03   -0.56233E-05   -0.13603E-05  3125   0.107E-02
  18 F= -.36035853E+03 E0= -.36036511E+03  d E =-.760934E-02
       N       E                     dE             d eps       ncg     rms          rms(c)
DAV:   1    -0.360363888590E+03   -0.53645E-02   -0.95279E-01  4816   0.279E+00    0.371E-01
RMM:   2    -0.360365998196E+03   -0.21096E-02   -0.39609E-02  7304   0.552E-01    0.213E-01
RMM:   3    -0.360364805398E+03    0.11928E-02   -0.55063E-03  7386   0.143E-01    0.141E-01
RMM:   4    -0.360364560640E+03    0.24476E-03   -0.15665E-03  7388   0.650E-02    0.874E-02
RMM:   5    -0.360364481450E+03    0.79190E-04   -0.66341E-04  7314   0.474E-02    0.482E-02
RMM:   6    -0.360364471595E+03    0.98551E-05   -0.26400E-04  6776   0.265E-02    0.289E-02
RMM:   7    -0.360364468120E+03    0.34753E-05   -0.90792E-05  4774   0.156E-02
  19 F= -.36036447E+03 E0= -.36037122E+03  d E =-.593840E-02
       N       E                     dE             d eps       ncg     rms          rms(c)
DAV:   1    -0.360368105426E+03   -0.36338E-02   -0.28002E+00  4816   0.479E+00    0.630E-01
RMM:   2    -0.360374323260E+03   -0.62178E-02   -0.11623E-01  7301   0.946E-01    0.365E-01
RMM:   3    -0.360370769385E+03    0.35539E-02   -0.16022E-02  7424   0.244E-01    0.239E-01
RMM:   4    -0.360370093564E+03    0.67582E-03   -0.46282E-03  7428   0.110E-01    0.148E-01
RMM:   5    -0.360369885615E+03    0.20795E-03   -0.19900E-03  7364   0.818E-02    0.818E-02
RMM:   6    -0.360369874742E+03    0.10873E-04   -0.81854E-04  7617   0.455E-02    0.498E-02
RMM:   7    -0.360369877370E+03   -0.26279E-05   -0.31497E-04  6009   0.248E-02    0.336E-02
RMM:   8    -0.360369877748E+03   -0.37847E-06   -0.14249E-04  5330   0.195E-02    0.196E-02
RMM:   9    -0.360369876563E+03    0.11852E-05   -0.74438E-05  4995   0.149E-02
  20 F= -.36036988E+03 E0= -.36037693E+03  d E =-.113468E-01
       N       E                     dE             d eps       ncg     rms          rms(c)
DAV:   1    -0.360370069111E+03   -0.19136E-03   -0.43649E-01  4864   0.189E+00    0.248E-01
RMM:   2    -0.360371057167E+03   -0.98806E-03   -0.18127E-02  7295   0.373E-01    0.143E-01
RMM:   3    -0.360370509901E+03    0.54727E-03   -0.25470E-03  7378   0.963E-02    0.926E-02
RMM:   4    -0.360370410872E+03    0.99029E-04   -0.75640E-04  7444   0.440E-02    0.568E-02
RMM:   5    -0.360370380202E+03    0.30670E-04   -0.32538E-04  7296   0.322E-02    0.317E-02
RMM:   6    -0.360370375372E+03    0.48298E-05   -0.11966E-04  5316   0.182E-02    0.195E-02
RMM:   7    -0.360370374444E+03    0.92810E-06   -0.54485E-05  4018   0.133E-02
  21 F= -.36037037E+03 E0= -.36037754E+03  d E =-.118447E-01
       N       E                     dE             d eps       ncg     rms          rms(c)
DAV:   1    -0.360371798100E+03   -0.14227E-02   -0.34956E-01  4896   0.171E+00    0.152E-01
RMM:   2    -0.360372679982E+03   -0.88188E-03   -0.11812E-02  7172   0.323E-01    0.848E-02
RMM:   3    -0.360372539774E+03    0.14021E-03   -0.15195E-03  7268   0.851E-02    0.619E-02
RMM:   4    -0.360372503901E+03    0.35873E-04   -0.36072E-04  7576   0.314E-02    0.382E-02
RMM:   5    -0.360372499216E+03    0.46854E-05   -0.15602E-04  6409   0.209E-02    0.222E-02
RMM:   6    -0.360372493573E+03    0.56431E-05   -0.63796E-05  4605   0.145E-02
  22 F= -.36037249E+03 E0= -.36037983E+03  d E =-.211913E-02
       N       E                     dE             d eps       ncg     rms          rms(c)
DAV:   1    -0.360370217182E+03    0.22820E-02   -0.31462E+00  4816   0.512E+00    0.458E-01
RMM:   2    -0.360378219238E+03   -0.80021E-02   -0.10651E-01  7223   0.969E-01    0.258E-01
RMM:   3    -0.360376914629E+03    0.13046E-02   -0.13529E-02  7308   0.253E-01    0.188E-01
RMM:   4    -0.360376587985E+03    0.32664E-03   -0.31266E-03  8044   0.940E-02    0.117E-01
RMM:   5    -0.360376548907E+03    0.39078E-04   -0.13854E-03  7719   0.633E-02    0.682E-02
RMM:   6    -0.360376508513E+03    0.40395E-04   -0.56272E-04  7776   0.424E-02    0.322E-02
RMM:   7    -0.360376508483E+03    0.30275E-07   -0.18906E-04  5525   0.207E-02    0.232E-02
RMM:   8    -0.360376512044E+03   -0.35614E-05   -0.12118E-04  5144   0.185E-02    0.132E-02
RMM:   9    -0.360376510738E+03    0.13059E-05   -0.36603E-05  3885   0.124E-02
  23 F= -.36037651E+03 E0= -.36038432E+03  d E =-.613629E-02
       N       E                     dE             d eps       ncg     rms          rms(c)
DAV:   1    -0.360348663088E+03    0.27849E-01   -0.12582E+01  4816   0.102E+01    0.916E-01
RMM:   2    -0.360381260315E+03   -0.32597E-01   -0.42791E-01  7225   0.194E+00    0.522E-01
RMM:   3    -0.360375705621E+03    0.55547E-02   -0.53839E-02  7362   0.510E-01    0.378E-01
RMM:   4    -0.360374403504E+03    0.13021E-02   -0.12322E-02  8073   0.188E-01    0.236E-01
RMM:   5    -0.360374231900E+03    0.17160E-03   -0.53824E-03  7806   0.127E-01    0.138E-01
RMM:   6    -0.360374065110E+03    0.16679E-03   -0.22176E-03  7872   0.854E-02    0.651E-02
RMM:   7    -0.360374086892E+03   -0.21782E-04   -0.92339E-04  7846   0.415E-02    0.467E-02
RMM:   8    -0.360374092942E+03   -0.60498E-05   -0.36812E-04  6644   0.264E-02    0.272E-02
RMM:   9    -0.360374098017E+03   -0.50751E-05   -0.16123E-04  5999   0.201E-02    0.145E-02
RMM:  10    -0.360374100009E+03   -0.19913E-05   -0.73522E-05  4827   0.155E-02
  24 F= -.36037410E+03 E0= -.36038270E+03  d E =-.372556E-02
       N       E                     dE             d eps       ncg     rms          rms(c)
DAV:   1    -0.360365945020E+03    0.81530E-02   -0.60205E+00  4816   0.709E+00    0.628E-01
RMM:   2    -0.360380677521E+03   -0.14733E-01   -0.20122E-01  7199   0.133E+00    0.350E-01
RMM:   3    -0.360378008924E+03    0.26686E-02   -0.24471E-02  7310   0.345E-01    0.253E-01
RMM:   4    -0.360377332647E+03    0.67628E-03   -0.56129E-03  8051   0.127E-01    0.154E-01
RMM:   5    -0.360377256415E+03    0.76232E-04   -0.24687E-03  7819   0.859E-02    0.905E-02
RMM:   6    -0.360377212785E+03    0.43630E-04   -0.10020E-03  8065   0.568E-02    0.438E-02
RMM:   7    -0.360377224422E+03   -0.11637E-04   -0.36601E-04  6745   0.281E-02    0.312E-02
RMM:   8    -0.360377235941E+03   -0.11519E-04   -0.17669E-04  5831   0.204E-02    0.183E-02
RMM:   9    -0.360377242487E+03   -0.65458E-05   -0.60225E-05  4662   0.144E-02
  25 F= -.36037724E+03 E0= -.36038532E+03  d E =-.686804E-02
       N       E                     dE             d eps       ncg     rms          rms(c)
DAV:   1    -0.360382855517E+03   -0.56196E-02   -0.60978E-01  5240   0.248E+00    0.680E-01
RMM:   2    -0.360381308840E+03    0.15467E-02   -0.43778E-02  6683   0.561E-01    0.252E-01
RMM:   3    -0.360379564989E+03    0.17439E-02   -0.83606E-03  7401   0.185E-01    0.181E-01
RMM:   4    -0.360378779462E+03    0.78553E-03   -0.25747E-03  7505   0.103E-01    0.948E-02
RMM:   5    -0.360378654302E+03    0.12516E-03   -0.76365E-04  7306   0.558E-02    0.706E-02
RMM:   6    -0.360378692805E+03   -0.38503E-04   -0.29012E-04  6748   0.292E-02    0.422E-02
RMM:   7    -0.360378720708E+03   -0.27902E-04   -0.11498E-04  5932   0.207E-02    0.234E-02
RMM:   8    -0.360378737448E+03   -0.16741E-04   -0.69410E-05  4380   0.153E-02    0.165E-02
RMM:   9    -0.360378751520E+03   -0.14071E-04   -0.34364E-05  3824   0.128E-02    0.101E-02
RMM:  10    -0.360378759489E+03   -0.79696E-05   -0.13032E-05  3156   0.108E-02
  26 F= -.36037876E+03 E0= -.36038688E+03  d E =-.151700E-02
       N       E                     dE             d eps       ncg     rms          rms(c)
DAV:   1    -0.360379438638E+03   -0.68712E-03   -0.93848E-02  5264   0.973E-01    0.265E-01
RMM:   2    -0.360379195964E+03    0.24267E-03   -0.66681E-03  6682   0.220E-01    0.973E-02
RMM:   3    -0.360378936189E+03    0.25978E-03   -0.12778E-03  7378   0.721E-02    0.692E-02
RMM:   4    -0.360378825042E+03    0.11115E-03   -0.40256E-04  7330   0.400E-02    0.361E-02
RMM:   5    -0.360378810808E+03    0.14234E-04   -0.12023E-04  6204   0.230E-02    0.267E-02
RMM:   6    -0.360378822635E+03   -0.11827E-04   -0.41229E-05  3773   0.125E-02    0.182E-02
RMM:   7    -0.360378831221E+03   -0.85854E-05   -0.20749E-05  3017   0.122E-02
  27 F= -.36037883E+03 E0= -.36038697E+03  d E =-.158873E-02
       N       E                     dE             d eps       ncg     rms          rms(c)
DAV:   1    -0.360379689472E+03   -0.86684E-03   -0.41416E-01  4832   0.176E+00    0.131E-01
RMM:   2    -0.360380474479E+03   -0.78501E-03   -0.11255E-02  6899   0.322E-01    0.708E-02
RMM:   3    -0.360380462595E+03    0.11884E-04   -0.17140E-03  7178   0.863E-02    0.527E-02
RMM:   4    -0.360380449512E+03    0.13082E-04   -0.43139E-04  7440   0.314E-02    0.321E-02
RMM:   5    -0.360380447954E+03    0.15581E-05   -0.15967E-04  6132   0.189E-02    0.181E-02
RMM:   6    -0.360380448114E+03   -0.15926E-06   -0.64691E-05  4516   0.144E-02
  28 F= -.36038045E+03 E0= -.36038867E+03  d E =-.161689E-02
       N       E                     dE             d eps       ncg     rms          rms(c)
DAV:   1    -0.360376841994E+03    0.36060E-02   -0.37262E+00  4816   0.527E+00    0.390E-01
RMM:   2    -0.360383891197E+03   -0.70492E-02   -0.10094E-01  6899   0.966E-01    0.211E-01
RMM:   3    -0.360383788062E+03    0.10314E-03   -0.15355E-02  7251   0.257E-01    0.157E-01
RMM:   4    -0.360383636296E+03    0.15177E-03   -0.36132E-03  8047   0.910E-02    0.973E-02
RMM:   5    -0.360383606645E+03    0.29651E-04   -0.14295E-03  7685   0.591E-02    0.540E-02
RMM:   6    -0.360383597014E+03    0.96304E-05   -0.54640E-04  7589   0.364E-02    0.254E-02
RMM:   7    -0.360383600594E+03   -0.35797E-05   -0.16646E-04  5202   0.185E-02    0.163E-02
RMM:   8    -0.360383607655E+03   -0.70611E-05   -0.11068E-04  4691   0.162E-02    0.972E-03
RMM:   9    -0.360383609322E+03   -0.16664E-05   -0.36225E-05  3721   0.121E-02
  29 F= -.36038361E+03 E0= -.36039201E+03  d E =-.477810E-02
       N       E                     dE             d eps       ncg     rms          rms(c)
DAV:   1    -0.360355087508E+03    0.28520E-01   -0.14900E+01  4816   0.105E+01    0.785E-01
RMM:   2    -0.360383260059E+03   -0.28173E-01   -0.40385E-01  6888   0.193E+00    0.418E-01
RMM:   3    -0.360382896536E+03    0.36352E-03   -0.61031E-02  7275   0.515E-01    0.308E-01
RMM:   4    -0.360382321677E+03    0.57486E-03   -0.14081E-02  8054   0.182E-01    0.191E-01
RMM:   5    -0.360382231789E+03    0.89889E-04   -0.55211E-03  7883   0.118E-01    0.106E-01
RMM:   6    -0.360382181879E+03    0.49910E-04   -0.21327E-03  8036   0.723E-02    0.493E-02
RMM:   7    -0.360382219213E+03   -0.37334E-04   -0.80901E-04  7230   0.358E-02    0.318E-02
RMM:   8    -0.360382238224E+03   -0.19011E-04   -0.35073E-04  6480   0.246E-02    0.199E-02
RMM:   9    -0.360382248538E+03   -0.10315E-04   -0.15138E-04  5697   0.181E-02    0.928E-03
RMM:  10    -0.360382252644E+03   -0.41055E-05   -0.61833E-05  4453   0.140E-02
  30 F= -.36038225E+03 E0= -.36039068E+03  d E =-.342142E-02
       N       E                     dE             d eps       ncg     rms          rms(c)
DAV:   1    -0.360372493239E+03    0.97553E-02   -0.67074E+00  4816   0.707E+00    0.521E-01
RMM:   2    -0.360385011340E+03   -0.12518E-01   -0.18002E-01  6836   0.129E+00    0.280E-01
RMM:   3    -0.360384657021E+03    0.35432E-03   -0.26152E-02  7259   0.344E-01    0.206E-01
RMM:   4    -0.360384369551E+03    0.28747E-03   -0.60320E-03  8041   0.119E-01    0.126E-01
RMM:   5    -0.360384319088E+03    0.50463E-04   -0.23842E-03  7805   0.772E-02    0.713E-02
RMM:   6    -0.360384293736E+03    0.25352E-04   -0.88311E-04  7879   0.471E-02    0.324E-02
RMM:   7    -0.360384301744E+03   -0.80088E-05   -0.28580E-04  6163   0.230E-02    0.213E-02
RMM:   8    -0.360384313434E+03   -0.11690E-04   -0.17890E-04  5391   0.188E-02    0.132E-02
RMM:   9    -0.360384315904E+03   -0.24700E-05   -0.52880E-05  4130   0.126E-02
  31 F= -.36038432E+03 E0= -.36039278E+03  d E =-.548468E-02
       N       E                     dE             d eps       ncg     rms          rms(c)
DAV:   1    -0.360397569138E+03   -0.13256E-01   -0.13200E+00  5284   0.353E+00    0.105E+00
RMM:   2    -0.360393314862E+03    0.42543E-02   -0.10029E-01  7297   0.812E-01    0.410E-01
RMM:   3    -0.360388228283E+03    0.50866E-02   -0.21149E-02  7566   0.268E-01    0.284E-01
RMM:   4    -0.360386305657E+03    0.19226E-02   -0.62636E-03  7527   0.159E-01    0.152E-01
RMM:   5    -0.360385897994E+03    0.40766E-03   -0.19722E-03  7429   0.888E-02    0.107E-01
RMM:   6    -0.360385926292E+03   -0.28298E-04   -0.75241E-04  7553   0.440E-02    0.678E-02
RMM:   7    -0.360385921925E+03    0.43667E-05   -0.29390E-04  6387   0.302E-02    0.395E-02
RMM:   8    -0.360385926030E+03   -0.41046E-05   -0.17320E-04  6174   0.214E-02    0.259E-02
RMM:   9    -0.360385929591E+03   -0.35605E-05   -0.66905E-05  4565   0.160E-02
  32 F= -.36038593E+03 E0= -.36039457E+03  d E =-.161369E-02
       N       E                     dE             d eps       ncg     rms          rms(c)
DAV:   1    -0.360386084844E+03   -0.15881E-03   -0.12896E-02  5440   0.348E-01    0.108E-01
RMM:   2    -0.360386037622E+03    0.47222E-04   -0.10641E-03  7287   0.812E-02    0.449E-02
RMM:   3    -0.360385988624E+03    0.48998E-04   -0.24640E-04  6609   0.284E-02    0.335E-02
RMM:   4    -0.360385964154E+03    0.24470E-04   -0.69391E-05  5563   0.188E-02    0.185E-02
RMM:   5    -0.360385958493E+03    0.56613E-05   -0.19428E-05  2794   0.127E-02
  33 F= -.36038596E+03 E0= -.36039459E+03  d E =-.164259E-02
       N       E                     dE             d eps       ncg     rms          rms(c)
DAV:   1    -0.360386987743E+03   -0.10236E-02   -0.33208E-01  4840   0.154E+00    0.129E-01
RMM:   2    -0.360387559662E+03   -0.57192E-03   -0.89578E-03  6763   0.287E-01    0.736E-02
RMM:   3    -0.360387512404E+03    0.47258E-04   -0.13836E-03  7155   0.755E-02    0.517E-02
RMM:   4    -0.360387497315E+03    0.15089E-04   -0.35682E-04  6860   0.265E-02    0.341E-02
RMM:   5    -0.360387491380E+03    0.59349E-05   -0.13557E-04  6208   0.173E-02    0.163E-02
RMM:   6    -0.360387492219E+03   -0.83877E-06   -0.42178E-05  3795   0.118E-02
  34 F= -.36038749E+03 E0= -.36039616E+03  d E =-.153373E-02
       N       E                     dE             d eps       ncg     rms          rms(c)
DAV:   1    -0.360385627267E+03    0.18641E-02   -0.29886E+00  4816   0.460E+00    0.389E-01
RMM:   2    -0.360390919456E+03   -0.52922E-02   -0.81722E-02  6881   0.860E-01    0.226E-01
RMM:   3    -0.360390515245E+03    0.40421E-03   -0.13121E-02  7259   0.226E-01    0.158E-01
RMM:   4    -0.360390355510E+03    0.15974E-03   -0.34057E-03  7950   0.807E-02    0.103E-01
RMM:   5    -0.360390293685E+03    0.61825E-04   -0.13218E-03  7546   0.569E-02    0.482E-02
RMM:   6    -0.360390306777E+03   -0.13092E-04   -0.51189E-04  7103   0.322E-02    0.244E-02
RMM:   7    -0.360390312050E+03   -0.52728E-05   -0.16691E-04  4945   0.180E-02    0.164E-02
RMM:   8    -0.360390322057E+03   -0.10007E-04   -0.12367E-04  4690   0.160E-02    0.990E-03
RMM:   9    -0.360390324585E+03   -0.25283E-05   -0.31871E-05  3744   0.116E-02
  35 F= -.36039032E+03 E0= -.36039905E+03  d E =-.436609E-02
       N       E                     dE             d eps       ncg     rms          rms(c)
DAV:   1    -0.360389606709E+03    0.71535E-03   -0.69438E-01  4816   0.222E+00    0.188E-01
RMM:   2    -0.360390851027E+03   -0.12443E-02   -0.19090E-02  6938   0.415E-01    0.109E-01
RMM:   3    -0.360390766819E+03    0.84208E-04   -0.31479E-03  7248   0.109E-01    0.758E-02
RMM:   4    -0.360390734664E+03    0.32155E-04   -0.83233E-04  7763   0.394E-02    0.499E-02
RMM:   5    -0.360390722161E+03    0.12503E-04   -0.31842E-04  6791   0.281E-02    0.230E-02
RMM:   6    -0.360390725264E+03   -0.31027E-05   -0.11421E-04  5059   0.168E-02    0.111E-02
RMM:   7    -0.360390728289E+03   -0.30252E-05   -0.50952E-05  3813   0.124E-02
  36 F= -.36039073E+03 E0= -.36039945E+03  d E =-.476980E-02
       N       E                     dE             d eps       ncg     rms          rms(c)
DAV:   1    -0.360396293876E+03   -0.55686E-02   -0.41700E-01  5120   0.201E+00    0.599E-01
RMM:   2    -0.360394235472E+03    0.20584E-02   -0.30077E-02  7255   0.471E-01    0.219E-01
RMM:   3    -0.360393117926E+03    0.11175E-02   -0.64558E-03  7483   0.147E-01    0.167E-01
RMM:   4    -0.360392457197E+03    0.66073E-03   -0.20744E-03  7514   0.936E-02    0.896E-02
RMM:   5    -0.360392346264E+03    0.11093E-03   -0.67828E-04  7407   0.497E-02    0.653E-02
RMM:   6    -0.360392374723E+03   -0.28459E-04   -0.27648E-04  6749   0.275E-02    0.363E-02
RMM:   7    -0.360392395509E+03   -0.20786E-04   -0.11565E-04  5792   0.208E-02    0.186E-02
RMM:   8    -0.360392407450E+03   -0.11941E-04   -0.60141E-05  4403   0.143E-02    0.136E-02
RMM:   9    -0.360392416601E+03   -0.91511E-05   -0.27264E-05  3774   0.115E-02
  37 F= -.36039242E+03 E0= -.36040113E+03  d E =-.168831E-02
       N       E                     dE             d eps       ncg     rms          rms(c)
DAV:   1    -0.360394331569E+03   -0.19241E-02   -0.18159E-01  5144   0.132E+00    0.393E-01
RMM:   2    -0.360393424495E+03    0.90707E-03   -0.12929E-02  7257   0.309E-01    0.143E-01
RMM:   3    -0.360392947470E+03    0.47702E-03   -0.27548E-03  7477   0.961E-02    0.108E-01
RMM:   4    -0.360392675765E+03    0.27171E-03   -0.90045E-04  7505   0.616E-02    0.582E-02
RMM:   5    -0.360392634493E+03    0.41272E-04   -0.29801E-04  7249   0.326E-02    0.430E-02
RMM:   6    -0.360392654163E+03   -0.19670E-04   -0.12229E-04  5914   0.183E-02    0.246E-02
RMM:   7    -0.360392668486E+03   -0.14323E-04   -0.55902E-05  4226   0.154E-02    0.133E-02
RMM:   8    -0.360392675830E+03   -0.73441E-05   -0.32190E-05  3674   0.119E-02
  38 F= -.36039268E+03 E0= -.36040137E+03  d E =-.194754E-02
       N       E                     dE             d eps       ncg     rms          rms(c)
DAV:   1    -0.360394011656E+03   -0.13432E-02   -0.16995E-01  4824   0.113E+00    0.160E-01
RMM:   2    -0.360394170262E+03   -0.15861E-03   -0.65288E-03  7302   0.225E-01    0.896E-02
RMM:   3    -0.360394040330E+03    0.12993E-03   -0.11956E-03  7392   0.588E-02    0.657E-02
RMM:   4    -0.360393969905E+03    0.70425E-04   -0.39643E-04  7267   0.337E-02    0.323E-02
RMM:   5    -0.360393957352E+03    0.12553E-04   -0.17800E-04  6261   0.213E-02    0.176E-02
RMM:   6    -0.360393955240E+03    0.21118E-05   -0.50393E-05  3996   0.122E-02
  39 F= -.36039396E+03 E0= -.36040269E+03  d E =-.127941E-02
       N       E                     dE             d eps       ncg     rms          rms(c)
DAV:   1    -0.360396738833E+03   -0.27815E-02   -0.15284E+00  4816   0.339E+00    0.474E-01
RMM:   2    -0.360398144320E+03   -0.14055E-02   -0.57887E-02  7302   0.671E-01    0.266E-01
RMM:   3    -0.360396864598E+03    0.12797E-02   -0.10164E-02  7322   0.173E-01    0.190E-01
RMM:   4    -0.360396258150E+03    0.60645E-03   -0.34398E-03  7275   0.996E-02    0.931E-02
RMM:   5    -0.360396147871E+03    0.11028E-03   -0.15851E-03  7274   0.634E-02    0.512E-02
RMM:   6    -0.360396146789E+03    0.10820E-05   -0.52117E-04  6562   0.329E-02    0.305E-02
RMM:   7    -0.360396151102E+03   -0.43131E-05   -0.20534E-04  5488   0.198E-02    0.212E-02
RMM:   8    -0.360396150926E+03    0.17647E-06   -0.81675E-05  4822   0.155E-02
  40 F= -.36039615E+03 E0= -.36040494E+03  d E =-.347510E-02
       N       E                     dE             d eps       ncg     rms          rms(c)
DAV:   1    -0.360396452993E+03   -0.30189E-03   -0.26440E-01  4840   0.141E+00    0.198E-01
RMM:   2    -0.360396714138E+03   -0.26114E-03   -0.10187E-02  7307   0.279E-01    0.111E-01
RMM:   3    -0.360396494899E+03    0.21924E-03   -0.18620E-03  7280   0.725E-02    0.787E-02
RMM:   4    -0.360396395451E+03    0.99448E-04   -0.65019E-04  7276   0.423E-02    0.384E-02
RMM:   5    -0.360396377048E+03    0.18403E-04   -0.28949E-04  6603   0.268E-02    0.211E-02
RMM:   6    -0.360396375807E+03    0.12413E-05   -0.90876E-05  4649   0.150E-02
  41 F= -.36039638E+03 E0= -.36040517E+03  d E =-.369998E-02
       N       E                     dE             d eps       ncg     rms          rms(c)
DAV:   1    -0.360397875613E+03   -0.14986E-02   -0.14811E-01  4896   0.115E+00    0.256E-01
RMM:   2    -0.360397964230E+03   -0.88616E-04   -0.95863E-03  7284   0.256E-01    0.117E-01
RMM:   3    -0.360397549629E+03    0.41460E-03   -0.15804E-03  7434   0.735E-02    0.816E-02
RMM:   4    -0.360397411046E+03    0.13858E-03   -0.47612E-04  7251   0.404E-02    0.452E-02
RMM:   5    -0.360397373802E+03    0.37244E-04   -0.17846E-04  6898   0.249E-02    0.303E-02
RMM:   6    -0.360397368849E+03    0.49529E-05   -0.58140E-05  4421   0.139E-02
  42 F= -.36039737E+03 E0= -.36040620E+03  d E =-.993042E-03
       N       E                     dE             d eps       ncg     rms          rms(c)
DAV:   1    -0.360401362206E+03   -0.39884E-02   -0.91545E-01  4816   0.287E+00    0.636E-01
RMM:   2    -0.360401882102E+03   -0.51990E-03   -0.59465E-02  7288   0.635E-01    0.293E-01
RMM:   3    -0.360399280963E+03    0.26011E-02   -0.98239E-03  7464   0.183E-01    0.203E-01
RMM:   4    -0.360398439744E+03    0.84122E-03   -0.29778E-03  7285   0.102E-01    0.113E-01
RMM:   5    -0.360398225690E+03    0.21405E-03   -0.11365E-03  7501   0.621E-02    0.754E-02
RMM:   6    -0.360398224548E+03    0.11417E-05   -0.44036E-04  7088   0.340E-02    0.475E-02
RMM:   7    -0.360398214968E+03    0.95800E-05   -0.19958E-04  6185   0.224E-02    0.287E-02
RMM:   8    -0.360398212260E+03    0.27087E-05   -0.96871E-05  4870   0.178E-02
  43 F= -.36039821E+03 E0= -.36040710E+03  d E =-.183645E-02
       N       E                     dE             d eps       ncg     rms          rms(c)
DAV:   1    -0.360398765450E+03   -0.55048E-03   -0.50257E-02  4960   0.642E-01    0.993E-02
RMM:   2    -0.360398825312E+03   -0.59863E-04   -0.24344E-03  7311   0.134E-01    0.506E-02
RMM:   3    -0.360398804522E+03    0.20790E-04   -0.39841E-04  6944   0.358E-02    0.360E-02
RMM:   4    -0.360398786006E+03    0.18516E-04   -0.13643E-04  6103   0.194E-02    0.211E-02
RMM:   5    -0.360398781306E+03    0.47006E-05   -0.51638E-05  4169   0.126E-02
  44 F= -.36039878E+03 E0= -.36040767E+03  d E =-.569046E-03
       N       E                     dE             d eps       ncg     rms          rms(c)
DAV:   1    -0.360399905635E+03   -0.11196E-02   -0.45137E-01  4816   0.192E+00    0.284E-01
RMM:   2    -0.360400386626E+03   -0.48099E-03   -0.20396E-02  7308   0.393E-01    0.136E-01
RMM:   3    -0.360400178766E+03    0.20786E-03   -0.28328E-03  7333   0.987E-02    0.918E-02
RMM:   4    -0.360400053660E+03    0.12511E-03   -0.93624E-04  7298   0.505E-02    0.537E-02
RMM:   5    -0.360400031721E+03    0.21939E-04   -0.40191E-04  7126   0.322E-02    0.344E-02
RMM:   6    -0.360400033282E+03   -0.15606E-05   -0.13876E-04  5864   0.195E-02    0.200E-02
RMM:   7    -0.360400039811E+03   -0.65291E-05   -0.55803E-05  4275   0.139E-02
  45 F= -.36040004E+03 E0= -.36040891E+03  d E =-.182755E-02
       N       E                     dE             d eps       ncg     rms          rms(c)
DAV:   1    -0.360400050901E+03   -0.17619E-04   -0.18063E+00  4816   0.385E+00    0.571E-01
RMM:   2    -0.360401923200E+03   -0.18723E-02   -0.81109E-02  7310   0.787E-01    0.270E-01
RMM:   3    -0.360401073987E+03    0.84921E-03   -0.10995E-02  7312   0.196E-01    0.181E-01
RMM:   4    -0.360400568155E+03    0.50583E-03   -0.36276E-03  7298   0.996E-02    0.105E-01
RMM:   5    -0.360400472434E+03    0.95721E-04   -0.15605E-03  7447   0.639E-02    0.668E-02
RMM:   6    -0.360400474240E+03   -0.18067E-05   -0.55900E-04  7146   0.370E-02    0.389E-02
RMM:   7    -0.360400493019E+03   -0.18778E-04   -0.19490E-04  5306   0.224E-02    0.221E-02
RMM:   8    -0.360400506056E+03   -0.13037E-04   -0.12073E-04  5000   0.178E-02    0.131E-02
RMM:   9    -0.360400513149E+03   -0.70936E-05   -0.54967E-05  4820   0.151E-02
  46 F= -.36040051E+03 E0= -.36040931E+03  d E =-.230089E-02
       N       E                     dE             d eps       ncg     rms          rms(c)
DAV:   1    -0.360400683212E+03   -0.17716E-03   -0.21532E-01  4816   0.133E+00    0.198E-01
RMM:   2    -0.360400902427E+03   -0.21921E-03   -0.96052E-03  7310   0.272E-01    0.951E-02
RMM:   3    -0.360400782612E+03    0.11981E-03   -0.12289E-03  7407   0.677E-02    0.648E-02
RMM:   4    -0.360400708410E+03    0.74202E-04   -0.37945E-04  7188   0.338E-02    0.379E-02
RMM:   5    -0.360400688506E+03    0.19905E-04   -0.15736E-04  6468   0.216E-02    0.237E-02
RMM:   6    -0.360400681021E+03    0.74849E-05   -0.44740E-05  3927   0.127E-02
  47 F= -.36040068E+03 E0= -.36040951E+03  d E =-.246876E-02
       N       E                     dE             d eps       ncg     rms          rms(c)
DAV:   1    -0.360401296692E+03   -0.60819E-03   -0.38304E-02  4928   0.588E-01    0.125E-01
RMM:   2    -0.360401255443E+03    0.41249E-04   -0.22444E-03  7273   0.126E-01    0.538E-02
RMM:   3    -0.360401214558E+03    0.40885E-04   -0.38723E-04  7134   0.365E-02    0.405E-02
RMM:   4    -0.360401176056E+03    0.38501E-04   -0.12497E-04  6494   0.218E-02    0.212E-02
RMM:   5    -0.360401170043E+03    0.60135E-05   -0.43142E-05  3746   0.119E-02
  48 F= -.36040117E+03 E0= -.36040999E+03  d E =-.489022E-03
       N       E                     dE             d eps       ncg     rms          rms(c)
DAV:   1    -0.360403264074E+03   -0.20880E-02   -0.34448E-01  4816   0.176E+00    0.367E-01
RMM:   2    -0.360402830833E+03    0.43324E-03   -0.19700E-02  7276   0.375E-01    0.156E-01
RMM:   3    -0.360402458370E+03    0.37246E-03   -0.32975E-03  7392   0.105E-01    0.115E-01
RMM:   4    -0.360402160577E+03    0.29779E-03   -0.11068E-03  7291   0.625E-02    0.633E-02
RMM:   5    -0.360402114543E+03    0.46034E-04   -0.44743E-04  7401   0.344E-02    0.436E-02
RMM:   6    -0.360402123073E+03   -0.85304E-05   -0.14957E-04  5820   0.209E-02    0.238E-02
RMM:   7    -0.360402132921E+03   -0.98478E-05   -0.72613E-05  4912   0.159E-02
  49 F= -.36040213E+03 E0= -.36041091E+03  d E =-.145190E-02
       N       E                     dE             d eps       ncg     rms          rms(c)
DAV:   1    -0.360406103274E+03   -0.39802E-02   -0.13797E+00  4816   0.352E+00    0.739E-01
RMM:   2    -0.360404355520E+03    0.17478E-02   -0.78513E-02  7271   0.751E-01    0.310E-01
RMM:   3    -0.360402901497E+03    0.14540E-02   -0.13055E-02  7365   0.209E-01    0.227E-01
RMM:   4    -0.360401717590E+03    0.11839E-02   -0.43351E-03  7292   0.123E-01    0.124E-01
RMM:   5    -0.360401527581E+03    0.19001E-03   -0.17509E-03  7512   0.680E-02    0.852E-02
RMM:   6    -0.360401550985E+03   -0.23404E-04   -0.63062E-04  7286   0.408E-02    0.463E-02
RMM:   7    -0.360401575549E+03   -0.24563E-04   -0.24386E-04  5683   0.264E-02    0.237E-02
RMM:   8    -0.360401594205E+03   -0.18656E-04   -0.16331E-04  5692   0.208E-02    0.167E-02
RMM:   9    -0.360401602816E+03   -0.86117E-05   -0.56376E-05  4756   0.148E-02
  50 F= -.36040160E+03 E0= -.36041027E+03  d E =-.921795E-03
       N       E                     dE             d eps       ncg     rms          rms(c)
DAV:   1    -0.360404304284E+03   -0.27101E-02   -0.55696E-01  4816   0.224E+00    0.471E-01
RMM:   2    -0.360403629629E+03    0.67466E-03   -0.31641E-02  7259   0.478E-01    0.201E-01
RMM:   3    -0.360402997724E+03    0.63191E-03   -0.52089E-03  7430   0.136E-01    0.149E-01
RMM:   4    -0.360402470004E+03    0.52772E-03   -0.16608E-03  7296   0.790E-02    0.813E-02
RMM:   5    -0.360402366205E+03    0.10380E-03   -0.64249E-04  7414   0.424E-02    0.553E-02
RMM:   6    -0.360402351534E+03    0.14671E-04   -0.21770E-04  6562   0.253E-02    0.293E-02
RMM:   7    -0.360402344790E+03    0.67448E-05   -0.84014E-05  4704   0.171E-02
  51 F= -.36040234E+03 E0= -.36041108E+03  d E =-.166377E-02
       N       E                     dE             d eps       ncg     rms          rms(c)
DAV:   1    -0.360402726427E+03   -0.37489E-03   -0.23336E-02  4920   0.446E-01    0.765E-02
RMM:   2    -0.360402737238E+03   -0.10811E-04   -0.12213E-03  7174   0.927E-02    0.377E-02
RMM:   3    -0.360402694972E+03    0.42265E-04   -0.13301E-04  6266   0.235E-02    0.254E-02
RMM:   4    -0.360402679122E+03    0.15850E-04   -0.43804E-05  4549   0.152E-02    0.138E-02
RMM:   5    -0.360402673653E+03    0.54691E-05   -0.14938E-05  2567   0.116E-02
  52 F= -.36040267E+03 E0= -.36041141E+03  d E =-.328863E-03
       N       E                     dE             d eps       ncg     rms          rms(c)
DAV:   1    -0.360403781105E+03   -0.11020E-02   -0.20883E-01  4824   0.133E+00    0.238E-01
RMM:   2    -0.360403932155E+03   -0.15105E-03   -0.11735E-02  7311   0.280E-01    0.122E-01
RMM:   3    -0.360403575496E+03    0.35666E-03   -0.16985E-03  7465   0.735E-02    0.835E-02
RMM:   4    -0.360403441907E+03    0.13359E-03   -0.61040E-04  7287   0.435E-02    0.450E-02
RMM:   5    -0.360403403562E+03    0.38345E-04   -0.25414E-04  6896   0.280E-02    0.275E-02
RMM:   6    -0.360403399551E+03    0.40111E-05   -0.69328E-05  4541   0.153E-02
  53 F= -.36040340E+03 E0= -.36041213E+03  d E =-.105476E-02
       N       E                     dE             d eps       ncg     rms          rms(c)
DAV:   1    -0.360405174588E+03   -0.17710E-02   -0.83598E-01  4816   0.267E+00    0.476E-01
RMM:   2    -0.360405799589E+03   -0.62500E-03   -0.47135E-02  7309   0.563E-01    0.246E-01
RMM:   3    -0.360404351203E+03    0.14484E-02   -0.69091E-03  7474   0.149E-01    0.168E-01
RMM:   4    -0.360403827254E+03    0.52395E-03   -0.25105E-03  7288   0.875E-02    0.910E-02
RMM:   5    -0.360403676461E+03    0.15079E-03   -0.10586E-03  7384   0.566E-02    0.547E-02
RMM:   6    -0.360403675900E+03    0.56111E-06   -0.35062E-04  6399   0.298E-02    0.336E-02
RMM:   7    -0.360403675958E+03   -0.57425E-07   -0.14976E-04  5234   0.202E-02    0.214E-02
RMM:   8    -0.360403675485E+03    0.47258E-06   -0.88193E-05  4984   0.164E-02
  54 F= -.36040368E+03 E0= -.36041235E+03  d E =-.133070E-02
       N       E                     dE             d eps       ncg     rms          rms(c)
DAV:   1    -0.360403905491E+03   -0.22953E-03   -0.74172E-02  4880   0.795E-01    0.143E-01
RMM:   2    -0.360403948822E+03   -0.43331E-04   -0.41514E-03  7308   0.169E-01    0.745E-02
RMM:   3    -0.360403816565E+03    0.13226E-03   -0.56840E-04  7447   0.443E-02    0.526E-02
RMM:   4    -0.360403762784E+03    0.53780E-04   -0.18780E-04  6854   0.257E-02    0.287E-02
RMM:   5    -0.360403746552E+03    0.16233E-04   -0.72581E-05  6149   0.162E-02    0.168E-02
RMM:   6    -0.360403746656E+03   -0.10406E-06   -0.15591E-05  2780   0.916E-03
  55 F= -.36040375E+03 E0= -.36041244E+03  d E =-.140187E-02
       N       E                     dE             d eps       ncg     rms          rms(c)
DAV:   1    -0.360404010418E+03   -0.26387E-03   -0.10915E-02  4928   0.305E-01    0.576E-02
RMM:   2    -0.360404012591E+03   -0.21734E-05   -0.58904E-04  7309   0.629E-02    0.292E-02
RMM:   3    -0.360403996590E+03    0.16001E-04   -0.10311E-04  6218   0.183E-02    0.206E-02
RMM:   4    -0.360403987862E+03    0.87277E-05   -0.38218E-05  3761   0.138E-02
  56 F= -.36040399E+03 E0= -.36041268E+03  d E =-.241207E-03
       N       E                     dE             d eps       ncg     rms          rms(c)
DAV:   1    -0.360404776608E+03   -0.78002E-03   -0.97943E-02  4856   0.910E-01    0.166E-01
RMM:   2    -0.360404763748E+03    0.12861E-04   -0.51633E-03  7305   0.187E-01    0.848E-02
RMM:   3    -0.360404626294E+03    0.13745E-03   -0.88856E-04  7421   0.515E-02    0.606E-02
RMM:   4    -0.360404549195E+03    0.77099E-04   -0.33268E-04  7244   0.326E-02    0.302E-02
RMM:   5    -0.360404534073E+03    0.15122E-04   -0.13663E-04  6279   0.196E-02    0.190E-02
RMM:   6    -0.360404531403E+03    0.26701E-05   -0.34729E-05  3737   0.112E-02
  57 F= -.36040453E+03 E0= -.36041320E+03  d E =-.784747E-03
       N       E                     dE             d eps       ncg     rms          rms(c)
DAV:   1    -0.360405908838E+03   -0.13748E-02   -0.39285E-01  4816   0.182E+00    0.330E-01
RMM:   2    -0.360405836272E+03    0.72566E-04   -0.20317E-02  7303   0.372E-01    0.168E-01
RMM:   3    -0.360405301631E+03    0.53464E-03   -0.34617E-03  7413   0.102E-01    0.119E-01
RMM:   4    -0.360405008765E+03    0.29287E-03   -0.13009E-03  7266   0.644E-02    0.590E-02
RMM:   5    -0.360404952445E+03    0.56320E-04   -0.55530E-04  7342   0.387E-02    0.371E-02
RMM:   6    -0.360404949285E+03    0.31602E-05   -0.15145E-04  5372   0.202E-02    0.226E-02
RMM:   7    -0.360404949208E+03    0.76489E-07   -0.85563E-05  4734   0.158E-02
  58 F= -.36040495E+03 E0= -.36041357E+03  d E =-.120255E-02
       N       E                     dE             d eps       ncg     rms          rms(c)
DAV:   1    -0.360405400464E+03   -0.45118E-03   -0.28358E-02  5152   0.518E-01    0.137E-01
RMM:   2    -0.360405320278E+03    0.80186E-04   -0.20041E-03  7301   0.120E-01    0.539E-02
RMM:   3    -0.360405272954E+03    0.47324E-04   -0.44560E-04  7298   0.377E-02    0.422E-02
RMM:   4    -0.360405235315E+03    0.37639E-04   -0.14523E-04  6876   0.234E-02    0.228E-02
RMM:   5    -0.360405229373E+03    0.59423E-05   -0.48529E-05  4019   0.132E-02
  59 F= -.36040523E+03 E0= -.36041383E+03  d E =-.280165E-03
       N       E                     dE             d eps       ncg     rms          rms(c)
DAV:   1    -0.360407015133E+03   -0.17798E-02   -0.25308E-01  4864   0.155E+00    0.393E-01
RMM:   2    -0.360406402575E+03    0.61256E-03   -0.16655E-02  7260   0.349E-01    0.151E-01
RMM:   3    -0.360405905258E+03    0.49732E-03   -0.30985E-03  7359   0.104E-01    0.117E-01
RMM:   4    -0.360405592405E+03    0.31285E-03   -0.95980E-04  7373   0.618E-02    0.659E-02
RMM:   5    -0.360405538276E+03    0.54130E-04   -0.37117E-04  7489   0.335E-02    0.471E-02
RMM:   6    -0.360405550812E+03   -0.12537E-04   -0.13198E-04  6065   0.201E-02    0.260E-02
RMM:   7    -0.360405562336E+03   -0.11523E-04   -0.70490E-05  4712   0.150E-02    0.140E-02
RMM:   8    -0.360405567470E+03   -0.51343E-05   -0.32654E-05  3965   0.128E-02
  60 F= -.36040557E+03 E0= -.36041407E+03  d E =-.618262E-03
       N       E                     dE             d eps       ncg     rms          rms(c)
DAV:   1    -0.360405728251E+03   -0.16592E-03   -0.13952E-02  4960   0.331E-01    0.396E-02
RMM:   2    -0.360405746290E+03   -0.18039E-04   -0.52430E-04  6861   0.661E-02    0.205E-02
RMM:   3    -0.360405742898E+03    0.33921E-05   -0.71668E-05  4840   0.179E-02
  61 F= -.36040574E+03 E0= -.36041422E+03  d E =-.175428E-03
       N       E                     dE             d eps       ncg     rms          rms(c)
DAV:   1    -0.360406094153E+03   -0.34786E-03   -0.12479E-01  4840   0.986E-01    0.123E-01
RMM:   2    -0.360406210906E+03   -0.11675E-03   -0.47694E-03  7247   0.197E-01    0.657E-02
RMM:   3    -0.360406173133E+03    0.37774E-04   -0.78634E-04  7197   0.513E-02    0.442E-02
RMM:   4    -0.360406148574E+03    0.24558E-04   -0.27944E-04  6758   0.267E-02    0.239E-02
RMM:   5    -0.360406145847E+03    0.27268E-05   -0.10317E-04  5362   0.161E-02    0.132E-02
RMM:   6    -0.360406147888E+03   -0.20405E-05   -0.39616E-05  3723   0.110E-02
  62 F= -.36040615E+03 E0= -.36041455E+03  d E =-.580418E-03
       N       E                     dE             d eps       ncg     rms          rms(c)
DAV:   1    -0.360406339380E+03   -0.19353E-03   -0.49955E-01  4816   0.198E+00    0.240E-01
RMM:   2    -0.360406874492E+03   -0.53511E-03   -0.18645E-02  7254   0.393E-01    0.129E-01
RMM:   3    -0.360406727460E+03    0.14703E-03   -0.29367E-03  7267   0.101E-01    0.890E-02
RMM:   4    -0.360406598704E+03    0.12876E-03   -0.99550E-04  7288   0.506E-02    0.482E-02
RMM:   5    -0.360406583707E+03    0.14997E-04   -0.41988E-04  6989   0.325E-02    0.256E-02
RMM:   6    -0.360406585138E+03   -0.14314E-05   -0.11838E-04  4888   0.176E-02    0.148E-02
RMM:   7    -0.360406591437E+03   -0.62984E-05   -0.75406E-05  4330   0.141E-02
  63 F= -.36040659E+03 E0= -.36041485E+03  d E =-.102397E-02
       N       E                     dE             d eps       ncg     rms          rms(c)
DAV:   1    -0.360407064791E+03   -0.47965E-03   -0.31743E-02  5264   0.553E-01    0.156E-01
RMM:   2    -0.360407037108E+03    0.27684E-04   -0.26457E-03  7324   0.133E-01    0.650E-02
RMM:   3    -0.360406905088E+03    0.13202E-03   -0.53402E-04  7418   0.429E-02    0.456E-02
RMM:   4    -0.360406860510E+03    0.44579E-04   -0.17333E-04  7078   0.246E-02    0.241E-02
RMM:   5    -0.360406848054E+03    0.12456E-04   -0.51491E-05  4841   0.147E-02    0.168E-02
RMM:   6    -0.360406844865E+03    0.31888E-05   -0.17511E-05  2889   0.985E-03
  64 F= -.36040684E+03 E0= -.36041508E+03  d E =-.253428E-03
       N       E                     dE             d eps       ncg     rms          rms(c)
DAV:   1    -0.360408554339E+03   -0.17063E-02   -0.21400E-01  5068   0.144E+00    0.394E-01
RMM:   2    -0.360408339010E+03    0.21533E-03   -0.17145E-02  7300   0.344E-01    0.166E-01
RMM:   3    -0.360407387946E+03    0.95106E-03   -0.31154E-03  7459   0.108E-01    0.113E-01
RMM:   4    -0.360407106092E+03    0.28185E-03   -0.10046E-03  7504   0.604E-02    0.609E-02
RMM:   5    -0.360407032600E+03    0.73492E-04   -0.30467E-04  7305   0.363E-02    0.419E-02
RMM:   6    -0.360407031019E+03    0.15818E-05   -0.12705E-04  5916   0.186E-02    0.269E-02
RMM:   7    -0.360407025443E+03    0.55752E-05   -0.51340E-05  4249   0.149E-02
  65 F= -.36040703E+03 E0= -.36041520E+03  d E =-.434007E-03
       N       E                     dE             d eps       ncg     rms          rms(c)
DAV:   1    -0.360407058771E+03   -0.27752E-04   -0.33268E-03  5600   0.179E-01    0.547E-02
RMM:   2    -0.360407052702E+03    0.60687E-05   -0.31679E-04  7220   0.428E-02    0.256E-02
RMM:   3    -0.360407035851E+03    0.16851E-04   -0.64869E-05  5116   0.149E-02    0.181E-02
RMM:   4    -0.360407028786E+03    0.70649E-05   -0.18915E-05  2927   0.118E-02
  66 F= -.36040703E+03 E0= -.36041521E+03  d E =-.437350E-03
       N       E                     dE             d eps       ncg     rms          rms(c)
DAV:   1    -0.360407290248E+03   -0.25440E-03   -0.41006E-02  5104   0.629E-01    0.174E-01
RMM:   2    -0.360407232374E+03    0.57875E-04   -0.33778E-03  7293   0.153E-01    0.745E-02
RMM:   3    -0.360407043790E+03    0.18858E-03   -0.61144E-04  7314   0.477E-02    0.512E-02
RMM:   4    -0.360406989747E+03    0.54043E-04   -0.19271E-04  7142   0.267E-02    0.280E-02
RMM:   5    -0.360406977487E+03    0.12260E-04   -0.52062E-05  4772   0.170E-02    0.190E-02
RMM:   6    -0.360406982195E+03   -0.47073E-05   -0.19984E-05  2891   0.111E-02
  67 F= -.36040698E+03 E0= -.36041519E+03  d E =-.390758E-03
       N       E                     dE             d eps       ncg     rms          rms(c)
DAV:   1    -0.360407166219E+03   -0.18873E-03   -0.17384E-02  5240   0.408E-01    0.118E-01
RMM:   2    -0.360407154072E+03    0.12147E-04   -0.14502E-03  7286   0.984E-02    0.501E-02
RMM:   3    -0.360407073172E+03    0.80900E-04   -0.28052E-04  6677   0.316E-02    0.339E-02
RMM:   4    -0.360407045857E+03    0.27315E-04   -0.76481E-05  5698   0.190E-02    0.182E-02
RMM:   5    -0.360407037360E+03    0.84969E-05   -0.18331E-05  2597   0.126E-02
  68 F= -.36040704E+03 E0= -.36041523E+03  d E =-.445924E-03
       N       E                     dE             d eps       ncg     rms          rms(c)
DAV:   1    -0.360407043068E+03    0.27891E-05   -0.73764E-04  4936   0.857E-02    0.213E-02
RMM:   2    -0.360407042435E+03    0.63357E-06   -0.62059E-05  4972   0.196E-02
  69 F= -.36040704E+03 E0= -.36041523E+03  d E =-.450998E-03
       N       E                     dE             d eps       ncg     rms          rms(c)
DAV:   1    -0.360407120491E+03   -0.77423E-04   -0.12354E-02  4896   0.294E-01    0.269E-02
RMM:   2    -0.360407155106E+03   -0.34615E-04   -0.40395E-04  6549   0.554E-02    0.193E-02
RMM:   3    -0.360407138954E+03    0.16152E-04   -0.50262E-05  4215   0.156E-02    0.116E-02
RMM:   4    -0.360407137234E+03    0.17201E-05   -0.17516E-05  2983   0.949E-03
  70 F= -.36040714E+03 E0= -.36041530E+03  d E =-.947993E-04
       N       E                     dE             d eps       ncg     rms          rms(c)
DAV:   1    -0.360407213679E+03   -0.74725E-04   -0.11015E-01  4816   0.877E-01    0.769E-02
RMM:   2    -0.360407493771E+03   -0.28009E-03   -0.34155E-03  6973   0.164E-01    0.522E-02
RMM:   3    -0.360407418290E+03    0.75481E-04   -0.52882E-04  6854   0.429E-02    0.338E-02
RMM:   4    -0.360407412182E+03    0.61083E-05   -0.14425E-04  6002   0.172E-02    0.214E-02
RMM:   5    -0.360407408086E+03    0.40954E-05   -0.42713E-05  3980   0.113E-02
  71 F= -.36040741E+03 E0= -.36041549E+03  d E =-.365652E-03
       N       E                     dE             d eps       ncg     rms          rms(c)
DAV:   1    -0.360407005278E+03    0.40690E-03   -0.44005E-01  4816   0.176E+00    0.153E-01
RMM:   2    -0.360408113785E+03   -0.11085E-02   -0.13497E-02  7058   0.325E-01    0.104E-01
RMM:   3    -0.360407807007E+03    0.30678E-03   -0.19585E-03  7207   0.831E-02    0.667E-02
RMM:   4    -0.360407785748E+03    0.21259E-04   -0.53516E-04  7081   0.320E-02    0.422E-02
RMM:   5    -0.360407775970E+03    0.97784E-05   -0.20136E-04  6383   0.209E-02    0.224E-02
RMM:   6    -0.360407773250E+03    0.27200E-05   -0.84755E-05  5249   0.148E-02
  72 F= -.36040777E+03 E0= -.36041569E+03  d E =-.730815E-03
       N       E                     dE             d eps       ncg     rms          rms(c)
DAV:   1    -0.360404774941E+03    0.30010E-02   -0.17610E+00  4816   0.351E+00    0.308E-01
RMM:   2    -0.360409190486E+03   -0.44155E-02   -0.53989E-02  7061   0.648E-01    0.208E-01
RMM:   3    -0.360407915462E+03    0.12750E-02   -0.75143E-03  7239   0.165E-01    0.133E-01
RMM:   4    -0.360407821985E+03    0.93477E-04   -0.20492E-03  7862   0.634E-02    0.849E-02
RMM:   5    -0.360407780440E+03    0.41545E-04   -0.77972E-04  7373   0.438E-02    0.444E-02
RMM:   6    -0.360407770805E+03    0.96357E-05   -0.32224E-04  6665   0.288E-02    0.205E-02
RMM:   7    -0.360407768477E+03    0.23276E-05   -0.97754E-05  4493   0.155E-02
  73 F= -.36040777E+03 E0= -.36041535E+03  d E =-.726042E-03
       N       E                     dE             d eps       ncg     rms          rms(c)
DAV:   1    -0.360406725838E+03    0.10450E-02   -0.76261E-01  4816   0.231E+00    0.199E-01
RMM:   2    -0.360408544136E+03   -0.18183E-02   -0.22657E-02  6886   0.426E-01    0.132E-01
RMM:   3    -0.360407965734E+03    0.57840E-03   -0.28847E-03  7232   0.109E-01    0.850E-02
RMM:   4    -0.360407908947E+03    0.56787E-04   -0.74467E-04  7541   0.396E-02    0.533E-02
RMM:   5    -0.360407884267E+03    0.24680E-04   -0.27767E-04  6524   0.275E-02    0.279E-02
RMM:   6    -0.360407881056E+03    0.32114E-05   -0.11097E-04  6159   0.180E-02    0.130E-02
RMM:   7    -0.360407880042E+03    0.10136E-05   -0.30359E-05  3454   0.108E-02
  74 F= -.36040788E+03 E0= -.36041569E+03  d E =-.837608E-03
       N       E                     dE             d eps       ncg     rms          rms(c)
DAV:   1    -0.360408277627E+03   -0.39657E-03   -0.52361E-02  5192   0.678E-01    0.166E-01
RMM:   2    -0.360408187346E+03    0.90280E-04   -0.30934E-03  6316   0.149E-01    0.615E-02
RMM:   3    -0.360408100612E+03    0.86735E-04   -0.51487E-04  7150   0.489E-02    0.431E-02
RMM:   4    -0.360408060412E+03    0.40200E-04   -0.15363E-04  6931   0.246E-02    0.243E-02
RMM:   5    -0.360408054872E+03    0.55396E-05   -0.40206E-05  3606   0.141E-02
  75 F= -.36040805E+03 E0= -.36041581E+03  d E =-.174830E-03
       N       E                     dE             d eps       ncg     rms          rms(c)
DAV:   1    -0.360408373879E+03   -0.31347E-03   -0.70612E-02  5040   0.787E-01    0.188E-01
RMM:   2    -0.360408273656E+03    0.10022E-03   -0.42394E-03  6697   0.173E-01    0.698E-02
RMM:   3    -0.360408164191E+03    0.10946E-03   -0.72490E-04  7214   0.546E-02    0.508E-02
RMM:   4    -0.360408115720E+03    0.48471E-04   -0.21712E-04  6982   0.283E-02    0.310E-02
RMM:   5    -0.360408110336E+03    0.53848E-05   -0.75583E-05  5395   0.171E-02
  76 F= -.36040811E+03 E0= -.36041580E+03  d E =-.230293E-03
       N       E                     dE             d eps       ncg     rms          rms(c)
DAV:   1    -0.360408196303E+03   -0.80583E-04   -0.18989E-02  4928   0.383E-01    0.412E-02
RMM:   2    -0.360408250111E+03   -0.53808E-04   -0.76447E-04  7204   0.779E-02    0.271E-02
RMM:   3    -0.360408237526E+03    0.12585E-04   -0.11327E-04  5191   0.214E-02    0.195E-02
RMM:   4    -0.360408239682E+03   -0.21568E-05   -0.59484E-05  4637   0.135E-02
  77 F= -.36040824E+03 E0= -.36041592E+03  d E =-.129347E-03
       N       E                     dE             d eps       ncg     rms          rms(c)
DAV:   1    -0.360408183599E+03    0.53927E-04   -0.17059E-01  4816   0.115E+00    0.113E-01
RMM:   2    -0.360408590579E+03   -0.40698E-03   -0.64011E-03  7135   0.230E-01    0.706E-02
RMM:   3    -0.360408487812E+03    0.10277E-03   -0.95919E-04  7076   0.596E-02    0.490E-02
RMM:   4    -0.360408463124E+03    0.24688E-04   -0.30925E-04  6629   0.277E-02    0.271E-02
RMM:   5    -0.360408456395E+03    0.67290E-05   -0.11223E-04  5620   0.170E-02    0.127E-02
RMM:   6    -0.360408458666E+03   -0.22712E-05   -0.50403E-05  3927   0.119E-02
  78 F= -.36040846E+03 E0= -.36041611E+03  d E =-.348330E-03
