 vasp.5.4.1 05Feb16 (build Jan 29 2020 16:04:39) complex                        
  
 executed on           IFC91_ompi date 2020.05.18  17:05:50
 running on  160 total cores
 distrk:  each k-point on   20 cores,    8 groups
 distr:  one band on NCORES_PER_BAND=   5 cores,    4 groups


--------------------------------------------------------------------------------------------------------


 INCAR:
 POTCAR:    PAW_PBE Ta 17Jan2003                  
 POTCAR:    PAW_PBE Hf 20Jan2003                  
 POTCAR:    PAW_PBE Zr_sv 04Jan2005               
 POTCAR:    PAW_PBE Nb_sv 25May2007               

 ----------------------------------------------------------------------------- 
|                                                                             |
|           W    W    AA    RRRRR   N    N  II  N    N   GGGG   !!!           |
|           W    W   A  A   R    R  NN   N  II  NN   N  G    G  !!!           |
|           W    W  A    A  R    R  N N  N  II  N N  N  G       !!!           |
|           W WW W  AAAAAA  RRRRR   N  N N  II  N  N N  G  GGG   !            |
|           WW  WW  A    A  R   R   N   NN  II  N   NN  G    G                |
|           W    W  A    A  R    R  N    N  II  N    N   GGGG   !!!           |
|                                                                             |
|      For optimal performance we recommend to set                            |
|        NCORE= 4 - approx SQRT( number of cores)                             |
|      NCORE specifies how many cores store one orbital (NPAR=cpu/NCORE).     |
|      This setting can  greatly improve the performance of VASP for DFT.     |
|      The default, NPAR=number of cores might be grossly inefficient         |
|      on modern multi-core architectures or massively parallel machines.     |
|      Do your own testing !!!!                                               |
|      Unfortunately you need to use the default for GW and RPA calculations. |
|      (for HF NCORE is supported but not extensively tested yet)             |
|                                                                             |
 ----------------------------------------------------------------------------- 


 ----------------------------------------------------------------------------- 
|                                                                             |
|           W    W    AA    RRRRR   N    N  II  N    N   GGGG   !!!           |
|           W    W   A  A   R    R  NN   N  II  NN   N  G    G  !!!           |
|           W    W  A    A  R    R  N N  N  II  N N  N  G       !!!           |
|           W WW W  AAAAAA  RRRRR   N  N N  II  N  N N  G  GGG   !            |
|           WW  WW  A    A  R   R   N   NN  II  N   NN  G    G                |
|           W    W  A    A  R    R  N    N  II  N    N   GGGG   !!!           |
|                                                                             |
|      You have enabled k-point parallelism (KPAR>1).                         |
|      This developmental code was originally  written by Paul Kent at ORNL,  |
|      and carefully double checked in Vienna.                                |
|      GW as well as linear response parallelism added by Martijn Marsman     |
|      and Georg Kresse.                                                      |
|      Carefully verify results versus KPAR=1.                                |
|      Report problems to Paul Kent and Vienna.                               |
|                                                                             |
 ----------------------------------------------------------------------------- 

 POTCAR:    PAW_PBE Ta 17Jan2003                  
   VRHFIN =Ta:  6s5d                                                            
   LEXCH  = PE                                                                  
   EATOM  =   130.6506 eV,    9.6025 Ry                                         
                                                                                
   TITEL  = PAW_PBE Ta 17Jan2003                                                
   LULTRA =        F    use ultrasoft PP ?                                      
   IUNSCR =        1    unscreen: 0-lin 1-nonlin 2-no                           
   RPACOR =    2.330    partial core radius                                     
   POMASS =  180.948; ZVAL   =    5.000    mass and valenz                      
   RCORE  =    2.900    outmost cutoff radius                                   
   RWIGS  =    2.840; RWIGS  =    1.503    wigner-seitz radius (au A)           
   ENMAX  =  223.667; ENMIN  =  167.750 eV                                      
   RCLOC  =    2.205    cutoff for local pot                                    
   LCOR   =        T    correct aug charges                                     
   LPAW   =        T    paw PP                                                  
   EAUG   =  332.075                                                            
   DEXC   =    0.000                                                            
   RMAX   =    2.970    core radius for proj-oper                               
   RAUG   =    1.300    factor for augmentation sphere                          
   RDEP   =    3.060    radius for radial grids                                 
   RDEPT  =    2.354    core radius for aug-charge                              
                                                                                
   Atomic configuration                                                         
   16 entries                                                                   
     n  l   j            E        occ.                                          
     1  0  0.50    -67341.2807   2.0000                                         
     2  0  0.50    -11566.9376   2.0000                                         
     2  1  1.50    -10134.1182   6.0000                                         
     3  0  0.50     -2648.5620   2.0000                                         
     3  1  1.50     -2222.6012   6.0000                                         
     3  2  2.50     -1726.3120  10.0000                                         
     4  0  0.50      -538.6961   2.0000                                         
     4  1  1.50      -399.0129   6.0000                                         
     4  2  2.50      -220.3959  10.0000                                         
     4  3  3.50       -23.0374  14.0000                                         
     5  0  0.50       -71.2901   2.0000                                         
     5  1  1.50       -37.8225   6.0000                                         
     5  2  2.50        -2.6455   4.0000                                         
     6  0  0.50        -4.9623   1.0000                                         
     6  1  1.50        -1.3606   0.0000                                         
     5  3  2.50        -1.3606   0.0000                                         
   Description                                                                  
     l       E           TYP  RCUT    TYP  RCUT                                 
     2     -2.6455043     23  2.500                                             
     2     -0.6258895     23  2.500                                             
     0     -4.9622780     23  2.500                                             
     0      4.7531321     23  2.500                                             
     1     -1.3605826     23  2.900                                             
     1     27.2116520     23  2.900                                             
  local pseudopotential read in
  partial core-charges read in
  partial kinetic energy density read in
  atomic valenz-charges read in
  non local Contribution for L=           2  read in
    real space projection operators read in
  non local Contribution for L=           2  read in
    real space projection operators read in
  non local Contribution for L=           0  read in
    real space projection operators read in
  non local Contribution for L=           0  read in
    real space projection operators read in
  non local Contribution for L=           1  read in
    real space projection operators read in
  non local Contribution for L=           1  read in
    real space projection operators read in
    PAW grid and wavefunctions read in
 
   number of l-projection  operators is LMAX  =           6
   number of lm-projection operators is LMMAX =          18
 
 POTCAR:    PAW_PBE Hf 20Jan2003                  
   VRHFIN =Hf: 6s5d                                                             
   LEXCH  = PE                                                                  
   EATOM  =    75.9011 eV,    5.5786 Ry                                         
                                                                                
   TITEL  = PAW_PBE Hf 20Jan2003                                                
   LULTRA =        F    use ultrasoft PP ?                                      
   IUNSCR =        1    unscreen: 0-lin 1-nonlin 2-no                           
   RPACOR =    2.500    partial core radius                                     
   POMASS =  178.490; ZVAL   =    4.000    mass and valenz                      
   RCORE  =    3.000    outmost cutoff radius                                   
   RWIGS  =    3.050; RWIGS  =    1.614    wigner-seitz radius (au A)           
   ENMAX  =  220.334; ENMIN  =  165.250 eV                                      
   RCLOC  =    2.212    cutoff for local pot                                    
   LCOR   =        T    correct aug charges                                     
   LPAW   =        T    paw PP                                                  
   EAUG   =  335.116                                                            
   DEXC   =    0.000                                                            
   RMAX   =    3.077    core radius for proj-oper                               
   RAUG   =    1.300    factor for augmentation sphere                          
   RDEP   =    3.047    radius for radial grids                                 
   RDEPT  =    2.344    core radius for aug-charge                              
                                                                                
   Atomic configuration                                                         
   16 entries                                                                   
     n  l   j            E        occ.                                          
     1  0  0.50    -65259.4397   2.0000                                         
     2  0  0.50    -11157.9882   2.0000                                         
     2  1  1.50     -9795.2113   6.0000                                         
     3  0  0.50     -2541.4058   2.0000                                         
     3  1  1.50     -2134.4770   6.0000                                         
     3  2  2.50     -1653.5418  10.0000                                         
     4  0  0.50      -510.9575   2.0000                                         
     4  1  1.50      -377.5023   6.0000                                         
     4  2  2.50      -205.2085  10.0000                                         
     4  3  3.50       -15.4905  14.0000                                         
     5  0  0.50       -65.6020   2.0000                                         
     5  1  1.50       -34.2798   6.0000                                         
     5  2  2.50        -1.9877   3.0000                                         
     6  0  0.50        -4.7357   1.0000                                         
     6  1  1.50        -1.3606   0.0000                                         
     5  3  2.50        -1.3606   0.0000                                         
   Description                                                                  
     l       E           TYP  RCUT    TYP  RCUT                                 
     2     -1.9876627     23  2.500                                             
     2      0.0744703     23  2.500                                             
     0     -4.7356889     23  2.600                                             
     0      3.2364747     23  2.600                                             
     1     -1.3605826     23  3.000                                             
     1     27.2116520     23  3.000                                             
  local pseudopotential read in
  partial core-charges read in
  partial kinetic energy density read in
  atomic valenz-charges read in
  non local Contribution for L=           2  read in
    real space projection operators read in
  non local Contribution for L=           2  read in
    real space projection operators read in
  non local Contribution for L=           0  read in
    real space projection operators read in
  non local Contribution for L=           0  read in
    real space projection operators read in
  non local Contribution for L=           1  read in
    real space projection operators read in
  non local Contribution for L=           1  read in
    real space projection operators read in
    PAW grid and wavefunctions read in
 
   number of l-projection  operators is LMAX  =           6
   number of lm-projection operators is LMMAX =          18
 
 POTCAR:    PAW_PBE Zr_sv 04Jan2005               
   VRHFIN =Zr: 4s4p5s4d                                                         
   LEXCH  = PE                                                                  
   EATOM  =  1284.2219 eV,   94.3876 Ry                                         
                                                                                
   TITEL  = PAW_PBE Zr_sv 04Jan2005                                             
   LULTRA =        F    use ultrasoft PP ?                                      
   IUNSCR =        1    unscreen: 0-lin 1-nonlin 2-no                           
   RPACOR =    2.200    partial core radius                                     
   POMASS =   91.224; ZVAL   =   12.000    mass and valenz                      
   RCORE  =    2.500    outmost cutoff radius                                   
   RWIGS  =    3.070; RWIGS  =    1.625    wigner-seitz radius (au A)           
   ENMAX  =  229.898; ENMIN  =  172.424 eV                                      
   ICORE  =        3    local potential                                         
   LCOR   =        T    correct aug charges                                     
   LPAW   =        T    paw PP                                                  
   EAUG   =  461.257                                                            
   DEXC   =    0.000                                                            
   RMAX   =    2.561    core radius for proj-oper                               
   RAUG   =    1.300    factor for augmentation sphere                          
   RDEP   =    2.597    radius for radial grids                                 
   RDEPT  =    2.007    core radius for aug-charge                              
                                                                                
   Atomic configuration                                                         
   11 entries                                                                   
     n  l   j            E        occ.                                          
     1  0  0.50    -17820.0161   2.0000                                         
     2  0  0.50     -2467.0882   2.0000                                         
     2  1  1.50     -2199.6095   6.0000                                         
     3  0  0.50      -402.4863   2.0000                                         
     3  1  1.50      -315.3675   6.0000                                         
     3  2  2.50      -172.4472  10.0000                                         
     4  0  0.50       -52.4146   2.0000                                         
     5  0  0.50        -3.8421   1.0000                                         
     4  1  1.50       -30.5054   6.0000                                         
     4  2  2.50        -2.3341   3.0000                                         
     4  3  2.50        -1.3606   0.0000                                         
   Description                                                                  
     l       E           TYP  RCUT    TYP  RCUT                                 
     0    -52.4145962     23  2.200                                             
     0     -3.8421270     23  2.500                                             
     1    -30.5053914     23  2.200                                             
     1     20.4087390     23  2.200                                             
     2     -2.3340816     23  2.500                                             
     2     -0.6120942     23  2.500                                             
     3     -4.0817478     23  2.500                                             
  local pseudopotential read in
  partial core-charges read in
  partial kinetic energy density read in
  atomic valenz-charges read in
  non local Contribution for L=           0  read in
    real space projection operators read in
  non local Contribution for L=           0  read in
    real space projection operators read in
  non local Contribution for L=           1  read in
    real space projection operators read in
  non local Contribution for L=           1  read in
    real space projection operators read in
  non local Contribution for L=           2  read in
    real space projection operators read in
  non local Contribution for L=           2  read in
    real space projection operators read in
    PAW grid and wavefunctions read in
 
   number of l-projection  operators is LMAX  =           6
   number of lm-projection operators is LMMAX =          18
 
 POTCAR:    PAW_PBE Nb_sv 25May2007               
   VRHFIN =Nb: 4p5s4d                                                           
   LEXCH  = PE                                                                  
   EATOM  =  1555.1913 eV,  114.3033 Ry                                         
                                                                                
   TITEL  = PAW_PBE Nb_sv 25May2007                                             
   LULTRA =        F    use ultrasoft PP ?                                      
   IUNSCR =        1    unscreen: 0-lin 1-nonlin 2-no                           
   RPACOR =    1.800    partial core radius                                     
   POMASS =   92.910; ZVAL   =   13.000    mass and valenz                      
   RCORE  =    2.400    outmost cutoff radius                                   
   RWIGS  =    2.400; RWIGS  =    1.270    wigner-seitz radius (au A)           
   ENMAX  =  293.235; ENMIN  =  219.927 eV                                      
   ICORE  =        3    local potential                                         
   LCOR   =        T    correct aug charges                                     
   LPAW   =        T    paw PP                                                  
   EAUG   =  455.659                                                            
   DEXC   =    0.000                                                            
   RMAX   =    2.456    core radius for proj-oper                               
   RAUG   =    1.300    factor for augmentation sphere                          
   RDEP   =    2.451    radius for radial grids                                 
   RDEPT  =    1.956    core radius for aug-charge                              
                                                                                
   Atomic configuration                                                         
   11 entries                                                                   
     n  l   j            E        occ.                                          
     1  0  0.50    -18805.2457   2.0000                                         
     2  0  0.50     -2630.2869   2.0000                                         
     2  1  1.50     -2348.4046   6.0000                                         
     3  0  0.50      -438.8757   2.0000                                         
     3  1  1.50      -346.7588   6.0000                                         
     3  2  2.50      -196.2560  10.0000                                         
     4  0  0.50       -58.3859   2.0000                                         
     5  0  0.50        -3.9816   1.0000                                         
     4  1  1.50       -34.5141   6.0000                                         
     4  2  2.50        -3.0408   4.0000                                         
     4  3  2.50        -1.3606   0.0000                                         
   Description                                                                  
     l       E           TYP  RCUT    TYP  RCUT                                 
     0    -58.3859094     23  2.200                                             
     0     -3.9816262     23  2.200                                             
     1    -34.5140738     23  2.200                                             
     1     13.6058260     23  2.200                                             
     2     -3.0408010     23  2.200                                             
     2     -0.1283038     23  2.200                                             
     3     -1.3605826     23  2.400                                             
  local pseudopotential read in
  partial core-charges read in
  partial kinetic energy density read in
  atomic valenz-charges read in
  non local Contribution for L=           0  read in
    real space projection operators read in
  non local Contribution for L=           0  read in
    real space projection operators read in
  non local Contribution for L=           1  read in
    real space projection operators read in
  non local Contribution for L=           1  read in
    real space projection operators read in
  non local Contribution for L=           2  read in
    real space projection operators read in
  non local Contribution for L=           2  read in
    real space projection operators read in
    PAW grid and wavefunctions read in
 
   number of l-projection  operators is LMAX  =           6
   number of lm-projection operators is LMMAX =          18
 
 Optimization of the real space projectors (new method)

 maximal supplied QI-value         = 12.85
 optimisation between [QCUT,QGAM] = [  8.87, 17.73] = [ 22.01, 88.06] Ry 
 Optimized for a Real-space Cutoff    1.90 Angstroem

   l    n(q)    QCUT    max X(q) W(low)/X(q) W(high)/X(q)  e(spline) 
   2      9     8.867    62.315    0.23E-03    0.62E-04    0.11E-05
   2      9     8.867    52.185    0.23E-03    0.62E-04    0.11E-05
   0     10     8.867   103.837    0.15E-04    0.23E-04    0.98E-07
   0     10     8.867    59.728    0.12E-04    0.21E-04    0.89E-07
   1     10     8.867    13.958    0.50E-04    0.22E-04    0.14E-06
   1     10     8.867     8.441    0.36E-04    0.19E-04    0.98E-07
 Optimization of the real space projectors (new method)

 maximal supplied QI-value         = 12.47
 optimisation between [QCUT,QGAM] = [  8.86, 17.71] = [ 21.96, 87.83] Ry 
 Optimized for a Real-space Cutoff    1.90 Angstroem

   l    n(q)    QCUT    max X(q) W(low)/X(q) W(high)/X(q)  e(spline) 
   2      9     8.855    48.111    0.22E-03    0.80E-04    0.10E-05
   2      9     8.855    40.545    0.21E-03    0.76E-04    0.95E-06
   0     10     8.855   121.658    0.27E-04    0.12E-04    0.11E-06
   0     10     8.855    71.177    0.22E-04    0.11E-04    0.99E-07
   1     10     8.855    14.183    0.65E-04    0.10E-03    0.98E-07
   1     10     8.855     8.257    0.43E-04    0.73E-04    0.72E-07
 Optimization of the real space projectors (new method)

 maximal supplied QI-value         = 15.12
 optimisation between [QCUT,QGAM] = [  8.77, 17.69] = [ 21.53, 87.61] Ry 
 Optimized for a Real-space Cutoff    1.74 Angstroem

   l    n(q)    QCUT    max X(q) W(low)/X(q) W(high)/X(q)  e(spline) 
   0      9     8.768    12.107    0.28E-04    0.53E-06    0.29E-07
   0      9     8.768     9.948    0.36E-04    0.50E-05    0.64E-07
   1      9     8.768     3.563    0.14E-04    0.16E-04    0.88E-07
   1      9     8.768     4.524    0.21E-03    0.33E-03    0.19E-06
   2      8     8.768    87.261    0.19E-03    0.25E-03    0.24E-06
   2      8     8.768    70.950    0.19E-03    0.24E-03    0.24E-06
 Optimization of the real space projectors (new method)

 maximal supplied QI-value         = 15.68
 optimisation between [QCUT,QGAM] = [  8.78, 17.72] = [ 21.60, 87.97] Ry 
 Optimized for a Real-space Cutoff    1.96 Angstroem

   l    n(q)    QCUT    max X(q) W(low)/X(q) W(high)/X(q)  e(spline) 
   0     10     8.783    10.201    0.29E-04    0.25E-05    0.69E-07
   0     10     8.783     8.174    0.45E-04    0.57E-05    0.14E-06
   1     10     8.783     3.488    0.76E-05    0.24E-04    0.95E-07
   1     10     8.783     4.917    0.78E-04    0.14E-03    0.46E-06
   2      9     8.783   153.744    0.22E-03    0.34E-04    0.15E-05
   2      9     8.783   126.342    0.22E-03    0.35E-04    0.15E-05
  PAW_PBE Ta 17Jan2003                  :
 energy of atom  1       EATOM= -130.6506
 kinetic energy error for atom=    0.0121 (will be added to EATOM!!)
  PAW_PBE Hf 20Jan2003                  :
 energy of atom  2       EATOM=  -75.9011
 kinetic energy error for atom=    0.0071 (will be added to EATOM!!)
  PAW_PBE Zr_sv 04Jan2005               :
 energy of atom  3       EATOM=-1284.2219
 kinetic energy error for atom=    0.0483 (will be added to EATOM!!)
  PAW_PBE Nb_sv 25May2007               :
 energy of atom  4       EATOM=-1555.1913
 kinetic energy error for atom=    0.0655 (will be added to EATOM!!)
 
 
 POSCAR: generated by pypospack                  
  positions in direct lattice
  velocities in cartesian coordinates
 exchange correlation table for  LEXCH =        8
   RHO(1)=    0.500       N(1)  =     2000
   RHO(2)=  100.500       N(2)  =     4000
 


--------------------------------------------------------------------------------------------------------


 ion  position               nearest neighbor table
   1  0.261  0.793  0.758-   2 2.82   4 2.92  12 2.93  14 2.95   8 2.95   6 3.00   9 3.02  15 3.11
                            10 3.17   7 3.32   7 3.62
   2  0.489  0.980  0.032-   1 2.82  16 2.83   7 2.88   3 2.88   5 3.00   6 3.02  12 3.09  11 3.10
                            13 3.16  14 3.32   4 3.33   4 3.61
   3  0.743  0.724  0.232-   2 2.88  14 2.92   4 2.93   9 2.98  15 2.98  12 3.02  10 3.03   8 3.09
                            11 3.24   7 3.28
   4  0.009  0.978  0.035-  16 2.87   1 2.92   3 2.93   7 2.97   5 3.02   6 3.07  11 3.10   8 3.13
                            13 3.19   9 3.29   2 3.33   2 3.61   9 3.86   8 3.88
   5  0.251  0.263  0.245-   2 3.00   4 3.02  14 3.06  12 3.06   9 3.10  15 3.11  10 3.13   8 3.13
                            16 3.30   6 3.43  11 3.45  11 3.48   6 3.61
   6  0.253  0.216  0.758-   1 3.00   2 3.02   4 3.07  14 3.10  12 3.11   8 3.12   9 3.13  15 3.22
                            10 3.24   5 3.43  13 3.43  13 3.51   5 3.61
   7  0.740  0.789  0.768-   2 2.88   4 2.97  12 2.99  14 3.00   8 3.02   9 3.04  13 3.13  15 3.15
                            10 3.21   3 3.28   1 3.32   1 3.62
   8  0.000  0.979  0.481-   1 2.95   7 3.02  16 3.02   3 3.09   6 3.12   4 3.13   5 3.13  13 3.17
                            11 3.18  10 3.27  12 3.47  12 3.47  10 3.85   4 3.88
   9  0.010  0.519  0.975-  16 2.96   3 2.98   1 3.02   7 3.04   5 3.10   6 3.13  11 3.14  13 3.15
                            10 3.25   4 3.29  14 3.31  14 3.63  10 3.76   4 3.86
  10  0.004  0.519  0.512-  16 2.96   3 3.03   5 3.13  11 3.17   1 3.17   7 3.21  13 3.22   6 3.24
                             9 3.25   8 3.27  15 3.42  15 3.51   9 3.76   8 3.85
  11  0.749  0.268  0.239-   4 3.10   2 3.10  14 3.10  12 3.11  15 3.13   9 3.14  10 3.17   8 3.18
                             3 3.24  13 3.38   5 3.45   5 3.48  13 3.65
  12  0.500  0.985  0.472-   1 2.93  16 2.96   7 2.99   3 3.02   5 3.06   2 3.09  11 3.11   6 3.11
                            13 3.16  15 3.34   8 3.47   8 3.47  15 3.79
  13  0.747  0.229  0.758-   7 3.13  14 3.13   9 3.15   2 3.16  12 3.16   8 3.17  15 3.18   4 3.19
                            10 3.22  11 3.38   6 3.43   6 3.51  11 3.65
  14  0.487  0.516  0.979-  16 2.88   3 2.92   1 2.95   7 3.00   5 3.06   6 3.10  11 3.10  13 3.13
                            15 3.28   9 3.31   2 3.32   9 3.63  15 3.72
  15  0.498  0.516  0.510-  16 2.90   3 2.98   1 3.11   5 3.11  11 3.13   7 3.15  13 3.18   6 3.22
                            14 3.28  12 3.34  10 3.42  10 3.51  14 3.72  12 3.79
  16  0.258  0.727  0.245-   2 2.83   4 2.87  14 2.88  15 2.90  10 2.96  12 2.96   9 2.96   8 3.02
                             5 3.30
 
  LATTYP: Found a triclinic cell.
 ALAT       =     9.9205645989
 B/A-ratio  =     0.6991345869
 C/A-ratio  =     0.7060123119
 COS(alpha) =     0.0004255508
 COS(beta)  =     0.0053282354
 COS(gamma) =     0.6978669012
  
  Lattice vectors:
  
 A1 = (  -6.9294503299,   7.0992680646,   0.0267026891)
 A2 = (  -6.9358070164,  -0.0060762717,   0.0014627545)
 A3 = (  -0.0015247445,   0.0243174485,   7.0039983681)


Analysis of symmetry for initial positions (statically):
=====================================================================
 Subroutine PRICEL returns:
 Original cell was already a primitive cell.
 

 Routine SETGRP: Setting up the symmetry group for a 
 triclinic supercell.


 Subroutine GETGRP returns: Found  1 space group operations
 (whereof  1 operations were pure point group operations)
 out of a pool of  2 trial point group operations.


The static configuration has the point symmetry C_1 .


Analysis of symmetry for dynamics (positions and initial velocities):
=====================================================================
 Subroutine PRICEL returns:
 Original cell was already a primitive cell.
 

 Routine SETGRP: Setting up the symmetry group for a 
 triclinic supercell.


 Subroutine GETGRP returns: Found  1 space group operations
 (whereof  1 operations were pure point group operations)
 out of a pool of  2 trial point group operations.


The dynamic configuration has the point symmetry C_1 .


 Subroutine INISYM returns: Found  1 space group operations
 (whereof  1 operations are pure point group operations),
 and found     1 'primitive' translations

 
 
 KPOINTS: k-points                                

Automatic generation of k-mesh.
Space group operators:
 irot       det(A)        alpha          n_x          n_y          n_z        tau_x        tau_y        tau_z
    1     1.000000     0.000001     1.000000     0.000000     0.000000     0.000000     0.000000     0.000000
 
 Subroutine IBZKPT returns following result:
 ===========================================
 
 Found     14 irreducible k-points:
 
 Following reciprocal coordinates:
            Coordinates               Weight
  0.000000  0.000000  0.000000      1.000000
  0.333333 -0.000000 -0.000000      2.000000
  0.000000  0.333333  0.000000      2.000000
  0.333333  0.333333  0.000000      2.000000
 -0.333333  0.333333  0.000000      2.000000
 -0.000000  0.000000  0.333333      2.000000
  0.333333  0.000000  0.333333      2.000000
 -0.333333  0.000000  0.333333      2.000000
  0.000000  0.333333  0.333333      2.000000
  0.333333  0.333333  0.333333      2.000000
 -0.333333  0.333333  0.333333      2.000000
 -0.000000 -0.333333  0.333333      2.000000
  0.333333 -0.333333  0.333333      2.000000
 -0.333333 -0.333333  0.333333      2.000000
 
 Following cartesian coordinates:
            Coordinates               Weight
  0.000000  0.000000  0.000000      1.000000
  0.239737 -0.000215  0.000053      2.000000
 -0.000205  0.234020 -0.000813      2.000000
  0.239532  0.233805 -0.000760      2.000000
 -0.239942  0.234235 -0.000865      2.000000
  0.000051 -0.000843  0.237406      2.000000
  0.239788 -0.001058  0.237459      2.000000
 -0.239686 -0.000629  0.237353      2.000000
 -0.000154  0.233177  0.236593      2.000000
  0.239583  0.232962  0.236646      2.000000
 -0.239892  0.233391  0.236540      2.000000
  0.000256 -0.234863  0.238218      2.000000
  0.239993 -0.235078  0.238271      2.000000
 -0.239481 -0.234649  0.238166      2.000000
 


--------------------------------------------------------------------------------------------------------




 Dimension of arrays:
   k-points           NKPTS =     14   k-points in BZ     NKDIM =     14   number of bands    NBANDS=     84
   number of dos      NEDOS =    301   number of ions     NIONS =     16
   non local maximal  LDIM  =      6   non local SUM 2l+1 LMDIM =     18
   total plane-waves  NPLWV =  64000
   max r-space proj   IRMAX =   5902   max aug-charges    IRDMAX=  12820
   dimension x,y,z NGX =    40 NGY =   40 NGZ =   40
   dimension x,y,z NGXF=    80 NGYF=   80 NGZF=   80
   support grid    NGXF=    80 NGYF=   80 NGZF=   80
   ions per type =               3   4   8   1
 NGX,Y,Z   is equivalent  to a cutoff of   9.59,  9.36,  9.49 a.u.
 NGXF,Y,Z  is equivalent  to a cutoff of  19.18, 18.72, 18.99 a.u.


 I would recommend the setting:
   dimension x,y,z NGX =    39 NGY =   40 NGZ =   40
 SYSTEM =  automatically generated by mexm         
 POSCAR =  generated by pypospack                  

 Startparameter for this run:
   NWRITE =      2    write-flag & timer
   PREC   = accura    normal or accurate (medium, high low for compatibility)
   ISTART =      0    job   : 0-new  1-cont  2-samecut
   ICHARG =      2    charge: 1-file 2-atom 10-const
   ISPIN  =      1    spin polarized calculation?
   LNONCOLLINEAR =      F non collinear calculations
   LSORBIT =      F    spin-orbit coupling
   INIWAV =      1    electr: 0-lowe 1-rand  2-diag
   LASPH  =      F    aspherical Exc in radial PAW
   METAGGA=      F    non-selfconsistent MetaGGA calc.

 Electronic Relaxation 1
   ENCUT  =  300.0 eV  22.05 Ry    4.70 a.u.   9.80 10.03  9.89*2*pi/ulx,y,z
   ENINI  =  300.0     initial cutoff
   ENAUG  =  461.3 eV  augmentation charge cutoff
   NELM   =     70;   NELMIN=  2; NELMDL= -5     # of ELM steps 
   EDIFF  = 0.1E-04   stopping-criterion for ELM
   LREAL  =      T    real-space projection
   NLSPLINE    = F    spline interpolate recip. space projectors
   LCOMPAT=      F    compatible to vasp.4.4
   GGA_COMPAT  = T    GGA compatible to vasp.4.4-vasp.4.6
   LMAXPAW     = -100 max onsite density
   LMAXMIX     =    2 max onsite mixed and CHGCAR
   VOSKOWN=      0    Vosko Wilk Nusair interpolation
   ROPT   =   -0.00025  -0.00025  -0.00025  -0.00025
 Ionic relaxation
   EDIFFG = -.1E-01   stopping-criterion for IOM
   NSW    =    300    number of steps for IOM
   NBLOCK =      1;   KBLOCK =    300    inner block; outer block 
   IBRION =      2    ionic relax: 0-MD 1-quasi-New 2-CG
   NFREE  =      1    steps in history (QN), initial steepest desc. (CG)
   ISIF   =      3    stress and relaxation
   IWAVPR =     11    prediction:  0-non 1-charg 2-wave 3-comb
   ISYM   =      1    0-nonsym 1-usesym 2-fastsym
   LCORR  =      T    Harris-Foulkes like correction to forces

   POTIM  = 0.1500    time-step for ionic-motion
   TEIN   =    0.0    initial temperature
   TEBEG  =    0.0;   TEEND  =   0.0 temperature during run
   SMASS  =  -3.00    Nose mass-parameter (am)
   estimated Nose-frequenzy (Omega)   =  0.10E-29 period in steps =****** mass=  -0.110E-26a.u.
   SCALEE = 1.0000    scale energy and forces
   NPACO  =    256;   APACO  = 16.0  distance and # of slots for P.C.
   PSTRESS=    0.0 pullay stress

  Mass of Ions in am
   POMASS = 180.95178.49 91.22 92.91
  Ionic Valenz
   ZVAL   =   5.00  4.00 12.00 13.00
  Atomic Wigner-Seitz radii
   RWIGS  =  -1.00 -1.00 -1.00 -1.00
  virtual crystal weights 
   VCA    =   1.00  1.00  1.00  1.00
   NELECT =     140.0000    total number of electrons
   NUPDOWN=      -1.0000    fix difference up-down

 DOS related values:
   EMIN   =  10.00;   EMAX   =-10.00  energy-range for DOS
   EFERMI =   0.00
   ISMEAR =     1;   SIGMA  =   0.15  broadening in eV -4-tet -1-fermi 0-gaus

 Electronic relaxation 2 (details)
   IALGO  =     68    algorithm
   LDIAG  =      T    sub-space diagonalisation (order eigenvalues)
   LSUBROT=      F    optimize rotation matrix (better conditioning)
   TURBO    =      0    0=normal 1=particle mesh
   IRESTART =      0    0=no restart 2=restart with 2 vectors
   NREBOOT  =      0    no. of reboots
   NMIN     =      0    reboot dimension
   EREF     =   0.00    reference energy to select bands
   IMIX   =      4    mixing-type and parameters
     AMIX     =   0.40;   BMIX     =  1.00
     AMIX_MAG =   1.60;   BMIX_MAG =  1.00
     AMIN     =   0.10
     WC   =   100.;   INIMIX=   1;  MIXPRE=   1;  MAXMIX= -45

 Intra band minimization:
   WEIMIN = 0.0010     energy-eigenvalue tresh-hold
   EBREAK =  0.30E-07  absolut break condition
   DEPER  =   0.30     relativ break condition  

   TIME   =   0.40     timestep for ELM

  volume/ion in A,a.u.               =      21.57       145.58
  Fermi-wavevector in a.u.,A,eV,Ry     =   1.211835  2.290035 19.980743  1.468543
  Thomas-Fermi vector in A             =   2.347338
 
 Write flags
   LWAVE  =      F    write WAVECAR
   LCHARG =      F    write CHGCAR
   LVTOT  =      F    write LOCPOT, total local potential
   LVHAR  =      F    write LOCPOT, Hartree potential only
   LELF   =      F    write electronic localiz. function (ELF)
   LORBIT =      0    0 simple, 1 ext, 2 COOP (PROOUT)


 Dipole corrections
   LMONO  =      F    monopole corrections only (constant potential shift)
   LDIPOL =      F    correct potential (dipole corrections)
   IDIPOL =      0    1-x, 2-y, 3-z, 4-all directions 
   EPSILON=  1.0000000 bulk dielectric constant

 Exchange correlation treatment:
   GGA     =    --    GGA type
   LEXCH   =     8    internal setting for exchange type
   VOSKOWN=      0    Vosko Wilk Nusair interpolation
   LHFCALC =     F    Hartree Fock is set to
   LHFONE  =     F    Hartree Fock one center treatment
   AEXX    =    0.0000 exact exchange contribution

 Linear response parameters
   LEPSILON=     F    determine dielectric tensor
   LRPA    =     F    only Hartree local field effects (RPA)
   LNABLA  =     F    use nabla operator in PAW spheres
   LVEL    =     F    velocity operator in full k-point grid
   LINTERFAST=   F  fast interpolation
   KINTER  =     0    interpolate to denser k-point grid
   CSHIFT  =0.1000    complex shift for real part using Kramers Kronig
   OMEGAMAX=  -1.0    maximum frequency
   DEG_THRESHOLD= 0.2000000E-02 threshold for treating states as degnerate
   RTIME   =    0.100 relaxation time in fs

 Orbital magnetization related:
   ORBITALMAG=     F  switch on orbital magnetization
   LCHIMAG   =     F  perturbation theory with respect to B field
   DQ        =  0.001000  dq finite difference perturbation B field



--------------------------------------------------------------------------------------------------------


 conjugate gradient relaxation of ions
 charge density and potential will be updated during run
 non-spin polarized calculation
 RMM-DIIS sequential band-by-band and
  variant of blocked Davidson during initial phase
 perform sub-space diagonalisation
    before iterative eigenvector-optimisation
 modified Broyden-mixing scheme, WC =      100.0
 initial mixing is a Kerker type mixing with AMIX =  0.4000 and BMIX =      1.0000
 Hartree-type preconditioning will be used
 using additional bands           14
 real space projection scheme for non local part
 use partial core corrections
 calculate Harris-corrections to forces 
   (improved forces if not selfconsistent)
 use gradient corrections 
 use of overlap-Matrix (Vanderbilt PP)
 Methfessel and Paxton  Order N= 1 SIGMA  =   0.15


--------------------------------------------------------------------------------------------------------


  energy-cutoff  :      300.00
  volume of cell :      345.16
      direct lattice vectors                 reciprocal lattice vectors
     6.935807016  0.006076272 -0.001462754     0.144179449 -0.000129101  0.000031836
     0.006356686  7.105344336  0.025239935    -0.000123402  0.140740979 -0.000488671
    -0.001524744  0.024317449  7.003998368     0.000030556 -0.000507208  0.142777358

  length of vectors
     6.935809832  7.105392009  7.004040748     0.144179510  0.140741882  0.142778262


 
 k-points in units of 2pi/SCALE and weight: k-points                                
   0.00000000  0.00000000  0.00000000       0.037
   0.23973726 -0.00021467  0.00005294       0.074
  -0.00020519  0.23401988 -0.00081255       0.074
   0.23953207  0.23380521 -0.00075961       0.074
  -0.23994245  0.23423454 -0.00086548       0.074
   0.00005081 -0.00084337  0.23740591       0.074
   0.23978807 -0.00105804  0.23745884       0.074
  -0.23968645 -0.00062870  0.23735297       0.074
  -0.00015438  0.23317651  0.23659336       0.074
   0.23958288  0.23296184  0.23664630       0.074
  -0.23989164  0.23339117  0.23654042       0.074
   0.00025600 -0.23486325  0.23821845       0.074
   0.23999326 -0.23507791  0.23827139       0.074
  -0.23948126 -0.23464858  0.23816552       0.074
 
 k-points in reciprocal lattice and weights: k-points                                
   0.00000000  0.00000000  0.00000000       0.037
   0.33333333 -0.00000000 -0.00000000       0.074
   0.00000000  0.33333333  0.00000000       0.074
   0.33333333  0.33333333  0.00000000       0.074
  -0.33333333  0.33333333  0.00000000       0.074
  -0.00000000  0.00000000  0.33333333       0.074
   0.33333333  0.00000000  0.33333333       0.074
  -0.33333333  0.00000000  0.33333333       0.074
   0.00000000  0.33333333  0.33333333       0.074
   0.33333333  0.33333333  0.33333333       0.074
  -0.33333333  0.33333333  0.33333333       0.074
  -0.00000000 -0.33333333  0.33333333       0.074
   0.33333333 -0.33333333  0.33333333       0.074
  -0.33333333 -0.33333333  0.33333333       0.074
 
 position of ions in fractional coordinates (direct lattice) 
   0.26089878  0.79349290  0.75844908
   0.48923955  0.97963484  0.03150408
   0.74274454  0.72445058  0.23214143
   0.00949424  0.97813714  0.03485104
   0.25102620  0.26251558  0.24457761
   0.25314676  0.21632461  0.75813271
   0.73953691  0.78867177  0.76834952
   0.00049288  0.97877415  0.48123991
   0.01038318  0.51874609  0.97515256
   0.00417278  0.51907507  0.51150205
   0.74876702  0.26802237  0.23895610
   0.50034415  0.98453945  0.47243318
   0.74708045  0.22885701  0.75827527
   0.48741472  0.51559554  0.97913021
   0.49750789  0.51570457  0.51038377
   0.25774994  0.72745834  0.24492148
 
 position of ions in cartesian coordinates  (Angst):
   1.81343111  5.65806912  5.33182218
   3.39945032  6.96438170  0.24466479
   5.15578397  5.15762904  1.64311685
   0.07201481  6.95090636  0.26877083
   1.74236512  1.87273643  1.71927985
   1.75599622  1.55703485  5.31504999
   5.13312708  5.62696239  5.40034307
   0.00890655  6.96623287  3.39530703
   0.07382639  3.70964588  6.84304489
   0.03146130  3.70067091  3.59565485
   5.19464295  1.91475177  1.67931771
   3.47582850  7.01002039  3.33303908
   5.18190442  1.64908665  5.31564230
   3.38239896  3.69025546  6.87012703
   3.45311869  3.67969275  3.58701573
   1.79195462  5.17636399  1.73341359
 


--------------------------------------------------------------------------------------------------------


 k-point  1 :   0.0000 0.0000 0.0000  plane waves:    4019
 k-point  2 :   0.3333-0.0000-0.0000  plane waves:    4068
 k-point  3 :   0.0000 0.3333 0.0000  plane waves:    4076
 k-point  4 :   0.3333 0.3333 0.0000  plane waves:    4079
 k-point  5 :  -0.3333 0.3333 0.0000  plane waves:    4072
 k-point  6 :  -0.0000 0.0000 0.3333  plane waves:    4063
 k-point  7 :   0.3333 0.0000 0.3333  plane waves:    4068
 k-point  8 :  -0.3333 0.0000 0.3333  plane waves:    4070
 k-point  9 :   0.0000 0.3333 0.3333  plane waves:    4090
 k-point 10 :   0.3333 0.3333 0.3333  plane waves:    4072
 k-point 11 :  -0.3333 0.3333 0.3333  plane waves:    4074
 k-point 12 :  -0.0000-0.3333 0.3333  plane waves:    4100
 k-point 13 :   0.3333-0.3333 0.3333  plane waves:    4068
 k-point 14 :  -0.3333-0.3333 0.3333  plane waves:    4070

 maximum and minimum number of plane-waves per node :       832      793

 maximum number of plane-waves:      4100
 maximum index in each direction: 
   IXMAX=   10   IYMAX=   10   IZMAX=    9
   IXMIN=  -10   IYMIN=  -10   IZMIN=  -10

 WARNING: aliasing errors must be expected set NGX to  42 to avoid them
 WARNING: aliasing errors must be expected set NGY to  42 to avoid them
 NGZ is ok and might be reduce to  40
 aliasing errors are usually negligible using standard VASP settings
 and one can safely disregard these warnings

 real space projection operators:
  total allocation   :      10394.58 KBytes
  max/ min on nodes  :       2114.86       2026.27


 parallel 3D FFT for wavefunctions:
    minimum data exchange during FFTs selected (reduces bandwidth)
 parallel 3D FFT for charge:
    minimum data exchange during FFTs selected (reduces bandwidth)


 total amount of memory used by VASP on root node    41999. kBytes
========================================================================

   base      :      30000. kBytes
   nonlr-proj:       4086. kBytes
   fftplans  :       1260. kBytes
   grid      :       2396. kBytes
   one-center:         62. kBytes
   wavefun   :       4195. kBytes
 
     INWAV:  cpu time    0.0000: real time    0.0002
 Broyden mixing: mesh for mixing (old mesh)
   NGX = 19   NGY = 21   NGZ = 19
  (NGX  = 80   NGY  = 80   NGZ  = 80)
  gives a total of   7581 points

 initial charge density was supplied:
 charge density of overlapping atoms calculated
 number of electron     140.0000000 magnetization 
 keeping initial charge density in first step


--------------------------------------------------------------------------------------------------------


 Maximum index for non-local projection operator         1136
 Maximum index for augmentation-charges          632 (set IRDMAX)


--------------------------------------------------------------------------------------------------------


 First call to EWALD:  gamma=   0.253
 Maximum number of real-space cells 3x 3x 3
 Maximum number of reciprocal cells 3x 3x 3

 FEWALD executed in parallel
    FEWALD:  cpu time    0.1738: real time    0.1750


----------------------------------------- Iteration    1(   1)  ---------------------------------------


    POTLOK:  cpu time    0.0121: real time    0.0122
    SETDIJ:  cpu time    0.0147: real time    0.0149
     EDDAV:  cpu time    0.1941: real time    0.1983
       DOS:  cpu time    0.0025: real time    0.0026
    --------------------------------------------
      LOOP:  cpu time    0.2264: real time    0.2514

 eigenvalue-minimisations  :  2608
 total energy-change (2. order) : 0.8948387E+03  (-0.5330108E+04)
 number of electron     140.0000000 magnetization 
 augmentation part      140.0000000 magnetization 

 Free energy of the ion-electron system (eV)
  ---------------------------------------------------
  alpha Z        PSCENC =       674.65128953
  Ewald energy   TEWEN  =     -9827.93924913
  -Hartree energ DENC   =     -2931.98962077
  -exchange      EXHF   =         0.00000000
  -V(xc)+E(xc)   XCENC  =        43.69536647
  PAW double counting   =     10328.32033343    -9700.96547995
  entropy T*S    EENTRO =        -0.00311369
  eigenvalues    EBANDS =      -214.93693679
  atomic energy  EATOM  =     12524.00607526
  Solvation  Ediel_sol  =         0.00000000
  ---------------------------------------------------
  free energy    TOTEN  =       894.83866436 eV

  energy without entropy =      894.84177806  energy(sigma->0) =      894.83970226


--------------------------------------------------------------------------------------------------------




----------------------------------------- Iteration    1(   2)  ---------------------------------------


     EDDAV:  cpu time    0.1714: real time    0.1725
       DOS:  cpu time    0.0010: real time    0.0010
    --------------------------------------------
      LOOP:  cpu time    0.1728: real time    0.1909

 eigenvalue-minimisations  :  2596
 total energy-change (2. order) :-0.9246155E+03  (-0.8956686E+03)
 number of electron     140.0000000 magnetization 
 augmentation part      140.0000000 magnetization 

 Free energy of the ion-electron system (eV)
  ---------------------------------------------------
  alpha Z        PSCENC =       674.65128953
  Ewald energy   TEWEN  =     -9827.93924913
  -Hartree energ DENC   =     -2931.98962077
  -exchange      EXHF   =         0.00000000
  -V(xc)+E(xc)   XCENC  =        43.69536647
  PAW double counting   =     10328.32033343    -9700.96547995
  entropy T*S    EENTRO =        -0.00368088
  eigenvalues    EBANDS =     -1139.55189078
  atomic energy  EATOM  =     12524.00607526
  Solvation  Ediel_sol  =         0.00000000
  ---------------------------------------------------
  free energy    TOTEN  =       -29.77685682 eV

  energy without entropy =      -29.77317594  energy(sigma->0) =      -29.77562986


--------------------------------------------------------------------------------------------------------




----------------------------------------- Iteration    1(   3)  ---------------------------------------


     EDDAV:  cpu time    0.3363: real time    0.3426
       DOS:  cpu time    0.0008: real time    0.0008
    --------------------------------------------
      LOOP:  cpu time    0.3374: real time    0.3481

 eigenvalue-minimisations  :  4168
 total energy-change (2. order) :-0.1136814E+03  (-0.1085439E+03)
 number of electron     140.0000000 magnetization 
 augmentation part      140.0000000 magnetization 

 Free energy of the ion-electron system (eV)
  ---------------------------------------------------
  alpha Z        PSCENC =       674.65128953
  Ewald energy   TEWEN  =     -9827.93924913
  -Hartree energ DENC   =     -2931.98962077
  -exchange      EXHF   =         0.00000000
  -V(xc)+E(xc)   XCENC  =        43.69536647
  PAW double counting   =     10328.32033343    -9700.96547995
  entropy T*S    EENTRO =        -0.00409173
  eigenvalues    EBANDS =     -1253.23290806
  atomic energy  EATOM  =     12524.00607526
  Solvation  Ediel_sol  =         0.00000000
  ---------------------------------------------------
  free energy    TOTEN  =      -143.45828495 eV

  energy without entropy =     -143.45419322  energy(sigma->0) =     -143.45692104


--------------------------------------------------------------------------------------------------------




----------------------------------------- Iteration    1(   4)  ---------------------------------------


     EDDAV:  cpu time    0.2527: real time    0.2578
       DOS:  cpu time    0.0008: real time    0.0008
    --------------------------------------------
      LOOP:  cpu time    0.2543: real time    0.2643

 eigenvalue-minimisations  :  3640
 total energy-change (2. order) :-0.1414583E+02  (-0.1365084E+02)
 number of electron     140.0000000 magnetization 
 augmentation part      140.0000000 magnetization 

 Free energy of the ion-electron system (eV)
  ---------------------------------------------------
  alpha Z        PSCENC =       674.65128953
  Ewald energy   TEWEN  =     -9827.93924913
  -Hartree energ DENC   =     -2931.98962077
  -exchange      EXHF   =         0.00000000
  -V(xc)+E(xc)   XCENC  =        43.69536647
  PAW double counting   =     10328.32033343    -9700.96547995
  entropy T*S    EENTRO =         0.00611189
  eigenvalues    EBANDS =     -1267.38894521
  atomic energy  EATOM  =     12524.00607526
  Solvation  Ediel_sol  =         0.00000000
  ---------------------------------------------------
  free energy    TOTEN  =      -157.60411847 eV

  energy without entropy =     -157.61023037  energy(sigma->0) =     -157.60615577


--------------------------------------------------------------------------------------------------------




----------------------------------------- Iteration    1(   5)  ---------------------------------------


     EDDAV:  cpu time    0.2774: real time    0.2831
       DOS:  cpu time    0.0008: real time    0.0008
    CHARGE:  cpu time    0.0113: real time    0.0113
    MIXING:  cpu time    0.0011: real time    0.0012
    --------------------------------------------
      LOOP:  cpu time    0.2910: real time    0.3013

 eigenvalue-minimisations  :  3760
 total energy-change (2. order) :-0.1267141E+01  (-0.1244990E+01)
 number of electron     139.9999996 magnetization 
 augmentation part        4.4632713 magnetization 

 Broyden mixing:
  rms(total) = 0.42956E+01    rms(broyden)= 0.42954E+01
  rms(prec ) = 0.47330E+01
  weight for this iteration     100.00

 Free energy of the ion-electron system (eV)
  ---------------------------------------------------
  alpha Z        PSCENC =       674.65128953
  Ewald energy   TEWEN  =     -9827.93924913
  -Hartree energ DENC   =     -2931.98962077
  -exchange      EXHF   =         0.00000000
  -V(xc)+E(xc)   XCENC  =        43.69536647
  PAW double counting   =     10328.32033343    -9700.96547995
  entropy T*S    EENTRO =         0.01110453
  eigenvalues    EBANDS =     -1268.66107892
  atomic energy  EATOM  =     12524.00607526
  Solvation  Ediel_sol  =         0.00000000
  ---------------------------------------------------
  free energy    TOTEN  =      -158.87125954 eV

  energy without entropy =     -158.88236407  energy(sigma->0) =     -158.87496105


--------------------------------------------------------------------------------------------------------




----------------------------------------- Iteration    1(   6)  ---------------------------------------


    POTLOK:  cpu time    0.0112: real time    0.0121
    SETDIJ:  cpu time    0.0019: real time    0.0021
    EDDIAG:  cpu time    0.0213: real time    0.0282
  RMM-DIIS:  cpu time    0.1245: real time    0.1252
    ORTHCH:  cpu time    0.0024: real time    0.0024
       DOS:  cpu time    0.0009: real time    0.0009
    CHARGE:  cpu time    0.0092: real time    0.0093
    MIXING:  cpu time    0.0010: real time    0.0010
    --------------------------------------------
      LOOP:  cpu time    0.1730: real time    0.1875

 eigenvalue-minimisations  :  3308
 total energy-change (2. order) : 0.4393516E+01  (-0.1618871E+01)
 number of electron     139.9999996 magnetization 
 augmentation part        4.7295581 magnetization 

 Broyden mixing:
  rms(total) = 0.19794E+01    rms(broyden)= 0.19793E+01
  rms(prec ) = 0.24180E+01
  weight for this iteration     100.00

 eigenvalues of (default mixing * dielectric matrix)
  average eigenvalue GAMMA=   1.7312
  1.7312

 Free energy of the ion-electron system (eV)
  ---------------------------------------------------
  alpha Z        PSCENC =       674.65128953
  Ewald energy   TEWEN  =     -9827.93924913
  -Hartree energ DENC   =     -2838.34777566
  -exchange      EXHF   =         0.00000000
  -V(xc)+E(xc)   XCENC  =        40.75482170
  PAW double counting   =     13036.07355544   -12414.16377171
  entropy T*S    EENTRO =         0.01322329
  eigenvalues    EBANDS =     -1349.52591251
  atomic energy  EATOM  =     12524.00607526
  Solvation  Ediel_sol  =         0.00000000
  ---------------------------------------------------
  free energy    TOTEN  =      -154.47774378 eV

  energy without entropy =     -154.49096708  energy(sigma->0) =     -154.48215155


--------------------------------------------------------------------------------------------------------




----------------------------------------- Iteration    1(   7)  ---------------------------------------


    POTLOK:  cpu time    0.0107: real time    0.0109
    SETDIJ:  cpu time    0.0016: real time    0.0016
    EDDIAG:  cpu time    0.0212: real time    0.0213
  RMM-DIIS:  cpu time    0.1256: real time    0.1265
    ORTHCH:  cpu time    0.0024: real time    0.0024
       DOS:  cpu time    0.0008: real time    0.0008
    CHARGE:  cpu time    0.0089: real time    0.0090
    MIXING:  cpu time    0.0006: real time    0.0006
    --------------------------------------------
      LOOP:  cpu time    0.1723: real time    0.1780

 eigenvalue-minimisations  :  3374
 total energy-change (2. order) : 0.8153591E+00  (-0.9820433E+00)
 number of electron     139.9999996 magnetization 
 augmentation part        4.7857971 magnetization 

 Broyden mixing:
  rms(total) = 0.80515E+00    rms(broyden)= 0.80493E+00
  rms(prec ) = 0.16025E+01
  weight for this iteration     100.00

 eigenvalues of (default mixing * dielectric matrix)
  average eigenvalue GAMMA=   1.1911
  1.7948  0.5873

 Free energy of the ion-electron system (eV)
  ---------------------------------------------------
  alpha Z        PSCENC =       674.65128953
  Ewald energy   TEWEN  =     -9827.93924913
  -Hartree energ DENC   =     -2810.96898200
  -exchange      EXHF   =         0.00000000
  -V(xc)+E(xc)   XCENC  =        40.60611298
  PAW double counting   =     14928.05253742   -14303.19849617
  entropy T*S    EENTRO =         0.01751832
  eigenvalues    EBANDS =     -1378.88919092
  atomic energy  EATOM  =     12524.00607526
  Solvation  Ediel_sol  =         0.00000000
  ---------------------------------------------------
  free energy    TOTEN  =      -153.66238472 eV

  energy without entropy =     -153.67990303  energy(sigma->0) =     -153.66822416


--------------------------------------------------------------------------------------------------------




----------------------------------------- Iteration    1(   8)  ---------------------------------------


    POTLOK:  cpu time    0.0107: real time    0.0108
    SETDIJ:  cpu time    0.0016: real time    0.0016
    EDDIAG:  cpu time    0.0210: real time    0.0211
  RMM-DIIS:  cpu time    0.1252: real time    0.1260
    ORTHCH:  cpu time    0.0024: real time    0.0024
       DOS:  cpu time    0.0008: real time    0.0008
    CHARGE:  cpu time    0.0089: real time    0.0089
    MIXING:  cpu time    0.0006: real time    0.0006
    --------------------------------------------
      LOOP:  cpu time    0.1715: real time    0.1772

 eigenvalue-minimisations  :  3294
 total energy-change (2. order) : 0.1419874E+01  (-0.2448522E+00)
 number of electron     139.9999996 magnetization 
 augmentation part        4.7580269 magnetization 

 Broyden mixing:
  rms(total) = 0.20849E+00    rms(broyden)= 0.20834E+00
  rms(prec ) = 0.30220E+00
  weight for this iteration     100.00

 eigenvalues of (default mixing * dielectric matrix)
  average eigenvalue GAMMA=   1.2312
  1.8091  1.3241  0.5605

 Free energy of the ion-electron system (eV)
  ---------------------------------------------------
  alpha Z        PSCENC =       674.65128953
  Ewald energy   TEWEN  =     -9827.93924913
  -Hartree energ DENC   =     -2794.05222094
  -exchange      EXHF   =         0.00000000
  -V(xc)+E(xc)   XCENC  =        40.50282867
  PAW double counting   =     15991.95537903   -15365.14980494
  entropy T*S    EENTRO =         0.02663761
  eigenvalues    EBANDS =     -1396.24344536
  atomic energy  EATOM  =     12524.00607526
  Solvation  Ediel_sol  =         0.00000000
  ---------------------------------------------------
  free energy    TOTEN  =      -152.24251026 eV

  energy without entropy =     -152.26914787  energy(sigma->0) =     -152.25138946


--------------------------------------------------------------------------------------------------------




----------------------------------------- Iteration    1(   9)  ---------------------------------------


    POTLOK:  cpu time    0.0107: real time    0.0108
    SETDIJ:  cpu time    0.0016: real time    0.0016
    EDDIAG:  cpu time    0.0209: real time    0.0209
  RMM-DIIS:  cpu time    0.1332: real time    0.1339
    ORTHCH:  cpu time    0.0024: real time    0.0024
       DOS:  cpu time    0.0009: real time    0.0009
    CHARGE:  cpu time    0.0088: real time    0.0089
    MIXING:  cpu time    0.0006: real time    0.0006
    --------------------------------------------
      LOOP:  cpu time    0.1794: real time    0.1857

 eigenvalue-minimisations  :  3553
 total energy-change (2. order) :-0.8561036E-02  (-0.6847771E-01)
 number of electron     139.9999996 magnetization 
 augmentation part        4.6872351 magnetization 

 Broyden mixing:
  rms(total) = 0.13816E+00    rms(broyden)= 0.13813E+00
  rms(prec ) = 0.23158E+00
  weight for this iteration     100.00

 eigenvalues of (default mixing * dielectric matrix)
  average eigenvalue GAMMA=   1.2822
  1.8757  1.8757  0.7919  0.5855

 Free energy of the ion-electron system (eV)
  ---------------------------------------------------
  alpha Z        PSCENC =       674.65128953
  Ewald energy   TEWEN  =     -9827.93924913
  -Hartree energ DENC   =     -2795.57742250
  -exchange      EXHF   =         0.00000000
  -V(xc)+E(xc)   XCENC  =        40.79229435
  PAW double counting   =     16132.00162659   -15502.27736842
  entropy T*S    EENTRO =         0.02675481
  eigenvalues    EBANDS =     -1397.93507179
  atomic energy  EATOM  =     12524.00607526
  Solvation  Ediel_sol  =         0.00000000
  ---------------------------------------------------
  free energy    TOTEN  =      -152.25107130 eV

  energy without entropy =     -152.27782611  energy(sigma->0) =     -152.25998957


--------------------------------------------------------------------------------------------------------




----------------------------------------- Iteration    1(  10)  ---------------------------------------


    POTLOK:  cpu time    0.0107: real time    0.0107
    SETDIJ:  cpu time    0.0016: real time    0.0016
    EDDIAG:  cpu time    0.0210: real time    0.0211
  RMM-DIIS:  cpu time    0.1315: real time    0.1321
    ORTHCH:  cpu time    0.0023: real time    0.0024
       DOS:  cpu time    0.0008: real time    0.0008
    CHARGE:  cpu time    0.0089: real time    0.0089
    MIXING:  cpu time    0.0007: real time    0.0007
    --------------------------------------------
      LOOP:  cpu time    0.1780: real time    0.1833

 eigenvalue-minimisations  :  3503
 total energy-change (2. order) : 0.1325321E-01  (-0.1097445E-01)
 number of electron     139.9999996 magnetization 
 augmentation part        4.6478860 magnetization 

 Broyden mixing:
  rms(total) = 0.69003E-01    rms(broyden)= 0.68981E-01
  rms(prec ) = 0.12150E+00
  weight for this iteration     100.00

 eigenvalues of (default mixing * dielectric matrix)
  average eigenvalue GAMMA=   1.2781
  2.2591  1.9478  1.0322  0.5758  0.5758

 Free energy of the ion-electron system (eV)
  ---------------------------------------------------
  alpha Z        PSCENC =       674.65128953
  Ewald energy   TEWEN  =     -9827.93924913
  -Hartree energ DENC   =     -2800.14547685
  -exchange      EXHF   =         0.00000000
  -V(xc)+E(xc)   XCENC  =        41.11194466
  PAW double counting   =     16203.90904243   -15571.60223371
  entropy T*S    EENTRO =         0.02811593
  eigenvalues    EBANDS =     -1396.25732620
  atomic energy  EATOM  =     12524.00607526
  Solvation  Ediel_sol  =         0.00000000
  ---------------------------------------------------
  free energy    TOTEN  =      -152.23781809 eV

  energy without entropy =     -152.26593402  energy(sigma->0) =     -152.24719007


--------------------------------------------------------------------------------------------------------




----------------------------------------- Iteration    1(  11)  ---------------------------------------


    POTLOK:  cpu time    0.0106: real time    0.0107
    SETDIJ:  cpu time    0.0016: real time    0.0016
    EDDIAG:  cpu time    0.0210: real time    0.0212
  RMM-DIIS:  cpu time    0.1332: real time    0.1339
    ORTHCH:  cpu time    0.0023: real time    0.0024
       DOS:  cpu time    0.0008: real time    0.0008
    CHARGE:  cpu time    0.0536: real time    0.0538
    MIXING:  cpu time    0.0007: real time    0.0007
    --------------------------------------------
      LOOP:  cpu time    0.2244: real time    0.2302

 eigenvalue-minimisations  :  3516
 total energy-change (2. order) : 0.3014955E-02  (-0.4324159E-02)
 number of electron     139.9999996 magnetization 
 augmentation part        4.6359016 magnetization 

 Broyden mixing:
  rms(total) = 0.26165E-01    rms(broyden)= 0.26115E-01
  rms(prec ) = 0.57107E-01
  weight for this iteration     100.00

 eigenvalues of (default mixing * dielectric matrix)
  average eigenvalue GAMMA=   1.1955
  2.2145  1.8801  0.9786  0.9786  0.5751  0.5464

 Free energy of the ion-electron system (eV)
  ---------------------------------------------------
  alpha Z        PSCENC =       674.65128953
  Ewald energy   TEWEN  =     -9827.93924913
  -Hartree energ DENC   =     -2803.09622310
  -exchange      EXHF   =         0.00000000
  -V(xc)+E(xc)   XCENC  =        41.33589306
  PAW double counting   =     16280.01285264   -15645.54848713
  entropy T*S    EENTRO =         0.02749458
  eigenvalues    EBANDS =     -1395.68444884
  atomic energy  EATOM  =     12524.00607526
  Solvation  Ediel_sol  =         0.00000000
  ---------------------------------------------------
  free energy    TOTEN  =      -152.23480314 eV

  energy without entropy =     -152.26229772  energy(sigma->0) =     -152.24396800


--------------------------------------------------------------------------------------------------------




----------------------------------------- Iteration    1(  12)  ---------------------------------------


    POTLOK:  cpu time    0.0107: real time    0.0108
    SETDIJ:  cpu time    0.0021: real time    0.0021
    EDDIAG:  cpu time    0.0296: real time    0.0297
  RMM-DIIS:  cpu time    0.1509: real time    0.1515
    ORTHCH:  cpu time    0.0035: real time    0.0036
       DOS:  cpu time    0.0018: real time    0.0018
    CHARGE:  cpu time    0.0109: real time    0.0109
    MIXING:  cpu time    0.0008: real time    0.0008
    --------------------------------------------
      LOOP:  cpu time    0.2108: real time    0.2158

 eigenvalue-minimisations  :  3598
 total energy-change (2. order) : 0.9839538E-03  (-0.9389476E-03)
 number of electron     139.9999996 magnetization 
 augmentation part        4.6312712 magnetization 

 Broyden mixing:
  rms(total) = 0.14840E-01    rms(broyden)= 0.14834E-01
  rms(prec ) = 0.20548E-01
  weight for this iteration     100.00

 eigenvalues of (default mixing * dielectric matrix)
  average eigenvalue GAMMA=   1.2358
  2.0847  1.8932  1.8932  0.8217  0.8217  0.6104  0.5256

 Free energy of the ion-electron system (eV)
  ---------------------------------------------------
  alpha Z        PSCENC =       674.65128953
  Ewald energy   TEWEN  =     -9827.93924913
  -Hartree energ DENC   =     -2803.22037565
  -exchange      EXHF   =         0.00000000
  -V(xc)+E(xc)   XCENC  =        41.34067749
  PAW double counting   =     16304.10756051   -15669.40314193
  entropy T*S    EENTRO =         0.02781961
  eigenvalues    EBANDS =     -1395.80447487
  atomic energy  EATOM  =     12524.00607526
  Solvation  Ediel_sol  =         0.00000000
  ---------------------------------------------------
  free energy    TOTEN  =      -152.23381918 eV

  energy without entropy =     -152.26163879  energy(sigma->0) =     -152.24309239


--------------------------------------------------------------------------------------------------------




----------------------------------------- Iteration    1(  13)  ---------------------------------------


    POTLOK:  cpu time    0.0119: real time    0.0119
    SETDIJ:  cpu time    0.0036: real time    0.0036
    EDDIAG:  cpu time    0.0263: real time    0.0264
  RMM-DIIS:  cpu time    0.1376: real time    0.1380
    ORTHCH:  cpu time    0.0034: real time    0.0034
       DOS:  cpu time    0.0011: real time    0.0011
    CHARGE:  cpu time    0.0100: real time    0.0100
    MIXING:  cpu time    0.0016: real time    0.0016
    --------------------------------------------
      LOOP:  cpu time    0.1958: real time    0.2007

 eigenvalue-minimisations  :  3628
 total energy-change (2. order) :-0.2640636E-03  (-0.4736338E-03)
 number of electron     139.9999996 magnetization 
 augmentation part        4.6292337 magnetization 

 Broyden mixing:
  rms(total) = 0.88189E-02    rms(broyden)= 0.88175E-02
  rms(prec ) = 0.13434E-01
  weight for this iteration     100.00

 eigenvalues of (default mixing * dielectric matrix)
  average eigenvalue GAMMA=   1.2737
  2.7698  2.0580  1.7548  1.1231  0.7095  0.7095  0.5324  0.5324

 Free energy of the ion-electron system (eV)
  ---------------------------------------------------
  alpha Z        PSCENC =       674.65128953
  Ewald energy   TEWEN  =     -9827.93924913
  -Hartree energ DENC   =     -2802.87340874
  -exchange      EXHF   =         0.00000000
  -V(xc)+E(xc)   XCENC  =        41.32063791
  PAW double counting   =     16320.62746083   -15685.80054121
  entropy T*S    EENTRO =         0.02783288
  eigenvalues    EBANDS =     -1396.25418058
  atomic energy  EATOM  =     12524.00607526
  Solvation  Ediel_sol  =         0.00000000
  ---------------------------------------------------
  free energy    TOTEN  =      -152.23408325 eV

  energy without entropy =     -152.26191613  energy(sigma->0) =     -152.24336087


--------------------------------------------------------------------------------------------------------




----------------------------------------- Iteration    1(  14)  ---------------------------------------


    POTLOK:  cpu time    0.0122: real time    0.0122
    SETDIJ:  cpu time    0.0016: real time    0.0016
    EDDIAG:  cpu time    0.0228: real time    0.0230
  RMM-DIIS:  cpu time    0.1386: real time    0.1390
    ORTHCH:  cpu time    0.0034: real time    0.0034
       DOS:  cpu time    0.0010: real time    0.0010
    CHARGE:  cpu time    0.0088: real time    0.0088
    MIXING:  cpu time    0.0009: real time    0.0009
    --------------------------------------------
      LOOP:  cpu time    0.1897: real time    0.1955

 eigenvalue-minimisations  :  3612
 total energy-change (2. order) :-0.1000766E-03  (-0.1423416E-03)
 number of electron     139.9999996 magnetization 
 augmentation part        4.6278194 magnetization 

 Broyden mixing:
  rms(total) = 0.22011E-02    rms(broyden)= 0.21992E-02
  rms(prec ) = 0.56356E-02
  weight for this iteration     100.00

 eigenvalues of (default mixing * dielectric matrix)
  average eigenvalue GAMMA=   1.2214
  2.7018  1.9776  1.8198  1.0226  1.0226  0.6949  0.6949  0.5293  0.5293

 Free energy of the ion-electron system (eV)
  ---------------------------------------------------
  alpha Z        PSCENC =       674.65128953
  Ewald energy   TEWEN  =     -9827.93924913
  -Hartree energ DENC   =     -2803.19604783
  -exchange      EXHF   =         0.00000000
  -V(xc)+E(xc)   XCENC  =        41.33118923
  PAW double counting   =     16336.63678956   -15701.51234896
  entropy T*S    EENTRO =         0.02783320
  eigenvalues    EBANDS =     -1396.23971418
  atomic energy  EATOM  =     12524.00607526
  Solvation  Ediel_sol  =         0.00000000
  ---------------------------------------------------
  free energy    TOTEN  =      -152.23418332 eV

  energy without entropy =     -152.26201653  energy(sigma->0) =     -152.24346106


--------------------------------------------------------------------------------------------------------




----------------------------------------- Iteration    1(  15)  ---------------------------------------


    POTLOK:  cpu time    0.0110: real time    0.0110
    SETDIJ:  cpu time    0.1846: real time    0.1852
    EDDIAG:  cpu time    0.0464: real time    0.0465
  RMM-DIIS:  cpu time    0.1195: real time    0.1199
    ORTHCH:  cpu time    0.0048: real time    0.0049
       DOS:  cpu time    0.0012: real time    0.0012
    CHARGE:  cpu time    0.0090: real time    0.0090
    MIXING:  cpu time    0.0008: real time    0.0008
    --------------------------------------------
      LOOP:  cpu time    0.3778: real time    0.3833

 eigenvalue-minimisations  :  2826
 total energy-change (2. order) :-0.5276610E-04  (-0.7550390E-04)
 number of electron     139.9999996 magnetization 
 augmentation part        4.6267767 magnetization 

 Broyden mixing:
  rms(total) = 0.11776E-02    rms(broyden)= 0.11755E-02
  rms(prec ) = 0.17065E-02
  weight for this iteration     100.00

 eigenvalues of (default mixing * dielectric matrix)
  average eigenvalue GAMMA=   1.2347
  2.7152  1.9301  1.9301  1.6919  0.9992  0.7259  0.7259  0.5921  0.5182  0.5182

 Free energy of the ion-electron system (eV)
  ---------------------------------------------------
  alpha Z        PSCENC =       674.65128953
  Ewald energy   TEWEN  =     -9827.93924913
  -Hartree energ DENC   =     -2803.26423378
  -exchange      EXHF   =         0.00000000
  -V(xc)+E(xc)   XCENC  =        41.33419047
  PAW double counting   =     16339.20262522   -15704.03266616
  entropy T*S    EENTRO =         0.02785155
  eigenvalues    EBANDS =     -1396.22011905
  atomic energy  EATOM  =     12524.00607526
  Solvation  Ediel_sol  =         0.00000000
  ---------------------------------------------------
  free energy    TOTEN  =      -152.23423609 eV

  energy without entropy =     -152.26208764  energy(sigma->0) =     -152.24351994


--------------------------------------------------------------------------------------------------------




----------------------------------------- Iteration    1(  16)  ---------------------------------------


    POTLOK:  cpu time    0.0107: real time    0.0107
    SETDIJ:  cpu time    0.0020: real time    0.0020
    EDDIAG:  cpu time    0.0254: real time    0.0254
  RMM-DIIS:  cpu time    0.1850: real time    0.1859
    ORTHCH:  cpu time    0.0024: real time    0.0024
       DOS:  cpu time    0.0011: real time    0.0011
    CHARGE:  cpu time    0.0105: real time    0.0105
    MIXING:  cpu time    0.0009: real time    0.0009
    --------------------------------------------
      LOOP:  cpu time    0.2382: real time    0.2437

 eigenvalue-minimisations  :  2739
 total energy-change (2. order) :-0.2378547E-04  (-0.3071087E-04)
 number of electron     139.9999996 magnetization 
 augmentation part        4.6261262 magnetization 

 Broyden mixing:
  rms(total) = 0.69245E-03    rms(broyden)= 0.69179E-03
  rms(prec ) = 0.10506E-02
  weight for this iteration     100.00

 eigenvalues of (default mixing * dielectric matrix)
  average eigenvalue GAMMA=   1.2468
  2.8639  2.1508  2.1508  1.6355  1.1009  0.7658  0.7658  0.5264  0.5264  0.6143
  0.6143

 Free energy of the ion-electron system (eV)
  ---------------------------------------------------
  alpha Z        PSCENC =       674.65128953
  Ewald energy   TEWEN  =     -9827.93924913
  -Hartree energ DENC   =     -2803.30480743
  -exchange      EXHF   =         0.00000000
  -V(xc)+E(xc)   XCENC  =        41.33554997
  PAW double counting   =     16340.33168974   -15705.14025104
  entropy T*S    EENTRO =         0.02786250
  eigenvalues    EBANDS =     -1396.20241928
  atomic energy  EATOM  =     12524.00607526
  Solvation  Ediel_sol  =         0.00000000
  ---------------------------------------------------
  free energy    TOTEN  =      -152.23425987 eV

  energy without entropy =     -152.26212237  energy(sigma->0) =     -152.24354737


--------------------------------------------------------------------------------------------------------




----------------------------------------- Iteration    1(  17)  ---------------------------------------


    POTLOK:  cpu time    0.0107: real time    0.0107
    SETDIJ:  cpu time    0.0123: real time    0.0125
    EDDIAG:  cpu time    0.0421: real time    0.0441
  RMM-DIIS:  cpu time    0.0918: real time    0.0929
    ORTHCH:  cpu time    0.0024: real time    0.0024
       DOS:  cpu time    0.0016: real time    0.0016
    CHARGE:  cpu time    0.0100: real time    0.0102
    MIXING:  cpu time    0.0009: real time    0.0009
    --------------------------------------------
      LOOP:  cpu time    0.1722: real time    0.1802

 eigenvalue-minimisations  :  2207
 total energy-change (2. order) :-0.9447596E-05  (-0.1280787E-04)
 number of electron     139.9999996 magnetization 
 augmentation part        4.6260451 magnetization 

 Broyden mixing:
  rms(total) = 0.34857E-03    rms(broyden)= 0.34838E-03
  rms(prec ) = 0.53755E-03
  weight for this iteration     100.00

 eigenvalues of (default mixing * dielectric matrix)
  average eigenvalue GAMMA=   1.2444
  2.9622  2.2674  2.1073  1.6380  1.0712  1.0712  0.8072  0.6909  0.6909  0.5801
  0.5233  0.5233

 Free energy of the ion-electron system (eV)
  ---------------------------------------------------
  alpha Z        PSCENC =       674.65128953
  Ewald energy   TEWEN  =     -9827.93924913
  -Hartree energ DENC   =     -2803.32091527
  -exchange      EXHF   =         0.00000000
  -V(xc)+E(xc)   XCENC  =        41.33561932
  PAW double counting   =     16341.34091152   -15706.13370849
  entropy T*S    EENTRO =         0.02785865
  eigenvalues    EBANDS =     -1396.20215072
  atomic energy  EATOM  =     12524.00607526
  Solvation  Ediel_sol  =         0.00000000
  ---------------------------------------------------
  free energy    TOTEN  =      -152.23426932 eV

  energy without entropy =     -152.26212797  energy(sigma->0) =     -152.24355554


--------------------------------------------------------------------------------------------------------




----------------------------------------- Iteration    1(  18)  ---------------------------------------


    POTLOK:  cpu time    0.0109: real time    0.0111
    SETDIJ:  cpu time    0.0038: real time    0.0038
    EDDIAG:  cpu time    0.0572: real time    0.0588
  RMM-DIIS:  cpu time    0.0781: real time    0.0804
    ORTHCH:  cpu time    0.0026: real time    0.0027
       DOS:  cpu time    0.0007: real time    0.0008
    --------------------------------------------
      LOOP:  cpu time    0.1536: real time    0.1623

 eigenvalue-minimisations  :  1945
 total energy-change (2. order) :-0.2276940E-05  (-0.4248157E-05)
 number of electron     139.9999996 magnetization 
 augmentation part        4.6260451 magnetization 

 Free energy of the ion-electron system (eV)
  ---------------------------------------------------
  alpha Z        PSCENC =       674.65128953
  Ewald energy   TEWEN  =     -9827.93924913
  -Hartree energ DENC   =     -2803.32379176
  -exchange      EXHF   =         0.00000000
  -V(xc)+E(xc)   XCENC  =        41.33525083
  PAW double counting   =     16341.75840569   -15706.54336880
  entropy T*S    EENTRO =         0.02785804
  eigenvalues    EBANDS =     -1396.20674127
  atomic energy  EATOM  =     12524.00607526
  Solvation  Ediel_sol  =         0.00000000
  ---------------------------------------------------
  free energy    TOTEN  =      -152.23427160 eV

  energy without entropy =     -152.26212964  energy(sigma->0) =     -152.24355761


--------------------------------------------------------------------------------------------------------




 average (electrostatic) potential at core
  the test charge radii are     1.2538  1.2481  1.0638  1.0703
  (the norm of the test charge is              1.0000)
       1 -33.5654       2 -33.5054       3 -33.5720       4 -33.0197       5 -33.3024
       6 -33.5003       7 -33.1873       8 -75.6418       9 -75.5558      10 -75.8150
      11 -75.8330      12 -75.5793      13 -75.8650      14 -75.4239      15 -75.6402
      16 -80.4125
 
 
 
 E-fermi :   7.5689     XC(G=0): -11.3770     alpha+bet :-14.9145


 k-point     1 :       0.0000    0.0000    0.0000
[...]
     41       4.5007      2.00000
     42       4.5396      2.00000
     43       4.7243      2.00000
     44       4.9149      2.00000
     45       4.9848      2.00000
     46       5.0355      2.00000
     47       5.0978      2.00000
     48       5.3019      2.00000
     49       5.3300      2.00000
     50       5.4033      2.00000
     51       5.6126      2.00000
     52       5.7281      2.00000
     53       5.8001      2.00000
     54       6.1447      2.00000
     55       6.2518      2.00000
     56       6.3315      2.00000
     57       6.4145      2.00000
     58       6.5631      2.00000
     59       6.5916      2.00000
     60       6.7244      2.00000
     61       6.7407      2.00000
     62       7.0147      2.00000
     63       7.0451      2.00000
     64       7.0699      2.00001
     65       7.1388      2.00011
     66       7.2529      2.00486
     67       7.2874      2.01157
     68       7.3366      2.03136
     69       7.5586      1.46620
     70       7.7435     -0.03673
     71       7.7767     -0.06975
     72       7.8177     -0.06052
     73       7.9252     -0.00937
     74       7.9767     -0.00233
     75       8.0169     -0.00065
     76       8.0688     -0.00010
     77       8.0905     -0.00004
     78       8.2182     -0.00000
     79       8.2762     -0.00000
     80       8.3529     -0.00000
     81       8.4958     -0.00000
     82       8.9774     -0.00000
     83       9.0975     -0.00000
     84       9.2520     -0.00000

 k-point    13 :       0.3333   -0.3333    0.3333
  band No.  band energies     occupation 
      1     -46.5477      2.00000
      2     -40.9026      2.00000
      3     -40.8750      2.00000
      4     -40.8394      2.00000
      5     -40.6960      2.00000
      6     -40.6896      2.00000
      7     -40.6456      2.00000
      8     -40.6188      2.00000
      9     -40.5077      2.00000
     10     -22.7332      2.00000
     11     -22.6978      2.00000
     12     -22.6863      2.00000
     13     -19.1940      2.00000
     14     -19.1199      2.00000
     15     -19.1173      2.00000
     16     -19.0927      2.00000
     17     -19.0835      2.00000
     18     -19.0273      2.00000
     19     -18.9735      2.00000
     20     -18.8929      2.00000
     21     -18.8522      2.00000
     22     -18.8340      2.00000
     23     -18.7964      2.00000
     24     -18.7884      2.00000
     25     -18.7619      2.00000
     26     -18.7493      2.00000
     27     -18.7400      2.00000
     28     -18.7136      2.00000
     29     -18.6954      2.00000
     30     -18.6677      2.00000
     31     -18.6515      2.00000
     32     -18.6372      2.00000
     33     -18.5986      2.00000
     34     -18.5682      2.00000
     35     -18.5345      2.00000
     36     -18.4866      2.00000
     37       2.4216      2.00000
     38       3.3311      2.00000
     39       3.7149      2.00000
     40       3.8584      2.00000
     41       4.2229      2.00000
     42       4.4800      2.00000
     43       4.6731      2.00000
     44       5.1151      2.00000
     45       5.3440      2.00000
     46       5.3702      2.00000
     47       5.4813      2.00000
     48       5.5424      2.00000
     49       5.6403      2.00000
     50       5.7086      2.00000
     51       5.7767      2.00000
     52       5.9151      2.00000
     53       5.9350      2.00000
     54       6.0150      2.00000
     55       6.1745      2.00000
     56       6.2978      2.00000
     57       6.3737      2.00000
     58       6.4335      2.00000
     59       6.5456      2.00000
     60       6.6519      2.00000
     61       6.7244      2.00000
     62       6.7371      2.00000
     63       6.8263      2.00000
     64       6.8843      2.00000
     65       6.9780      2.00000
     66       7.0631      2.00000
     67       7.0921      2.00002
     68       7.1278      2.00007
     69       7.2166      2.00170
     70       7.2853      2.01101
     71       7.4220      2.07070
     72       7.4925      1.93903
     73       7.5904      1.12839
     74       7.6413      0.57168
     75       7.7289     -0.00236
     76       7.8143     -0.06232
     77       7.8642     -0.03290
     78       7.9301     -0.00829
     79       8.0052     -0.00096
     80       8.0803     -0.00006
     81       8.2046     -0.00000
     82       8.2824     -0.00000
     83       8.3639     -0.00000
     84       8.9192     -0.00000

 k-point    14 :      -0.3333   -0.3333    0.3333
  band No.  band energies     occupation 
      1     -46.5477      2.00000
      2     -40.9026      2.00000
      3     -40.8750      2.00000
      4     -40.8394      2.00000
      5     -40.6958      2.00000
      6     -40.6899      2.00000
      7     -40.6455      2.00000
      8     -40.6188      2.00000
      9     -40.5077      2.00000
     10     -22.7332      2.00000
     11     -22.6978      2.00000
     12     -22.6864      2.00000
     13     -19.1937      2.00000
     14     -19.1193      2.00000
     15     -19.1168      2.00000
     16     -19.0955      2.00000
     17     -19.0849      2.00000
     18     -19.0254      2.00000
     19     -18.9691      2.00000
     20     -18.8962      2.00000
     21     -18.8590      2.00000
     22     -18.8265      2.00000
     23     -18.7952      2.00000
     24     -18.7851      2.00000
     25     -18.7644      2.00000
     26     -18.7521      2.00000
     27     -18.7383      2.00000
     28     -18.7211      2.00000
     29     -18.6925      2.00000
     30     -18.6677      2.00000
     31     -18.6497      2.00000
     32     -18.6354      2.00000
     33     -18.5993      2.00000
     34     -18.5648      2.00000
     35     -18.5390      2.00000
     36     -18.4859      2.00000
     37       2.4106      2.00000
     38       3.4011      2.00000
     39       3.7000      2.00000
     40       3.7937      2.00000
     41       4.2434      2.00000
     42       4.4849      2.00000
     43       4.6623      2.00000
     44       5.1270      2.00000
     45       5.3395      2.00000
     46       5.3869      2.00000
     47       5.4534      2.00000
     48       5.5225      2.00000
     49       5.6383      2.00000
     50       5.6723      2.00000
     51       5.7952      2.00000
     52       5.8947      2.00000
     53       5.9759      2.00000
     54       6.0208      2.00000
     55       6.1955      2.00000
     56       6.3088      2.00000
     57       6.3676      2.00000
     58       6.4485      2.00000
     59       6.5416      2.00000
     60       6.5938      2.00000
     61       6.7561      2.00000
     62       6.7739      2.00000
     63       6.8254      2.00000
     64       6.8965      2.00000
     65       6.9926      2.00000
     66       7.0665      2.00001
     67       7.0854      2.00001
     68       7.1324      2.00009
     69       7.2084      2.00131
     70       7.2843      2.01077
     71       7.4090      2.06988
     72       7.4673      2.02177
     73       7.5873      1.16309
     74       7.6773      0.25637
     75       7.7310     -0.00825
     76       7.7923     -0.07032
     77       7.8499     -0.04119
     78       7.9258     -0.00923
     79       8.0098     -0.00082
     80       8.1003     -0.00003
     81       8.2034     -0.00000
     82       8.2632     -0.00000
     83       8.3581     -0.00000
     84       8.9171     -0.00000


--------------------------------------------------------------------------------------------------------


 soft charge-density along one line, spin component           1
         0         1         2         3         4         5         6         7         8         9
 total charge-density along one line
 
 pseudopotential strength for first ion, spin component:           1
 -6.402   0.001   0.000   0.000   0.000  -7.604   0.001   0.000
  0.001  -6.397   0.001   0.002   0.000   0.001  -7.599   0.001
  0.000   0.001  -6.399   0.000  -0.003   0.000   0.001  -7.601
  0.000   0.002   0.000  -6.386  -0.000   0.000   0.003   0.000
  0.000   0.000  -0.003  -0.000  -6.404   0.000   0.000  -0.004
 -7.604   0.001   0.000   0.000   0.000  -9.011   0.001   0.000
  0.001  -7.599   0.001   0.003   0.000   0.001  -9.004   0.002
  0.000   0.001  -7.601   0.000  -0.004   0.000   0.002  -9.006
  0.000   0.003   0.000  -7.584  -0.000   0.000   0.004   0.000
  0.000   0.000  -0.004  -0.000  -7.607   0.000   0.000  -0.005
 -0.001   0.001  -0.003   0.000  -0.003  -0.001   0.001  -0.003
 -0.001   0.002  -0.004   0.000  -0.005  -0.001   0.003  -0.005
 -0.003  -0.001   0.004  -0.001   0.008  -0.003  -0.002   0.004
 -0.001  -0.001  -0.006  -0.004  -0.001  -0.001  -0.001  -0.007
  0.001  -0.001   0.002  -0.003  -0.005   0.001  -0.001   0.003
  0.002   0.000  -0.003   0.002  -0.008   0.003   0.000  -0.004
  0.002  -0.002   0.006   0.004   0.001   0.002  -0.002   0.008
 -0.005   0.002  -0.003   0.002   0.006  -0.006   0.002  -0.003
 total augmentation occupancy for first ion, spin component:           1
  4.549   0.065   0.062  -0.018   0.023  -2.338  -0.041  -0.022   0.004  -0.009   0.006  -0.012   0.023   0.019  -0.018   0.002
  0.065   4.785   0.030   0.130   0.067  -0.041  -2.455  -0.006  -0.060  -0.026  -0.042   0.005   0.059   0.102   0.025   0.002
  0.062   0.030   4.452   0.023   0.011  -0.021  -0.006  -2.409  -0.015   0.011   0.033  -0.036  -0.040   0.077  -0.023  -0.003
 -0.018   0.130   0.023   5.002   0.019   0.004  -0.060  -0.016  -2.499  -0.022   0.044  -0.007   0.031   0.053   0.059   0.001
  0.023   0.067   0.011   0.019   4.567  -0.009  -0.026   0.012  -0.022  -2.431  -0.008  -0.041  -0.158  -0.002   0.053  -0.008
 -2.338  -0.041  -0.021   0.004  -0.009   1.222   0.025   0.006  -0.004   0.003  -0.007   0.006  -0.015  -0.009  -0.002  -0.001
 -0.041  -2.455  -0.006  -0.060  -0.026   0.025   1.282  -0.002   0.028   0.009   0.015  -0.003  -0.032  -0.052  -0.011  -0.001
 -0.022  -0.006  -2.409  -0.016   0.012   0.006  -0.002   1.315   0.010  -0.015  -0.024   0.019   0.026  -0.045   0.014   0.002
  0.004  -0.060  -0.015  -2.499  -0.022  -0.004   0.028   0.010   1.276   0.018  -0.031   0.004  -0.014  -0.027  -0.032  -0.000
 -0.009  -0.026   0.011  -0.022  -2.431   0.003   0.009  -0.015   0.018   1.308  -0.002   0.022   0.080   0.001  -0.029   0.004
  0.006  -0.042   0.033   0.044  -0.008  -0.007   0.015  -0.024  -0.031  -0.002   2.230  -0.223   0.040   0.028   0.023   0.001
 -0.012   0.005  -0.036  -0.007  -0.041   0.006  -0.003   0.019   0.004   0.022  -0.223   0.025   0.001  -0.000   0.000   0.000
  0.023   0.059  -0.040   0.031  -0.158  -0.015  -0.032   0.026  -0.014   0.080   0.040   0.001   0.253   0.015   0.005   0.006
  0.019   0.102   0.077   0.053  -0.002  -0.009  -0.052  -0.045  -0.027   0.001   0.028  -0.000   0.015   0.294   0.007   0.000
 -0.018   0.025  -0.023   0.059   0.053  -0.002  -0.011   0.014  -0.032  -0.029   0.023   0.000   0.005   0.007   0.273   0.000
  0.002   0.002  -0.003   0.001  -0.008  -0.001  -0.001   0.002  -0.000   0.004   0.001   0.000   0.006   0.000   0.000   0.000
  0.001   0.002   0.006   0.004   0.000  -0.000  -0.001  -0.003  -0.002  -0.000   0.001  -0.000   0.000   0.007   0.000  -0.000
 -0.000   0.001  -0.002   0.003   0.004  -0.000  -0.000   0.001  -0.001  -0.002   0.001  -0.000   0.000   0.000   0.007  -0.000


------------------------ aborting loop because EDIFF is reached ----------------------------------------


    CHARGE:  cpu time    0.0084: real time    0.0084
    FORLOC:  cpu time    0.0028: real time    0.0028
    FORNL :  cpu time    0.0609: real time    0.0612
    STRESS:  cpu time    0.1822: real time    0.1831
    FORCOR:  cpu time    0.0140: real time    0.0141
    FORHAR:  cpu time    0.0049: real time    0.0049
    MIXING:  cpu time    0.0005: real time    0.0005
    OFIELD:  cpu time    0.0000: real time    0.0000

  FORCE on cell =-STRESS in cart. coord.  units (eV):
  Direction    XX          YY          ZZ          XY          YZ          ZX
  --------------------------------------------------------------------------------------
  Alpha Z   676.98414   676.98414   676.98414
  Ewald   -3166.70179 -3486.91793 -3186.78747    21.41919   125.98011   -11.47614
  Hartree  1056.47237   747.07843   995.03839    19.50199   116.16162    -9.16484
  E(xc)    -597.20425  -597.54694  -597.17563    -0.06441    -0.04718     0.02751
  Local    -300.67460   335.00407  -214.51410   -40.60559  -243.09251    20.71116
  n-local  -154.83034  -154.65381  -155.88170     0.36540     1.45822     0.33765
  augment    50.97092    50.40700    50.96941    -0.13022    -0.15321    -0.03351
  Kinetic  2434.98806  2429.73959  2431.37690    -0.47857    -0.25098    -0.41089
  Fock        0.00000     0.00000     0.00000     0.00000     0.00000     0.00000
  -------------------------------------------------------------------------------------
  Total       0.00451     0.09454     0.00994     0.00780     0.05608    -0.00906
  in kB       0.02103     0.44035     0.04632     0.03632     0.26122    -0.04219
  external pressure =        0.17 kB  Pullay stress =        0.00 kB


 VOLUME and BASIS-vectors are now :
 -----------------------------------------------------------------------------
  energy-cutoff  :      300.00
  volume of cell :      343.97
      direct lattice vectors                 reciprocal lattice vectors
     6.930327326  0.005974843 -0.001413256     0.144293445 -0.000127370  0.000030911
     0.006257271  7.094956047  0.026001769    -0.000121618  0.140947158 -0.000504975
    -0.001476488  0.025062112  6.995615036     0.000029602 -0.000523908  0.142948571

  length of vectors
     6.930330046  7.095006453  6.995660085     0.144293505  0.140948115  0.142949534


 FORCES acting on ions
    electron-ion (+dipol)            ewald-force                    non-local-force                 convergence-correction
 -----------------------------------------------------------------------------------------------
   0.112E+02 -.580E+02 -.404E+02   -.107E+02 0.586E+02 0.409E+02   -.496E+00 -.637E+00 -.578E+00   -.152E-02 -.767E-03 0.811E-03
   0.433E+01 -.359E+02 0.555E+02   -.485E+01 0.350E+02 -.550E+02   0.528E+00 0.962E+00 -.505E+00   -.557E-02 -.224E-02 0.539E-02
   -.189E+02 -.565E+02 0.395E+02   0.185E+02 0.563E+02 -.401E+02   0.357E+00 0.150E+00 0.585E+00   0.137E-02 0.106E-02 0.964E-03
   -.194E+01 -.265E+02 0.430E+02   0.240E+01 0.256E+02 -.428E+02   -.465E+00 0.870E+00 -.273E+00   0.404E-02 -.219E-02 0.378E-02
   0.979E+01 0.460E+02 0.269E+02   -.963E+01 -.459E+02 -.272E+02   -.156E+00 -.143E+00 0.387E+00   -.130E-02 0.527E-03 0.613E-03
   0.835E+01 0.329E+02 -.296E+02   -.817E+01 -.338E+02 0.301E+02   -.173E+00 0.876E+00 -.417E+00   -.128E-02 0.814E-03 0.199E-03
   -.969E+01 -.268E+02 -.326E+02   0.918E+01 0.273E+02 0.334E+02   0.504E+00 -.429E+00 -.740E+00   0.918E-03 -.185E-02 0.103E-02
   -.175E+02 -.607E+02 -.644E+02   0.178E+02 0.600E+02 0.635E+02   -.313E+00 0.746E+00 0.903E+00   0.136E-01 -.978E-02 -.169E-01
   -.456E+01 0.139E+02 0.671E+02   0.501E+01 -.129E+02 -.669E+02   -.463E+00 -.102E+01 -.246E+00   0.130E-01 0.708E-02 0.130E-01
   -.907E+01 0.449E+02 -.795E+02   0.924E+01 -.442E+02 0.796E+02   -.184E+00 -.756E+00 -.103E+00   0.125E-01 0.634E-02 -.154E-01
   -.272E+02 0.107E+03 0.764E+02   0.270E+02 -.106E+03 -.767E+02   0.140E+00 -.795E+00 0.265E+00   0.362E-02 0.405E-02 0.401E-02
   0.191E+02 -.603E+02 -.710E+02   -.194E+02 0.593E+02 0.702E+02   0.302E+00 0.929E+00 0.888E+00   -.135E-01 -.833E-02 -.168E-01
   -.187E+02 0.122E+03 -.842E+02   0.185E+02 -.123E+03 0.846E+02   0.190E+00 0.958E+00 -.355E+00   0.357E-02 0.256E-02 -.133E-02
   0.661E+01 0.305E+02 0.826E+02   -.705E+01 -.294E+02 -.824E+02   0.452E+00 -.111E+01 -.253E+00   -.139E-01 0.649E-02 0.140E-01
   0.109E+02 0.451E+02 -.913E+02   -.112E+02 -.443E+02 0.911E+02   0.248E+00 -.811E+00 0.191E+00   -.127E-01 0.634E-02 -.158E-01
   0.373E+02 -.117E+03 0.102E+03   -.368E+02 0.117E+03 -.102E+03   -.471E+00 0.250E-02 0.571E+00   -.804E-02 -.408E-02 0.496E-02
 -----------------------------------------------------------------------------------------------
   0.716E-02 0.199E+00 -.303E+00   0.711E-14 -.284E-13 -.568E-13   -.129E-03 -.203E+00 0.321E+00   -.532E-02 0.604E-02 -.176E-01
 
 
 POSITION                                       TOTAL-FORCE (eV/Angst)
 -----------------------------------------------------------------------------------
      1.81384      5.64812      5.32495         0.000739      0.000185     -0.002517
      3.39669      6.95899      0.24320        -0.002636      0.005956      0.004045
      5.15139      5.15430      1.63850        -0.001449     -0.002341     -0.002846
      0.07245      6.94285      0.26581         0.003269     -0.000016     -0.000818
      1.73766      1.86870      1.72255        -0.002516      0.002428      0.004748
      1.75288      1.55632      5.30490         0.001800      0.003728     -0.004493
      5.12758      5.61560      5.39687        -0.002761      0.000945      0.000699
      0.00724      6.95494      3.39263        -0.000679     -0.005937      0.003484
      0.07483      3.70346      6.83590         0.002319     -0.001705      0.002741
      0.03130      3.69549      3.59233        -0.000813      0.002475     -0.003692
      5.19304      1.91005      1.67856         0.001106     -0.002254      0.000277
      3.47420      7.00181      3.33152         0.001986      0.000132      0.000927
      5.17979      1.64817      5.30842        -0.001184      0.003854     -0.000029
      3.37900      3.68152      6.86410        -0.003259     -0.005589      0.003238
      3.45113      3.67398      3.58399         0.000705      0.001401     -0.003858
      1.78971      5.17161      1.73222         0.003372     -0.003263     -0.001907
 -----------------------------------------------------------------------------------
    total drift:                                0.001717      0.001936      0.000260


--------------------------------------------------------------------------------------------------------



  FREE ENERGIE OF THE ION-ELECTRON SYSTEM (eV)
  ---------------------------------------------------
  free  energy   TOTEN  =      -152.23580641 eV

  energy  without entropy=     -152.26375852  energy(sigma->0) =     -152.24512378
 
 d Force = 0.6347903E-04[ 0.398E-04, 0.872E-04]  d Energy = 0.5374203E-04 0.974E-05
 d Force = 0.6417131E-01[ 0.634E-01, 0.649E-01]  d Ewald  = 0.1654048E+01-0.159E+01


--------------------------------------------------------------------------------------------------------


    POTLOK:  cpu time    0.0157: real time    0.0158


--------------------------------------------------------------------------------------------------------




--------------------------------------------------------------------------------------------------------


  
 reached required accuracy - stopping structural energy minimisation
     LOOP+:  cpu time    1.1356: real time    1.1776
    4ORBIT:  cpu time    0.0000: real time    0.0000

 total amount of memory used by VASP on root node    41999. kBytes
========================================================================

   base      :      30000. kBytes
   nonlr-proj:       4086. kBytes
   fftplans  :       1260. kBytes
   grid      :       2396. kBytes
   one-center:         62. kBytes
   wavefun   :       4195. kBytes
 
  
  
 General timing and accounting informations for this job:
 ========================================================
  
                  Total CPU time used (sec):       19.385
                            User time (sec):       18.439
                          System time (sec):        0.946
                         Elapsed time (sec):       21.145
  
                   Maximum memory used (kb):      201144.
                   Average memory used (kb):           0.
  
                          Minor page faults:        48656
                          Major page faults:           31
                 Voluntary context switches:         4799
