 vasp.5.4.1 05Feb16 (build Jan 29 2020 16:04:39) complex                        
  
 executed on           IFC91_ompi date 2020.06.15  05:14:58
 running on  160 total cores
 distrk:  each k-point on   20 cores,    8 groups
 distr:  one band on NCORES_PER_BAND=   5 cores,    4 groups


--------------------------------------------------------------------------------------------------------


 INCAR:
 POTCAR:    PAW_PBE Ta 17Jan2003                  
 POTCAR:    PAW_PBE Nb_sv 25May2007               
 POTCAR:    PAW_PBE Zr_sv 04Jan2005               
 POTCAR:    PAW_PBE Hf 20Jan2003                  

 ----------------------------------------------------------------------------- 
|                                                                             |
|           W    W    AA    RRRRR   N    N  II  N    N   GGGG   !!!           |
|           W    W   A  A   R    R  NN   N  II  NN   N  G    G  !!!           |
|           W    W  A    A  R    R  N N  N  II  N N  N  G       !!!           |
|           W WW W  AAAAAA  RRRRR   N  N N  II  N  N N  G  GGG   !            |
|           WW  WW  A    A  R   R   N   NN  II  N   NN  G    G                |
|           W    W  A    A  R    R  N    N  II  N    N   GGGG   !!!           |
|                                                                             |
|      For optimal performance we recommend to set                            |
|        NCORE= 4 - approx SQRT( number of cores)                             |
|      NCORE specifies how many cores store one orbital (NPAR=cpu/NCORE).     |
|      This setting can  greatly improve the performance of VASP for DFT.     |
|      The default, NPAR=number of cores might be grossly inefficient         |
|      on modern multi-core architectures or massively parallel machines.     |
|      Do your own testing !!!!                                               |
|      Unfortunately you need to use the default for GW and RPA calculations. |
|      (for HF NCORE is supported but not extensively tested yet)             |
|                                                                             |
 ----------------------------------------------------------------------------- 


 ----------------------------------------------------------------------------- 
|                                                                             |
|           W    W    AA    RRRRR   N    N  II  N    N   GGGG   !!!           |
|           W    W   A  A   R    R  NN   N  II  NN   N  G    G  !!!           |
|           W    W  A    A  R    R  N N  N  II  N N  N  G       !!!           |
|           W WW W  AAAAAA  RRRRR   N  N N  II  N  N N  G  GGG   !            |
|           WW  WW  A    A  R   R   N   NN  II  N   NN  G    G                |
|           W    W  A    A  R    R  N    N  II  N    N   GGGG   !!!           |
|                                                                             |
|      You have enabled k-point parallelism (KPAR>1).                         |
|      This developmental code was originally  written by Paul Kent at ORNL,  |
|      and carefully double checked in Vienna.                                |
|      GW as well as linear response parallelism added by Martijn Marsman     |
|      and Georg Kresse.                                                      |
|      Carefully verify results versus KPAR=1.                                |
|      Report problems to Paul Kent and Vienna.                               |
|                                                                             |
 ----------------------------------------------------------------------------- 

 POTCAR:    PAW_PBE Ta 17Jan2003                  
   VRHFIN =Ta:  6s5d                                                            
   LEXCH  = PE                                                                  
   EATOM  =   130.6506 eV,    9.6025 Ry                                         
                                                                                
   TITEL  = PAW_PBE Ta 17Jan2003                                                
   LULTRA =        F    use ultrasoft PP ?                                      
   IUNSCR =        1    unscreen: 0-lin 1-nonlin 2-no                           
   RPACOR =    2.330    partial core radius                                     
   POMASS =  180.948; ZVAL   =    5.000    mass and valenz                      
   RCORE  =    2.900    outmost cutoff radius                                   
   RWIGS  =    2.840; RWIGS  =    1.503    wigner-seitz radius (au A)           
   ENMAX  =  223.667; ENMIN  =  167.750 eV                                      
   RCLOC  =    2.205    cutoff for local pot                                    
   LCOR   =        T    correct aug charges                                     
   LPAW   =        T    paw PP                                                  
   EAUG   =  332.075                                                            
   DEXC   =    0.000                                                            
   RMAX   =    2.970    core radius for proj-oper                               
   RAUG   =    1.300    factor for augmentation sphere                          
   RDEP   =    3.060    radius for radial grids                                 
   RDEPT  =    2.354    core radius for aug-charge                              
                                                                                
   Atomic configuration                                                         
   16 entries                                                                   
     n  l   j            E        occ.                                          
     1  0  0.50    -67341.2807   2.0000                                         
     2  0  0.50    -11566.9376   2.0000                                         
     2  1  1.50    -10134.1182   6.0000                                         
     3  0  0.50     -2648.5620   2.0000                                         
     3  1  1.50     -2222.6012   6.0000                                         
     3  2  2.50     -1726.3120  10.0000                                         
     4  0  0.50      -538.6961   2.0000                                         
     4  1  1.50      -399.0129   6.0000                                         
     4  2  2.50      -220.3959  10.0000                                         
     4  3  3.50       -23.0374  14.0000                                         
     5  0  0.50       -71.2901   2.0000                                         
     5  1  1.50       -37.8225   6.0000                                         
     5  2  2.50        -2.6455   4.0000                                         
     6  0  0.50        -4.9623   1.0000                                         
     6  1  1.50        -1.3606   0.0000                                         
     5  3  2.50        -1.3606   0.0000                                         
   Description                                                                  
     l       E           TYP  RCUT    TYP  RCUT                                 
     2     -2.6455043     23  2.500                                             
     2     -0.6258895     23  2.500                                             
     0     -4.9622780     23  2.500                                             
     0      4.7531321     23  2.500                                             
     1     -1.3605826     23  2.900                                             
     1     27.2116520     23  2.900                                             
  local pseudopotential read in
  partial core-charges read in
  partial kinetic energy density read in
  atomic valenz-charges read in
  non local Contribution for L=           2  read in
    real space projection operators read in
  non local Contribution for L=           2  read in
    real space projection operators read in
  non local Contribution for L=           0  read in
    real space projection operators read in
  non local Contribution for L=           0  read in
    real space projection operators read in
  non local Contribution for L=           1  read in
    real space projection operators read in
  non local Contribution for L=           1  read in
    real space projection operators read in
    PAW grid and wavefunctions read in
 
   number of l-projection  operators is LMAX  =           6
   number of lm-projection operators is LMMAX =          18
 
 POTCAR:    PAW_PBE Nb_sv 25May2007               
   VRHFIN =Nb: 4p5s4d                                                           
   LEXCH  = PE                                                                  
   EATOM  =  1555.1913 eV,  114.3033 Ry                                         
                                                                                
   TITEL  = PAW_PBE Nb_sv 25May2007                                             
   LULTRA =        F    use ultrasoft PP ?                                      
   IUNSCR =        1    unscreen: 0-lin 1-nonlin 2-no                           
   RPACOR =    1.800    partial core radius                                     
   POMASS =   92.910; ZVAL   =   13.000    mass and valenz                      
   RCORE  =    2.400    outmost cutoff radius                                   
   RWIGS  =    2.400; RWIGS  =    1.270    wigner-seitz radius (au A)           
   ENMAX  =  293.235; ENMIN  =  219.927 eV                                      
   ICORE  =        3    local potential                                         
   LCOR   =        T    correct aug charges                                     
   LPAW   =        T    paw PP                                                  
   EAUG   =  455.659                                                            
   DEXC   =    0.000                                                            
   RMAX   =    2.456    core radius for proj-oper                               
   RAUG   =    1.300    factor for augmentation sphere                          
   RDEP   =    2.451    radius for radial grids                                 
   RDEPT  =    1.956    core radius for aug-charge                              
                                                                                
   Atomic configuration                                                         
   11 entries                                                                   
     n  l   j            E        occ.                                          
     1  0  0.50    -18805.2457   2.0000                                         
     2  0  0.50     -2630.2869   2.0000                                         
     2  1  1.50     -2348.4046   6.0000                                         
     3  0  0.50      -438.8757   2.0000                                         
     3  1  1.50      -346.7588   6.0000                                         
     3  2  2.50      -196.2560  10.0000                                         
     4  0  0.50       -58.3859   2.0000                                         
     5  0  0.50        -3.9816   1.0000                                         
     4  1  1.50       -34.5141   6.0000                                         
     4  2  2.50        -3.0408   4.0000                                         
     4  3  2.50        -1.3606   0.0000                                         
   Description                                                                  
     l       E           TYP  RCUT    TYP  RCUT                                 
     0    -58.3859094     23  2.200                                             
     0     -3.9816262     23  2.200                                             
     1    -34.5140738     23  2.200                                             
     1     13.6058260     23  2.200                                             
     2     -3.0408010     23  2.200                                             
     2     -0.1283038     23  2.200                                             
     3     -1.3605826     23  2.400                                             
  local pseudopotential read in
  partial core-charges read in
  partial kinetic energy density read in
  atomic valenz-charges read in
  non local Contribution for L=           0  read in
    real space projection operators read in
  non local Contribution for L=           0  read in
    real space projection operators read in
  non local Contribution for L=           1  read in
    real space projection operators read in
  non local Contribution for L=           1  read in
    real space projection operators read in
  non local Contribution for L=           2  read in
    real space projection operators read in
  non local Contribution for L=           2  read in
    real space projection operators read in
    PAW grid and wavefunctions read in
 
   number of l-projection  operators is LMAX  =           6
   number of lm-projection operators is LMMAX =          18
 
 POTCAR:    PAW_PBE Zr_sv 04Jan2005               
   VRHFIN =Zr: 4s4p5s4d                                                         
   LEXCH  = PE                                                                  
   EATOM  =  1284.2219 eV,   94.3876 Ry                                         
                                                                                
   TITEL  = PAW_PBE Zr_sv 04Jan2005                                             
   LULTRA =        F    use ultrasoft PP ?                                      
   IUNSCR =        1    unscreen: 0-lin 1-nonlin 2-no                           
   RPACOR =    2.200    partial core radius                                     
   POMASS =   91.224; ZVAL   =   12.000    mass and valenz                      
   RCORE  =    2.500    outmost cutoff radius                                   
   RWIGS  =    3.070; RWIGS  =    1.625    wigner-seitz radius (au A)           
   ENMAX  =  229.898; ENMIN  =  172.424 eV                                      
   ICORE  =        3    local potential                                         
   LCOR   =        T    correct aug charges                                     
   LPAW   =        T    paw PP                                                  
   EAUG   =  461.257                                                            
   DEXC   =    0.000                                                            
   RMAX   =    2.561    core radius for proj-oper                               
   RAUG   =    1.300    factor for augmentation sphere                          
   RDEP   =    2.597    radius for radial grids                                 
   RDEPT  =    2.007    core radius for aug-charge                              
                                                                                
   Atomic configuration                                                         
   11 entries                                                                   
     n  l   j            E        occ.                                          
     1  0  0.50    -17820.0161   2.0000                                         
     2  0  0.50     -2467.0882   2.0000                                         
     2  1  1.50     -2199.6095   6.0000                                         
     3  0  0.50      -402.4863   2.0000                                         
     3  1  1.50      -315.3675   6.0000                                         
     3  2  2.50      -172.4472  10.0000                                         
     4  0  0.50       -52.4146   2.0000                                         
     5  0  0.50        -3.8421   1.0000                                         
     4  1  1.50       -30.5054   6.0000                                         
     4  2  2.50        -2.3341   3.0000                                         
     4  3  2.50        -1.3606   0.0000                                         
   Description                                                                  
     l       E           TYP  RCUT    TYP  RCUT                                 
     0    -52.4145962     23  2.200                                             
     0     -3.8421270     23  2.500                                             
     1    -30.5053914     23  2.200                                             
     1     20.4087390     23  2.200                                             
     2     -2.3340816     23  2.500                                             
     2     -0.6120942     23  2.500                                             
     3     -4.0817478     23  2.500                                             
  local pseudopotential read in
  partial core-charges read in
  partial kinetic energy density read in
  atomic valenz-charges read in
  non local Contribution for L=           0  read in
    real space projection operators read in
  non local Contribution for L=           0  read in
    real space projection operators read in
  non local Contribution for L=           1  read in
    real space projection operators read in
  non local Contribution for L=           1  read in
    real space projection operators read in
  non local Contribution for L=           2  read in
    real space projection operators read in
  non local Contribution for L=           2  read in
    real space projection operators read in
    PAW grid and wavefunctions read in
 
   number of l-projection  operators is LMAX  =           6
   number of lm-projection operators is LMMAX =          18
 
 POTCAR:    PAW_PBE Hf 20Jan2003                  
   VRHFIN =Hf: 6s5d                                                             
   LEXCH  = PE                                                                  
   EATOM  =    75.9011 eV,    5.5786 Ry                                         
                                                                                
   TITEL  = PAW_PBE Hf 20Jan2003                                                
   LULTRA =        F    use ultrasoft PP ?                                      
   IUNSCR =        1    unscreen: 0-lin 1-nonlin 2-no                           
   RPACOR =    2.500    partial core radius                                     
   POMASS =  178.490; ZVAL   =    4.000    mass and valenz                      
   RCORE  =    3.000    outmost cutoff radius                                   
   RWIGS  =    3.050; RWIGS  =    1.614    wigner-seitz radius (au A)           
   ENMAX  =  220.334; ENMIN  =  165.250 eV                                      
   RCLOC  =    2.212    cutoff for local pot                                    
   LCOR   =        T    correct aug charges                                     
   LPAW   =        T    paw PP                                                  
   EAUG   =  335.116                                                            
   DEXC   =    0.000                                                            
   RMAX   =    3.077    core radius for proj-oper                               
   RAUG   =    1.300    factor for augmentation sphere                          
   RDEP   =    3.047    radius for radial grids                                 
   RDEPT  =    2.344    core radius for aug-charge                              
                                                                                
   Atomic configuration                                                         
   16 entries                                                                   
     n  l   j            E        occ.                                          
     1  0  0.50    -65259.4397   2.0000                                         
     2  0  0.50    -11157.9882   2.0000                                         
     2  1  1.50     -9795.2113   6.0000                                         
     3  0  0.50     -2541.4058   2.0000                                         
     3  1  1.50     -2134.4770   6.0000                                         
     3  2  2.50     -1653.5418  10.0000                                         
     4  0  0.50      -510.9575   2.0000                                         
     4  1  1.50      -377.5023   6.0000                                         
     4  2  2.50      -205.2085  10.0000                                         
     4  3  3.50       -15.4905  14.0000                                         
     5  0  0.50       -65.6020   2.0000                                         
     5  1  1.50       -34.2798   6.0000                                         
     5  2  2.50        -1.9877   3.0000                                         
     6  0  0.50        -4.7357   1.0000                                         
     6  1  1.50        -1.3606   0.0000                                         
     5  3  2.50        -1.3606   0.0000                                         
   Description                                                                  
     l       E           TYP  RCUT    TYP  RCUT                                 
     2     -1.9876627     23  2.500                                             
     2      0.0744703     23  2.500                                             
     0     -4.7356889     23  2.600                                             
     0      3.2364747     23  2.600                                             
     1     -1.3605826     23  3.000                                             
     1     27.2116520     23  3.000                                             
  local pseudopotential read in
  partial core-charges read in
  partial kinetic energy density read in
  atomic valenz-charges read in
  non local Contribution for L=           2  read in
    real space projection operators read in
  non local Contribution for L=           2  read in
    real space projection operators read in
  non local Contribution for L=           0  read in
    real space projection operators read in
  non local Contribution for L=           0  read in
    real space projection operators read in
  non local Contribution for L=           1  read in
    real space projection operators read in
  non local Contribution for L=           1  read in
    real space projection operators read in
    PAW grid and wavefunctions read in
 
   number of l-projection  operators is LMAX  =           6
   number of lm-projection operators is LMMAX =          18
 
 Optimization of the real space projectors (new method)

 maximal supplied QI-value         = 12.85
 optimisation between [QCUT,QGAM] = [  8.87, 17.73] = [ 22.01, 88.06] Ry 
 Optimized for a Real-space Cutoff    1.90 Angstroem

   l    n(q)    QCUT    max X(q) W(low)/X(q) W(high)/X(q)  e(spline) 
   2      9     8.867    62.315    0.23E-03    0.62E-04    0.11E-05
   2      9     8.867    52.185    0.23E-03    0.62E-04    0.11E-05
   0     10     8.867   103.837    0.15E-04    0.23E-04    0.98E-07
   0     10     8.867    59.728    0.12E-04    0.21E-04    0.89E-07
   1     10     8.867    13.958    0.50E-04    0.22E-04    0.14E-06
   1     10     8.867     8.441    0.36E-04    0.19E-04    0.98E-07
 Optimization of the real space projectors (new method)

 maximal supplied QI-value         = 15.68
 optimisation between [QCUT,QGAM] = [  8.78, 17.72] = [ 21.60, 87.97] Ry 
 Optimized for a Real-space Cutoff    1.96 Angstroem

   l    n(q)    QCUT    max X(q) W(low)/X(q) W(high)/X(q)  e(spline) 
   0     10     8.783    10.201    0.29E-04    0.25E-05    0.69E-07
   0     10     8.783     8.174    0.45E-04    0.57E-05    0.14E-06
   1     10     8.783     3.488    0.76E-05    0.24E-04    0.95E-07
   1     10     8.783     4.917    0.78E-04    0.14E-03    0.46E-06
   2      9     8.783   153.744    0.22E-03    0.34E-04    0.15E-05
   2      9     8.783   126.342    0.22E-03    0.35E-04    0.15E-05
 Optimization of the real space projectors (new method)

 maximal supplied QI-value         = 15.12
 optimisation between [QCUT,QGAM] = [  8.77, 17.69] = [ 21.53, 87.61] Ry 
 Optimized for a Real-space Cutoff    1.74 Angstroem

   l    n(q)    QCUT    max X(q) W(low)/X(q) W(high)/X(q)  e(spline) 
   0      9     8.768    12.107    0.28E-04    0.53E-06    0.29E-07
   0      9     8.768     9.948    0.36E-04    0.50E-05    0.64E-07
   1      9     8.768     3.563    0.14E-04    0.16E-04    0.88E-07
   1      9     8.768     4.524    0.21E-03    0.33E-03    0.19E-06
   2      8     8.768    87.261    0.19E-03    0.25E-03    0.24E-06
   2      8     8.768    70.950    0.19E-03    0.24E-03    0.24E-06
 Optimization of the real space projectors (new method)

 maximal supplied QI-value         = 12.47
 optimisation between [QCUT,QGAM] = [  8.86, 17.71] = [ 21.96, 87.83] Ry 
 Optimized for a Real-space Cutoff    1.90 Angstroem

   l    n(q)    QCUT    max X(q) W(low)/X(q) W(high)/X(q)  e(spline) 
   2      9     8.855    48.111    0.22E-03    0.80E-04    0.10E-05
   2      9     8.855    40.545    0.21E-03    0.76E-04    0.95E-06
   0     10     8.855   121.658    0.27E-04    0.12E-04    0.11E-06
   0     10     8.855    71.177    0.22E-04    0.11E-04    0.99E-07
   1     10     8.855    14.183    0.65E-04    0.10E-03    0.98E-07
   1     10     8.855     8.257    0.43E-04    0.73E-04    0.72E-07
  PAW_PBE Ta 17Jan2003                  :
 energy of atom  1       EATOM= -130.6506
 kinetic energy error for atom=    0.0121 (will be added to EATOM!!)
  PAW_PBE Nb_sv 25May2007               :
 energy of atom  2       EATOM=-1555.1913
 kinetic energy error for atom=    0.0655 (will be added to EATOM!!)
  PAW_PBE Zr_sv 04Jan2005               :
 energy of atom  3       EATOM=-1284.2219
 kinetic energy error for atom=    0.0483 (will be added to EATOM!!)
  PAW_PBE Hf 20Jan2003                  :
 energy of atom  4       EATOM=  -75.9011
 kinetic energy error for atom=    0.0071 (will be added to EATOM!!)
 
 
 POSCAR: generated by pypospack                  
  positions in direct lattice
  No initial velocities read in
 exchange correlation table for  LEXCH =        8
   RHO(1)=    0.500       N(1)  =     2000
   RHO(2)=  100.500       N(2)  =     4000
 


--------------------------------------------------------------------------------------------------------


 ion  position               nearest neighbor table
   1  0.251  0.165  0.509-   2 2.82   7 2.85   3 2.87  34 2.90  14 2.92  27 2.93  35 3.01  23 3.05
                            17 3.21   5 3.32  32 3.44  32 3.46
   2  0.034  0.334  0.348-  11 2.81  12 2.81   1 2.82  19 2.94  36 2.95  34 2.98  32 3.00  29 3.07
                            24 3.17   3 3.31  30 3.51  35 3.54  21 3.75
   3  0.014  0.330  0.671-  12 2.83  17 2.84   1 2.87  15 2.88  19 2.99   4 3.00  32 3.01  28 3.07
                            21 3.18   7 3.23   2 3.31  27 3.39  22 3.47
   4  0.264  0.502  0.837-  18 2.85   7 2.88   8 2.93   9 2.94  21 2.95  13 2.98   3 3.00  22 3.03
                            29 3.18  28 3.23  12 3.29  25 3.31  28 3.66
   5  0.283  0.841  0.517-  18 2.78  14 2.79  33 2.93  23 2.94  27 2.97  22 3.01  35 3.02  26 3.03
                            30 3.08  25 3.27   1 3.32
   6  0.244  0.817  0.146-   9 2.73  13 2.75  30 2.93  20 2.96  33 2.96  31 3.01  35 3.02  23 3.05
                            25 3.16  29 3.18
   7  0.483  0.332  0.667-  17 2.77  15 2.81  12 2.82   1 2.85   4 2.88  28 2.98  32 3.00  19 3.00
                             3 3.23   8 3.34  34 3.39
   8  0.490  0.317  0.994-  17 2.81  15 2.85  11 2.90   4 2.93  28 2.99  29 2.99  36 3.06  24 3.14
                            31 3.22  21 3.34   7 3.34  34 3.50  21 3.56
   9  0.503  0.676  0.998-   6 2.73  10 2.77  25 2.80  16 2.84  29 2.90  28 2.93   4 2.94  24 3.03
                            31 3.35  33 3.43
  10  0.739  0.822  0.833-   9 2.77  13 2.85  18 2.89  22 2.95  14 2.98  31 2.99  20 3.03  27 3.05
                            25 3.28  28 3.31  26 3.34
  11  0.231  0.174  0.167-   2 2.81  21 2.88   8 2.90  34 2.91  35 2.93  23 2.95  20 3.01  31 3.07
                            36 3.20  29 3.41
  12  0.246  0.497  0.515-   2 2.81   7 2.82   3 2.83  22 2.86  34 2.88  18 2.89  30 3.00  33 3.04
                             4 3.29  19 3.41
  13  0.998  0.674  0.993-   6 2.75  16 2.80  10 2.85  25 2.88  29 2.91   4 2.98  24 3.03  28 3.04
                            20 3.32  22 3.34
  14  0.494  0.006  0.679-  17 2.73   5 2.79  15 2.82  26 2.88   1 2.92  25 2.92  10 2.98  32 3.05
                            31 3.27  27 3.38
  15  0.737  0.178  0.818-   7 2.81  14 2.82   8 2.85   3 2.88  21 2.92  27 2.98  31 3.04  20 3.15
                            32 3.24  28 3.28
  16  0.759  0.822  0.159-  13 2.80   9 2.84  20 2.94  30 2.98  33 3.03  31 3.04  23 3.06  35 3.07
                            24 3.32
  17  0.261  0.168  0.823-  14 2.73   7 2.77   8 2.81   3 2.84  21 2.86  27 2.91  31 2.98  20 3.09
                             1 3.21
  18  0.491  0.665  0.670-   5 2.78  25 2.84   4 2.85  10 2.89  12 2.89  28 2.91  26 2.93  19 3.07
                            22 3.34  33 3.43
  19  0.753  0.490  0.500-   2 2.94   3 2.99   7 3.00  34 3.04  22 3.06  18 3.07  30 3.09  33 3.11
                            32 3.26  28 3.40  12 3.41  24 3.42  26 3.62
  20  0.994  0.997  0.996-  16 2.94   6 2.96  11 3.01  25 3.02  10 3.03  17 3.09  36 3.11  15 3.15
                            27 3.29  13 3.32  21 3.34  31 3.39  35 3.46  31 3.50
  21  0.007  0.323  0.982-  17 2.86  11 2.88  15 2.92   4 2.95  36 3.01  28 3.02  29 3.04  24 3.12
                             3 3.18   8 3.34  20 3.34   8 3.56   2 3.75
  22  0.006  0.669  0.666-  12 2.86  10 2.95  25 2.97   5 3.01   4 3.03  19 3.06  28 3.08  26 3.10
                            30 3.30  13 3.34  18 3.34  27 3.38   3 3.47
  23  0.484  0.998  0.317-   5 2.94  11 2.95  26 3.00  36 3.03   1 3.05   6 3.05  16 3.06  32 3.18
                            35 3.21  31 3.25  33 3.38  34 3.47  35 3.70
  24  0.752  0.498  0.165-   9 3.03  13 3.03  33 3.05  34 3.11  21 3.12   8 3.14  30 3.16   2 3.17
                            36 3.25  16 3.32  28 3.40  19 3.42  29 3.43  29 3.48
  25  0.263  0.826  0.837-   9 2.80  18 2.84  13 2.88  14 2.92  22 2.97  31 2.98  20 3.02  27 3.02
                             6 3.16   5 3.27  10 3.28   4 3.31
  26  0.722  0.843  0.508-  14 2.88  18 2.93  23 3.00  33 3.01   5 3.03  27 3.06  22 3.10  35 3.10
                            30 3.12  10 3.34  32 3.37  19 3.62
  27  0.005  1.000  0.674-  17 2.91   1 2.93   5 2.97  15 2.98  25 3.02  32 3.05  10 3.05  26 3.06
                            20 3.29  14 3.38  22 3.38   3 3.39  35 3.48
  28  0.733  0.499  0.833-  18 2.91   9 2.93   7 2.98   8 2.99  21 3.02  13 3.04   3 3.07  22 3.08
                             4 3.23  15 3.28  10 3.31  24 3.40  19 3.40   4 3.66
  29  0.249  0.506  0.148-   9 2.90  13 2.91   8 2.99  34 2.99  33 3.02  21 3.04   2 3.07  30 3.08
                             4 3.18   6 3.18  11 3.41  24 3.43  24 3.48
  30  0.016  0.677  0.343-   6 2.93  16 2.98  12 3.00   5 3.08  29 3.08  19 3.09  26 3.12  24 3.16
                            35 3.20  33 3.25  22 3.30   2 3.51  33 3.65
  31  0.502  0.003  0.999-  25 2.98  17 2.98  10 2.99   6 3.01  16 3.04  15 3.04  11 3.07  36 3.21
                             8 3.22  23 3.25  14 3.27   9 3.35  20 3.39  20 3.50
  32  0.752  0.171  0.501-   7 3.00   2 3.00   3 3.01  27 3.05  14 3.05  34 3.10  35 3.12  23 3.18
                            36 3.24  15 3.24  19 3.26  26 3.37   1 3.44   1 3.46
  33  0.487  0.669  0.334-   5 2.93   6 2.96  26 3.01  29 3.02  16 3.03  12 3.04  24 3.05  19 3.11
                            30 3.25  23 3.38  34 3.40   9 3.43  18 3.43  30 3.65
  34  0.466  0.337  0.336-  12 2.88   1 2.90  11 2.91   2 2.98  29 2.99  36 3.03  19 3.04  32 3.10
                            24 3.11   7 3.39  33 3.40  23 3.47   8 3.50
  35  0.020  0.989  0.334-  11 2.93   1 3.01   5 3.02   6 3.02  36 3.05  16 3.07  26 3.10  32 3.12
                            30 3.20  23 3.21  20 3.46  27 3.48   2 3.54  23 3.70
  36  0.767  0.182  0.184-   2 2.95  21 3.01  34 3.03  23 3.03  35 3.05   8 3.06  20 3.11  11 3.20
                            31 3.21  32 3.24  24 3.25
 
  LATTYP: Found a triclinic cell.
 ALAT       =    15.9832137775
 B/A-ratio  =     0.6407981129
 C/A-ratio  =     0.6391806182
 COS(alpha) =     0.0006229555
 COS(beta)  =     0.6369748397
 COS(gamma) =     0.6393061821
  
  Lattice vectors:
  
 A1 = (   6.8412227378, -10.2298864753, -10.1985399353)
 A2 = (  -0.0224374184, -10.2419881154,  -0.0033072495)
 A3 = (  -0.0307479428,  -0.0029979743, -10.2161137514)


Analysis of symmetry for initial positions (statically):
=====================================================================
 Subroutine PRICEL returns:
 Original cell was already a primitive cell.
 

 Routine SETGRP: Setting up the symmetry group for a 
 triclinic supercell.


 Subroutine GETGRP returns: Found  1 space group operations
 (whereof  1 operations were pure point group operations)
 out of a pool of  2 trial point group operations.


The static configuration has the point symmetry C_1 .


Analysis of symmetry for dynamics (positions and initial velocities):
=====================================================================
 Subroutine PRICEL returns:
 Original cell was already a primitive cell.
 

 Routine SETGRP: Setting up the symmetry group for a 
 triclinic supercell.


 Subroutine GETGRP returns: Found  1 space group operations
 (whereof  1 operations were pure point group operations)
 out of a pool of  2 trial point group operations.


The dynamic configuration has the point symmetry C_1 .


 Subroutine INISYM returns: Found  1 space group operations
 (whereof  1 operations are pure point group operations),
 and found     1 'primitive' translations

 
 
 KPOINTS: k-points                                

Automatic generation of k-mesh.
Space group operators:
 irot       det(A)        alpha          n_x          n_y          n_z        tau_x        tau_y        tau_z
    1     1.000000     0.000000     1.000000     0.000000     0.000000     0.000000     0.000000     0.000000
 
 Subroutine IBZKPT returns following result:
 ===========================================
 
 Found     14 irreducible k-points:
 
 Following reciprocal coordinates:
            Coordinates               Weight
  0.000000  0.000000  0.000000      1.000000
  0.333333 -0.000000 -0.000000      2.000000
  0.000000  0.333333 -0.000000      2.000000
  0.333333  0.333333 -0.000000      2.000000
 -0.333333  0.333333  0.000000      2.000000
  0.000000 -0.000000  0.333333      2.000000
  0.333333  0.000000  0.333333      2.000000
 -0.333333  0.000000  0.333333      2.000000
  0.000000  0.333333  0.333333      2.000000
  0.333333  0.333333  0.333333      2.000000
 -0.333333  0.333333  0.333333      2.000000
 -0.000000 -0.333333  0.333333      2.000000
  0.333333 -0.333333  0.333333      2.000000
 -0.333333 -0.333333  0.333333      2.000000
 
 Following cartesian coordinates:
            Coordinates               Weight
  0.000000  0.000000  0.000000      1.000000
  0.241180 -0.000528 -0.000726      2.000000
 -0.000355  0.162349 -0.000047      2.000000
  0.240825  0.161821 -0.000772      2.000000
 -0.241535  0.162877  0.000679      2.000000
 -0.000493 -0.000051  0.162761      2.000000
  0.240687 -0.000580  0.162035      2.000000
 -0.241673  0.000477  0.163487      2.000000
 -0.000848  0.162298  0.162714      2.000000
  0.240332  0.161770  0.161989      2.000000
 -0.242028  0.162826  0.163440      2.000000
 -0.000137 -0.162401  0.162808      2.000000
  0.241043 -0.162929  0.162082      2.000000
 -0.241317 -0.161873  0.163533      2.000000
 


--------------------------------------------------------------------------------------------------------




 Dimension of arrays:
   k-points           NKPTS =     14   k-points in BZ     NKDIM =     14   number of bands    NBANDS=    176
   number of dos      NEDOS =    301   number of ions     NIONS =     36
   non local maximal  LDIM  =      6   non local SUM 2l+1 LMDIM =     18
   total plane-waves  NPLWV = 144000
   max r-space proj   IRMAX =   6351   max aug-charges    IRDMAX=  13786
   dimension x,y,z NGX =    40 NGY =   60 NGZ =   60
   dimension x,y,z NGXF=    80 NGYF=  120 NGZF=  120
   support grid    NGXF=    80 NGYF=  120 NGZF=  120
   ions per type =               8  10   6  12
 NGX,Y,Z   is equivalent  to a cutoff of   9.65,  9.74,  9.76 a.u.
 NGXF,Y,Z  is equivalent  to a cutoff of  19.29, 19.48, 19.53 a.u.


 I would recommend the setting:
   dimension x,y,z NGX =    39 NGY =   58 NGZ =   58
 SYSTEM =  automatically generated by mexm         
 POSCAR =  generated by pypospack                  

 Startparameter for this run:
   NWRITE =      2    write-flag & timer
   PREC   = accura    normal or accurate (medium, high low for compatibility)
   ISTART =      0    job   : 0-new  1-cont  2-samecut
   ICHARG =      2    charge: 1-file 2-atom 10-const
   ISPIN  =      1    spin polarized calculation?
   LNONCOLLINEAR =      F non collinear calculations
   LSORBIT =      F    spin-orbit coupling
   INIWAV =      1    electr: 0-lowe 1-rand  2-diag
   LASPH  =      F    aspherical Exc in radial PAW
   METAGGA=      F    non-selfconsistent MetaGGA calc.

 Electronic Relaxation 1
   ENCUT  =  300.0 eV  22.05 Ry    4.70 a.u.   9.74 14.46 14.43*2*pi/ulx,y,z
   ENINI  =  300.0     initial cutoff
   ENAUG  =  461.3 eV  augmentation charge cutoff
   NELM   =     70;   NELMIN=  2; NELMDL= -5     # of ELM steps 
   EDIFF  = 0.1E-04   stopping-criterion for ELM
   LREAL  =      T    real-space projection
   NLSPLINE    = F    spline interpolate recip. space projectors
   LCOMPAT=      F    compatible to vasp.4.4
   GGA_COMPAT  = T    GGA compatible to vasp.4.4-vasp.4.6
   LMAXPAW     = -100 max onsite density
   LMAXMIX     =    2 max onsite mixed and CHGCAR
   VOSKOWN=      0    Vosko Wilk Nusair interpolation
   ROPT   =   -0.00025  -0.00025  -0.00025  -0.00025
 Ionic relaxation
   EDIFFG = -.1E-01   stopping-criterion for IOM
   NSW    =    300    number of steps for IOM
   NBLOCK =      1;   KBLOCK =    300    inner block; outer block 
   IBRION =      2    ionic relax: 0-MD 1-quasi-New 2-CG
   NFREE  =      1    steps in history (QN), initial steepest desc. (CG)
   ISIF   =      3    stress and relaxation
   IWAVPR =     11    prediction:  0-non 1-charg 2-wave 3-comb
   ISYM   =      1    0-nonsym 1-usesym 2-fastsym
   LCORR  =      T    Harris-Foulkes like correction to forces

   POTIM  = 0.1500    time-step for ionic-motion
   TEIN   =    0.0    initial temperature
   TEBEG  =    0.0;   TEEND  =   0.0 temperature during run
   SMASS  =  -3.00    Nose mass-parameter (am)
   estimated Nose-frequenzy (Omega)   =  0.10E-29 period in steps =****** mass=  -0.109E-26a.u.
   SCALEE = 1.0000    scale energy and forces
   NPACO  =    256;   APACO  = 16.0  distance and # of slots for P.C.
   PSTRESS=    0.0 pullay stress

  Mass of Ions in am
   POMASS = 180.95 92.91 91.22178.49
  Ionic Valenz
   ZVAL   =   5.00 13.00 12.00  4.00
  Atomic Wigner-Seitz radii
   RWIGS  =  -1.00 -1.00 -1.00 -1.00
  virtual crystal weights 
   VCA    =   1.00  1.00  1.00  1.00
   NELECT =     290.0000    total number of electrons
   NUPDOWN=      -1.0000    fix difference up-down

 DOS related values:
   EMIN   =  10.00;   EMAX   =-10.00  energy-range for DOS
   EFERMI =   0.00
   ISMEAR =     1;   SIGMA  =   0.15  broadening in eV -4-tet -1-fermi 0-gaus

 Electronic relaxation 2 (details)
   IALGO  =     68    algorithm
   LDIAG  =      T    sub-space diagonalisation (order eigenvalues)
   LSUBROT=      F    optimize rotation matrix (better conditioning)
   TURBO    =      0    0=normal 1=particle mesh
   IRESTART =      0    0=no restart 2=restart with 2 vectors
   NREBOOT  =      0    no. of reboots
   NMIN     =      0    reboot dimension
   EREF     =   0.00    reference energy to select bands
   IMIX   =      4    mixing-type and parameters
     AMIX     =   0.40;   BMIX     =  1.00
     AMIX_MAG =   1.60;   BMIX_MAG =  1.00
     AMIN     =   0.10
     WC   =   100.;   INIMIX=   1;  MIXPRE=   1;  MAXMIX= -45

 Intra band minimization:
   WEIMIN = 0.0010     energy-eigenvalue tresh-hold
   EBREAK =  0.14E-07  absolut break condition
   DEPER  =   0.30     relativ break condition  

   TIME   =   0.40     timestep for ELM

  volume/ion in A,a.u.               =      20.04       135.22
  Fermi-wavevector in a.u.,A,eV,Ry     =   1.208242  2.283246 19.862442  1.459848
  Thomas-Fermi vector in A             =   2.343855
 
 Write flags
   LWAVE  =      F    write WAVECAR
   LCHARG =      F    write CHGCAR
   LVTOT  =      F    write LOCPOT, total local potential
   LVHAR  =      F    write LOCPOT, Hartree potential only
   LELF   =      F    write electronic localiz. function (ELF)
   LORBIT =      0    0 simple, 1 ext, 2 COOP (PROOUT)


 Dipole corrections
   LMONO  =      F    monopole corrections only (constant potential shift)
   LDIPOL =      F    correct potential (dipole corrections)
   IDIPOL =      0    1-x, 2-y, 3-z, 4-all directions 
   EPSILON=  1.0000000 bulk dielectric constant

 Exchange correlation treatment:
   GGA     =    --    GGA type
   LEXCH   =     8    internal setting for exchange type
   VOSKOWN=      0    Vosko Wilk Nusair interpolation
   LHFCALC =     F    Hartree Fock is set to
   LHFONE  =     F    Hartree Fock one center treatment
   AEXX    =    0.0000 exact exchange contribution

 Linear response parameters
   LEPSILON=     F    determine dielectric tensor
   LRPA    =     F    only Hartree local field effects (RPA)
   LNABLA  =     F    use nabla operator in PAW spheres
   LVEL    =     F    velocity operator in full k-point grid
   LINTERFAST=   F  fast interpolation
   KINTER  =     0    interpolate to denser k-point grid
   CSHIFT  =0.1000    complex shift for real part using Kramers Kronig
   OMEGAMAX=  -1.0    maximum frequency
   DEG_THRESHOLD= 0.2000000E-02 threshold for treating states as degnerate
   RTIME   =    0.100 relaxation time in fs

 Orbital magnetization related:
   ORBITALMAG=     F  switch on orbital magnetization
   LCHIMAG   =     F  perturbation theory with respect to B field
   DQ        =  0.001000  dq finite difference perturbation B field



--------------------------------------------------------------------------------------------------------


 conjugate gradient relaxation of ions
 charge density and potential will be updated during run
 non-spin polarized calculation
 RMM-DIIS sequential band-by-band and
  variant of blocked Davidson during initial phase
 perform sub-space diagonalisation
    before iterative eigenvector-optimisation
 modified Broyden-mixing scheme, WC =      100.0
 initial mixing is a Kerker type mixing with AMIX =  0.4000 and BMIX =      1.0000
 Hartree-type preconditioning will be used
 using additional bands           31
 real space projection scheme for non local part
 use partial core corrections
 calculate Harris-corrections to forces 
   (improved forces if not selfconsistent)
 use gradient corrections 
 use of overlap-Matrix (Vanderbilt PP)
 Methfessel and Paxton  Order N= 1 SIGMA  =   0.15


--------------------------------------------------------------------------------------------------------


  energy-cutoff  :      300.00
  volume of cell :      721.37
      direct lattice vectors                 reciprocal lattice vectors
     6.894408099  0.015099614  0.020881066     0.145047101 -0.000317618 -0.000436462
     0.022437418 10.241988115  0.003307250    -0.000213754  0.097637771 -0.000028009
     0.030747943  0.002997974 10.216113751    -0.000296398 -0.000030959  0.097885481

  length of vectors
     6.894456255 10.242013226 10.216160463     0.145048106  0.097638009  0.097885934


 
 k-points in units of 2pi/SCALE and weight: k-points                                
   0.00000000  0.00000000  0.00000000       0.037
   0.24117997 -0.00052813 -0.00072574       0.074
  -0.00035542  0.16234916 -0.00004657       0.074
   0.24082454  0.16182103 -0.00077231       0.074
  -0.24153539  0.16287728  0.00067916       0.074
  -0.00049284 -0.00005148  0.16276104       0.074
   0.24068713 -0.00057960  0.16203530       0.074
  -0.24167281  0.00047665  0.16348678       0.074
  -0.00084826  0.16229768  0.16271447       0.074
   0.24033170  0.16176955  0.16198873       0.074
  -0.24202823  0.16282580  0.16344020       0.074
  -0.00013742 -0.16240063  0.16280761       0.074
   0.24104255 -0.16292876  0.16208188       0.074
  -0.24131739 -0.16187251  0.16353335       0.074
 
 k-points in reciprocal lattice and weights: k-points                                
   0.00000000  0.00000000  0.00000000       0.037
   0.33333333 -0.00000000 -0.00000000       0.074
   0.00000000  0.33333333 -0.00000000       0.074
   0.33333333  0.33333333 -0.00000000       0.074
  -0.33333333  0.33333333  0.00000000       0.074
   0.00000000 -0.00000000  0.33333333       0.074
   0.33333333  0.00000000  0.33333333       0.074
  -0.33333333  0.00000000  0.33333333       0.074
   0.00000000  0.33333333  0.33333333       0.074
   0.33333333  0.33333333  0.33333333       0.074
  -0.33333333  0.33333333  0.33333333       0.074
  -0.00000000 -0.33333333  0.33333333       0.074
   0.33333333 -0.33333333  0.33333333       0.074
  -0.33333333 -0.33333333  0.33333333       0.074
 
 position of ions in fractional coordinates (direct lattice) 
   0.25080400  0.16516000  0.50880500
   0.03440100  0.33447100  0.34759100
   0.01438300  0.33036400  0.67091900
   0.26412900  0.50246600  0.83728700
   0.28290900  0.84144100  0.51730400
   0.24433400  0.81667500  0.14606300
   0.48281000  0.33151900  0.66717500
   0.48995200  0.31721500  0.99376200
   0.50302000  0.67620400  0.99839900
   0.73889000  0.82158200  0.83320100
   0.23075600  0.17429500  0.16661900
   0.24625600  0.49720000  0.51530900
   0.99788700  0.67365200  0.99267500
   0.49439700  0.00644600  0.67941100
   0.73661100  0.17849000  0.81758400
   0.75866100  0.82201300  0.15887800
   0.26093500  0.16832700  0.82304400
   0.49080700  0.66526100  0.66958800
   0.75302700  0.48954500  0.50033900
   0.99438100  0.99736500  0.99595700
   0.00667700  0.32308900  0.98162800
   0.00595100  0.66941900  0.66597400
   0.48447400  0.99814400  0.31717800
   0.75229500  0.49843300  0.16545300
   0.26295300  0.82596400  0.83676000
   0.72221700  0.84261600  0.50755700
   0.00492800  0.99980700  0.67400900
   0.73279400  0.49882900  0.83328900
   0.24856000  0.50635700  0.14824300
   0.01565700  0.67651500  0.34286600
   0.50236900  0.00342600  0.99946400
   0.75182600  0.17122900  0.50051500
   0.48653000  0.66860100  0.33351300
   0.46606700  0.33653100  0.33597800
   0.02028500  0.98917000  0.33389300
   0.76705400  0.18218900  0.18376600
 
 position of ions in cartesian coordinates  (Angst):
   1.74849560  1.69687919  5.20379304
   0.25536691  3.42720952  3.55285370
   0.12720417  3.38581274  6.85557775
   1.85803201  5.15274921  8.56099631
   1.98527590  8.62385140  5.29352680
   1.70735352  8.36850289  1.49999913
   3.35664186  3.40470408  6.82711370
   3.41560266  3.25928962 10.16366546
   3.51389615  6.93626191 10.21249772
   5.13826260  8.42828795  8.53022218
   1.59995996  1.78911116  1.70759353
   1.72478994  5.09757974  5.27124181
   6.92547794  6.91757950 10.16434560
   3.42960980  0.07552192  6.95128491
   5.10764073  1.84166610  8.36850268
   5.25384756  8.43097918  1.64167597
   1.82807611  1.73041062  8.41431643
   3.41933895  6.82301366  6.85303593
   5.21804397  5.02678449  5.12886319
   6.90867034 10.23300110 10.19887227
   0.08346629  3.31211741 10.02963127
   0.07652599  6.85826787  6.80600434
   3.37230981 10.23124525  3.25374397
   5.20289963  5.11680025  1.70764383
   1.85716644  8.46599255  8.55665775
   5.01377120  8.64248990  5.20312745
   0.07713312 10.24210648  6.88916213
   5.08899525  5.12256378  8.52992648
   1.72959359  5.19029996  1.52133220
   0.13366742  6.93012291  3.50532240
   3.49434523  0.04567100 10.22113925
   5.20262701  1.76657820  5.12958340
   3.37959289  6.85614977  3.41957724
   3.23113762  3.45479119  3.44323443
   0.17231401 10.13237468  3.41478387
   5.29812159  1.87811072  1.89399381
 


--------------------------------------------------------------------------------------------------------


 k-point  1 :   0.0000 0.0000 0.0000  plane waves:    8575
 k-point  2 :   0.3333-0.0000-0.0000  plane waves:    8507
 k-point  3 :   0.0000 0.3333-0.0000  plane waves:    8507
 k-point  4 :   0.3333 0.3333-0.0000  plane waves:    8507
 k-point  5 :  -0.3333 0.3333 0.0000  plane waves:    8504
 k-point  6 :   0.0000-0.0000 0.3333  plane waves:    8506
 k-point  7 :   0.3333 0.0000 0.3333  plane waves:    8502
 k-point  8 :  -0.3333 0.0000 0.3333  plane waves:    8504
 k-point  9 :   0.0000 0.3333 0.3333  plane waves:    8514
 k-point 10 :   0.3333 0.3333 0.3333  plane waves:    8516
 k-point 11 :  -0.3333 0.3333 0.3333  plane waves:    8510
 k-point 12 :  -0.0000-0.3333 0.3333  plane waves:    8513
 k-point 13 :   0.3333-0.3333 0.3333  plane waves:    8510
 k-point 14 :  -0.3333-0.3333 0.3333  plane waves:    8509

 maximum and minimum number of plane-waves per node :      1723     1678

 maximum number of plane-waves:      8575
 maximum index in each direction: 
   IXMAX=   10   IYMAX=   14   IZMAX=   14
   IXMIN=  -10   IYMIN=  -14   IZMIN=  -14

 WARNING: aliasing errors must be expected set NGX to  42 to avoid them
 NGY is ok and might be reduce to  58
 NGZ is ok and might be reduce to  58
 aliasing errors are usually negligible using standard VASP settings
 and one can safely disregard these warnings

 real space projection operators:
  total allocation   :      27951.33 KBytes
  max/ min on nodes  :       5624.58       5552.86


 parallel 3D FFT for wavefunctions:
    minimum data exchange during FFTs selected (reduces bandwidth)
 parallel 3D FFT for charge:
    minimum data exchange during FFTs selected (reduces bandwidth)


 total amount of memory used by VASP on root node    67416. kBytes
========================================================================

   base      :      30000. kBytes
   nonlr-proj:      10707. kBytes
   fftplans  :       2814. kBytes
   grid      :       5360. kBytes
   one-center:        124. kBytes
   wavefun   :      18411. kBytes
 
     INWAV:  cpu time    0.0000: real time    0.0000
 Broyden mixing: mesh for mixing (old mesh)
   NGX = 19   NGY = 29   NGZ = 29
  (NGX  = 80   NGY  =120   NGZ  =120)
  gives a total of  15979 points

 initial charge density was supplied:
 charge density of overlapping atoms calculated
 number of electron     290.0000000 magnetization 
 keeping initial charge density in first step


--------------------------------------------------------------------------------------------------------


 Maximum index for non-local projection operator         1245
 Maximum index for augmentation-charges          679 (set IRDMAX)


--------------------------------------------------------------------------------------------------------


 First call to EWALD:  gamma=   0.198
 Maximum number of real-space cells 3x 2x 2
 Maximum number of reciprocal cells 2x 3x 3

 FEWALD executed in parallel
    FEWALD:  cpu time    0.0754: real time    0.0764


----------------------------------------- Iteration    1(   1)  ---------------------------------------


    POTLOK:  cpu time    0.0485: real time    0.0823
    SETDIJ:  cpu time    0.0633: real time    0.0644
     EDDAV:  cpu time    1.0218: real time    1.0309
       DOS:  cpu time    0.0024: real time    0.0024
    --------------------------------------------
      LOOP:  cpu time    1.1445: real time    1.5192

 eigenvalue-minimisations  :  5456
 total energy-change (2. order) : 0.1809075E+04  (-0.1093859E+05)
 number of electron     290.0000000 magnetization 
 augmentation part      290.0000000 magnetization 

 Free energy of the ion-electron system (eV)
  ---------------------------------------------------
  alpha Z        PSCENC =      1482.86784787
  Ewald energy   TEWEN  =    -19040.63139815
  -Hartree energ DENC   =     -7010.40200567
  -exchange      EXHF   =         0.00000000
  -V(xc)+E(xc)   XCENC  =      -302.39878417
  PAW double counting   =     21359.22518312   -19759.38561174
  entropy T*S    EENTRO =        -0.00178597
  eigenvalues    EBANDS =      -132.33428693
  atomic energy  EATOM  =     25212.13580000
  Solvation  Ediel_sol  =         0.00000000
  ---------------------------------------------------
  free energy    TOTEN  =      1809.07495836 eV

  energy without entropy =     1809.07674433  energy(sigma->0) =     1809.07555368


--------------------------------------------------------------------------------------------------------




----------------------------------------- Iteration    1(   2)  ---------------------------------------


     EDDAV:  cpu time    1.0836: real time    1.0920
       DOS:  cpu time    0.0016: real time    0.0016
    --------------------------------------------
      LOOP:  cpu time    1.0867: real time    1.2644

 eigenvalue-minimisations  :  5792
 total energy-change (2. order) :-0.1920723E+04  (-0.1852503E+04)
 number of electron     290.0000000 magnetization 
 augmentation part      290.0000000 magnetization 

 Free energy of the ion-electron system (eV)
  ---------------------------------------------------
  alpha Z        PSCENC =      1482.86784787
  Ewald energy   TEWEN  =    -19040.63139815
  -Hartree energ DENC   =     -7010.40200567
  -exchange      EXHF   =         0.00000000
  -V(xc)+E(xc)   XCENC  =      -302.39878417
  PAW double counting   =     21359.22518312   -19759.38561174
  entropy T*S    EENTRO =        -0.01465334
  eigenvalues    EBANDS =     -2053.04401411
  atomic energy  EATOM  =     25212.13580000
  Solvation  Ediel_sol  =         0.00000000
  ---------------------------------------------------
  free energy    TOTEN  =      -111.64763618 eV

  energy without entropy =     -111.63298285  energy(sigma->0) =     -111.64275174


--------------------------------------------------------------------------------------------------------




----------------------------------------- Iteration    1(   3)  ---------------------------------------


     EDDAV:  cpu time    1.3575: real time    1.3710
       DOS:  cpu time    0.0016: real time    0.0016
    --------------------------------------------
      LOOP:  cpu time    1.3595: real time    1.4171

 eigenvalue-minimisations  :  8296
 total energy-change (2. order) :-0.2384028E+03  (-0.2264571E+03)
 number of electron     290.0000000 magnetization 
 augmentation part      290.0000000 magnetization 

 Free energy of the ion-electron system (eV)
  ---------------------------------------------------
  alpha Z        PSCENC =      1482.86784787
  Ewald energy   TEWEN  =    -19040.63139815
  -Hartree energ DENC   =     -7010.40200567
  -exchange      EXHF   =         0.00000000
  -V(xc)+E(xc)   XCENC  =      -302.39878417
  PAW double counting   =     21359.22518312   -19759.38561174
  entropy T*S    EENTRO =        -0.00947652
  eigenvalues    EBANDS =     -2291.45199203
  atomic energy  EATOM  =     25212.13580000
  Solvation  Ediel_sol  =         0.00000000
  ---------------------------------------------------
  free energy    TOTEN  =      -350.05043728 eV

  energy without entropy =     -350.04096076  energy(sigma->0) =     -350.04727844


--------------------------------------------------------------------------------------------------------




----------------------------------------- Iteration    1(   4)  ---------------------------------------


     EDDAV:  cpu time    1.3625: real time    1.3780
       DOS:  cpu time    0.0015: real time    0.0015
    --------------------------------------------
      LOOP:  cpu time    1.3645: real time    1.4192

 eigenvalue-minimisations  :  8360
 total energy-change (2. order) :-0.2682959E+02  (-0.2563154E+02)
 number of electron     290.0000000 magnetization 
 augmentation part      290.0000000 magnetization 

 Free energy of the ion-electron system (eV)
  ---------------------------------------------------
  alpha Z        PSCENC =      1482.86784787
  Ewald energy   TEWEN  =    -19040.63139815
  -Hartree energ DENC   =     -7010.40200567
  -exchange      EXHF   =         0.00000000
  -V(xc)+E(xc)   XCENC  =      -302.39878417
  PAW double counting   =     21359.22518312   -19759.38561174
  entropy T*S    EENTRO =        -0.00347545
  eigenvalues    EBANDS =     -2318.28758610
  atomic energy  EATOM  =     25212.13580000
  Solvation  Ediel_sol  =         0.00000000
  ---------------------------------------------------
  free energy    TOTEN  =      -376.88003028 eV

  energy without entropy =     -376.87655483  energy(sigma->0) =     -376.87887180


--------------------------------------------------------------------------------------------------------




----------------------------------------- Iteration    1(   5)  ---------------------------------------


     EDDAV:  cpu time    1.3459: real time    1.3566
       DOS:  cpu time    0.0015: real time    0.0015
    CHARGE:  cpu time    0.0968: real time    0.0971
    MIXING:  cpu time    0.0015: real time    0.0015
    --------------------------------------------
      LOOP:  cpu time    1.4462: real time    1.4994

 eigenvalue-minimisations  :  7920
 total energy-change (2. order) :-0.2645225E+01  (-0.2599051E+01)
 number of electron     289.9999997 magnetization 
 augmentation part       18.1867041 magnetization 

 Broyden mixing:
  rms(total) = 0.62799E+01    rms(broyden)= 0.62795E+01
  rms(prec ) = 0.65760E+01
  weight for this iteration     100.00

 Free energy of the ion-electron system (eV)
  ---------------------------------------------------
  alpha Z        PSCENC =      1482.86784787
  Ewald energy   TEWEN  =    -19040.63139815
  -Hartree energ DENC   =     -7010.40200567
  -exchange      EXHF   =         0.00000000
  -V(xc)+E(xc)   XCENC  =      -302.39878417
  PAW double counting   =     21359.22518312   -19759.38561174
  entropy T*S    EENTRO =        -0.00205195
  eigenvalues    EBANDS =     -2320.93423413
  atomic energy  EATOM  =     25212.13580000
  Solvation  Ediel_sol  =         0.00000000
  ---------------------------------------------------
  free energy    TOTEN  =      -379.52525481 eV

  energy without entropy =     -379.52320286  energy(sigma->0) =     -379.52457083


--------------------------------------------------------------------------------------------------------




----------------------------------------- Iteration    1(   6)  ---------------------------------------


    POTLOK:  cpu time    0.0774: real time    0.0777
    SETDIJ:  cpu time    0.0065: real time    0.0065
    EDDIAG:  cpu time    0.1427: real time    0.1448
  RMM-DIIS:  cpu time    0.7897: real time    0.8509
    ORTHCH:  cpu time    0.0121: real time    0.0126
       DOS:  cpu time    0.0219: real time    0.0221
    CHARGE:  cpu time    0.0365: real time    0.0397
    MIXING:  cpu time    0.0014: real time    0.0025
    --------------------------------------------
      LOOP:  cpu time    1.0892: real time    1.2323

 eigenvalue-minimisations  :  6909
 total energy-change (2. order) : 0.1018776E+02  (-0.2566019E+01)
 number of electron     289.9999997 magnetization 
 augmentation part       18.8712240 magnetization 

 Broyden mixing:
  rms(total) = 0.30426E+01    rms(broyden)= 0.30425E+01
  rms(prec ) = 0.33549E+01
  weight for this iteration     100.00

 eigenvalues of (default mixing * dielectric matrix)
  average eigenvalue GAMMA=   1.8305
  1.8305

 Free energy of the ion-electron system (eV)
  ---------------------------------------------------
  alpha Z        PSCENC =      1482.86784787
  Ewald energy   TEWEN  =    -19040.63139815
  -Hartree energ DENC   =     -6865.24268703
  -exchange      EXHF   =         0.00000000
  -V(xc)+E(xc)   XCENC  =      -305.09743705
  PAW double counting   =     26537.23518905   -24943.77100523
  entropy T*S    EENTRO =        -0.00332644
  eigenvalues    EBANDS =     -2446.83047975
  atomic energy  EATOM  =     25212.13580000
  Solvation  Ediel_sol  =         0.00000000
  ---------------------------------------------------
  free energy    TOTEN  =      -369.33749672 eV

  energy without entropy =     -369.33417028  energy(sigma->0) =     -369.33638791


--------------------------------------------------------------------------------------------------------




----------------------------------------- Iteration    1(   7)  ---------------------------------------


    POTLOK:  cpu time    0.0267: real time    0.0283
    SETDIJ:  cpu time    0.0035: real time    0.0035
    EDDIAG:  cpu time    0.0796: real time    0.0799
  RMM-DIIS:  cpu time    0.7853: real time    0.7910
    ORTHCH:  cpu time    0.0118: real time    0.0119
       DOS:  cpu time    0.0016: real time    0.0016
    CHARGE:  cpu time    0.0296: real time    0.0297
    MIXING:  cpu time    0.0012: real time    0.0013
    --------------------------------------------
      LOOP:  cpu time    0.9400: real time    1.0417

 eigenvalue-minimisations  :  7466
 total energy-change (2. order) :-0.1758659E+01  (-0.2901237E+01)
 number of electron     289.9999997 magnetization 
 augmentation part       19.3852753 magnetization 

 Broyden mixing:
  rms(total) = 0.12236E+01    rms(broyden)= 0.12231E+01
  rms(prec ) = 0.32510E+01
  weight for this iteration     100.00

 eigenvalues of (default mixing * dielectric matrix)
  average eigenvalue GAMMA=   1.1734
  1.8370  0.5098

 Free energy of the ion-electron system (eV)
  ---------------------------------------------------
  alpha Z        PSCENC =      1482.86784787
  Ewald energy   TEWEN  =    -19040.63139815
  -Hartree energ DENC   =     -6764.03400035
  -exchange      EXHF   =         0.00000000
  -V(xc)+E(xc)   XCENC  =      -304.50218134
  PAW double counting   =     31211.25364458   -29612.44709409
  entropy T*S    EENTRO =         0.00061522
  eigenvalues    EBANDS =     -2555.73938972
  atomic energy  EATOM  =     25212.13580000
  Solvation  Ediel_sol  =         0.00000000
  ---------------------------------------------------
  free energy    TOTEN  =      -371.09615597 eV

  energy without entropy =     -371.09677119  energy(sigma->0) =     -371.09636104


--------------------------------------------------------------------------------------------------------




----------------------------------------- Iteration    1(   8)  ---------------------------------------


    POTLOK:  cpu time    0.0296: real time    0.0298
    SETDIJ:  cpu time    0.0037: real time    0.0037
    EDDIAG:  cpu time    0.0745: real time    0.0747
  RMM-DIIS:  cpu time    0.7505: real time    0.7567
    ORTHCH:  cpu time    0.0126: real time    0.0127
       DOS:  cpu time    0.0016: real time    0.0016
    CHARGE:  cpu time    0.0302: real time    0.0303
    MIXING:  cpu time    0.0014: real time    0.0015
    --------------------------------------------
      LOOP:  cpu time    0.9049: real time    0.9707

 eigenvalue-minimisations  :  7238
 total energy-change (2. order) : 0.6152750E+01  (-0.7465339E+00)
 number of electron     289.9999997 magnetization 
 augmentation part       19.1804775 magnetization 

 Broyden mixing:
  rms(total) = 0.45483E+00    rms(broyden)= 0.45419E+00
  rms(prec ) = 0.82889E+00
  weight for this iteration     100.00

 eigenvalues of (default mixing * dielectric matrix)
  average eigenvalue GAMMA=   1.1107
  1.8386  1.0717  0.4218

 Free energy of the ion-electron system (eV)
  ---------------------------------------------------
  alpha Z        PSCENC =      1482.86784787
  Ewald energy   TEWEN  =    -19040.63139815
  -Hartree energ DENC   =     -6772.61261641
  -exchange      EXHF   =         0.00000000
  -V(xc)+E(xc)   XCENC  =      -303.54865272
  PAW double counting   =     32429.32045128   -30826.85776098
  entropy T*S    EENTRO =         0.00333917
  eigenvalues    EBANDS =     -2545.62041642
  atomic energy  EATOM  =     25212.13580000
  Solvation  Ediel_sol  =         0.00000000
  ---------------------------------------------------
  free energy    TOTEN  =      -364.94340635 eV

  energy without entropy =     -364.94674552  energy(sigma->0) =     -364.94451940


--------------------------------------------------------------------------------------------------------




----------------------------------------- Iteration    1(   9)  ---------------------------------------


    POTLOK:  cpu time    0.0356: real time    0.0367
    SETDIJ:  cpu time    0.0045: real time    0.0045
    EDDIAG:  cpu time    0.0863: real time    0.0868
  RMM-DIIS:  cpu time    0.7770: real time    0.7922
    ORTHCH:  cpu time    0.0121: real time    0.0122
       DOS:  cpu time    0.0025: real time    0.0025
    CHARGE:  cpu time    0.0297: real time    0.0297
    MIXING:  cpu time    0.0013: real time    0.0013
    --------------------------------------------
      LOOP:  cpu time    0.9498: real time    1.0356

 eigenvalue-minimisations  :  7547
 total energy-change (2. order) : 0.3442562E+00  (-0.2683013E+00)
 number of electron     289.9999998 magnetization 
 augmentation part       19.0696081 magnetization 

 Broyden mixing:
  rms(total) = 0.28794E+00    rms(broyden)= 0.28776E+00
  rms(prec ) = 0.41732E+00
  weight for this iteration     100.00

 eigenvalues of (default mixing * dielectric matrix)
  average eigenvalue GAMMA=   1.0724
  1.7185  1.7185  0.4519  0.4006

 Free energy of the ion-electron system (eV)
  ---------------------------------------------------
  alpha Z        PSCENC =      1482.86784787
  Ewald energy   TEWEN  =    -19040.63139815
  -Hartree energ DENC   =     -6778.08877569
  -exchange      EXHF   =         0.00000000
  -V(xc)+E(xc)   XCENC  =      -302.93356598
  PAW double counting   =     32648.07892692   -31042.21322388
  entropy T*S    EENTRO =         0.00523604
  eigenvalues    EBANDS =     -2543.81999731
  atomic energy  EATOM  =     25212.13580000
  Solvation  Ediel_sol  =         0.00000000
  ---------------------------------------------------
  free energy    TOTEN  =      -364.59915017 eV

  energy without entropy =     -364.60438621  energy(sigma->0) =     -364.60089551


--------------------------------------------------------------------------------------------------------




----------------------------------------- Iteration    1(  10)  ---------------------------------------


    POTLOK:  cpu time    0.0298: real time    0.0299
    SETDIJ:  cpu time    0.0036: real time    0.0036
    EDDIAG:  cpu time    0.1438: real time    0.1443
  RMM-DIIS:  cpu time    0.8553: real time    0.8613
    ORTHCH:  cpu time    0.0116: real time    0.0127
       DOS:  cpu time    0.0013: real time    0.0013
    CHARGE:  cpu time    0.0294: real time    0.0295
    MIXING:  cpu time    0.0014: real time    0.0014
    --------------------------------------------
      LOOP:  cpu time    1.0769: real time    1.1584

 eigenvalue-minimisations  :  7541
 total energy-change (2. order) : 0.2821941E-01  (-0.5532206E-01)
 number of electron     289.9999998 magnetization 
 augmentation part       18.9920295 magnetization 

 Broyden mixing:
  rms(total) = 0.16259E+00    rms(broyden)= 0.16255E+00
  rms(prec ) = 0.29585E+00
  weight for this iteration     100.00

 eigenvalues of (default mixing * dielectric matrix)
  average eigenvalue GAMMA=   1.0760
  1.8953  1.8953  0.7311  0.4642  0.3940

 Free energy of the ion-electron system (eV)
  ---------------------------------------------------
  alpha Z        PSCENC =      1482.86784787
  Ewald energy   TEWEN  =    -19040.63139815
  -Hartree energ DENC   =     -6787.18503833
  -exchange      EXHF   =         0.00000000
  -V(xc)+E(xc)   XCENC  =      -302.09055589
  PAW double counting   =     32884.95303882   -31273.00574554
  entropy T*S    EENTRO =         0.00827123
  eigenvalues    EBANDS =     -2541.62315076
  atomic energy  EATOM  =     25212.13580000
  Solvation  Ediel_sol  =         0.00000000
  ---------------------------------------------------
  free energy    TOTEN  =      -364.57093075 eV

  energy without entropy =     -364.57920198  energy(sigma->0) =     -364.57368783


--------------------------------------------------------------------------------------------------------




----------------------------------------- Iteration    1(  11)  ---------------------------------------


    POTLOK:  cpu time    0.0275: real time    0.0276
    SETDIJ:  cpu time    0.0035: real time    0.0035
    EDDIAG:  cpu time    0.0744: real time    0.0749
  RMM-DIIS:  cpu time    0.8582: real time    0.8646
    ORTHCH:  cpu time    0.0408: real time    0.0409
       DOS:  cpu time    0.0008: real time    0.0008
    CHARGE:  cpu time    0.0302: real time    0.0308
    MIXING:  cpu time    0.0014: real time    0.0015
    --------------------------------------------
      LOOP:  cpu time    1.0376: real time    1.1059

 eigenvalue-minimisations  :  7474
 total energy-change (2. order) : 0.3805148E-01  (-0.1707746E-01)
 number of electron     289.9999997 magnetization 
 augmentation part       18.9643699 magnetization 

 Broyden mixing:
  rms(total) = 0.85488E-01    rms(broyden)= 0.85419E-01
  rms(prec ) = 0.15913E+00
  weight for this iteration     100.00

 eigenvalues of (default mixing * dielectric matrix)
  average eigenvalue GAMMA=   1.0469
  2.0106  2.0106  0.9812  0.4628  0.4628  0.3532

 Free energy of the ion-electron system (eV)
  ---------------------------------------------------
  alpha Z        PSCENC =      1482.86784787
  Ewald energy   TEWEN  =    -19040.63139815
  -Hartree energ DENC   =     -6792.51824903
  -exchange      EXHF   =         0.00000000
  -V(xc)+E(xc)   XCENC  =      -301.66847606
  PAW double counting   =     33028.97022261   -31413.36849644
  entropy T*S    EENTRO =         0.00668805
  eigenvalues    EBANDS =     -2540.32681814
  atomic energy  EATOM  =     25212.13580000
  Solvation  Ediel_sol  =         0.00000000
  ---------------------------------------------------
  free energy    TOTEN  =      -364.53287927 eV

  energy without entropy =     -364.53956732  energy(sigma->0) =     -364.53510862


--------------------------------------------------------------------------------------------------------




----------------------------------------- Iteration    1(  12)  ---------------------------------------


    POTLOK:  cpu time    0.0282: real time    0.0318
    SETDIJ:  cpu time    0.0038: real time    0.0040
    EDDIAG:  cpu time    0.0744: real time    0.1397
  RMM-DIIS:  cpu time    0.8076: real time    0.8301
    ORTHCH:  cpu time    0.0118: real time    0.0118
       DOS:  cpu time    0.0012: real time    0.0012
    CHARGE:  cpu time    0.0294: real time    0.0295
    MIXING:  cpu time    0.0014: real time    0.0014
    --------------------------------------------
      LOOP:  cpu time    0.9586: real time    1.1025

 eigenvalue-minimisations  :  7533
 total energy-change (2. order) : 0.7265243E-02  (-0.5806380E-02)
 number of electron     289.9999997 magnetization 
 augmentation part       18.9611612 magnetization 

 Broyden mixing:
  rms(total) = 0.45462E-01    rms(broyden)= 0.45441E-01
  rms(prec ) = 0.71011E-01
  weight for this iteration     100.00

 eigenvalues of (default mixing * dielectric matrix)
  average eigenvalue GAMMA=   1.0290
  2.2138  1.9685  1.1402  0.5719  0.5719  0.3834  0.3535

 Free energy of the ion-electron system (eV)
  ---------------------------------------------------
  alpha Z        PSCENC =      1482.86784787
  Ewald energy   TEWEN  =    -19040.63139815
  -Hartree energ DENC   =     -6792.96148855
  -exchange      EXHF   =         0.00000000
  -V(xc)+E(xc)   XCENC  =      -301.49785857
  PAW double counting   =     33145.92751185   -31527.96266738
  entropy T*S    EENTRO =         0.00715508
  eigenvalues    EBANDS =     -2542.41051618
  atomic energy  EATOM  =     25212.13580000
  Solvation  Ediel_sol  =         0.00000000
  ---------------------------------------------------
  free energy    TOTEN  =      -364.52561403 eV

  energy without entropy =     -364.53276911  energy(sigma->0) =     -364.52799906


--------------------------------------------------------------------------------------------------------




----------------------------------------- Iteration    1(  13)  ---------------------------------------


    POTLOK:  cpu time    0.0290: real time    0.0290
    SETDIJ:  cpu time    0.0036: real time    0.0036
    EDDIAG:  cpu time    0.0752: real time    0.0755
  RMM-DIIS:  cpu time    0.7800: real time    0.7856
    ORTHCH:  cpu time    0.0131: real time    0.0131
       DOS:  cpu time    0.0012: real time    0.0012
    CHARGE:  cpu time    0.0297: real time    0.0298
    MIXING:  cpu time    0.0015: real time    0.0015
    --------------------------------------------
      LOOP:  cpu time    0.9339: real time    0.9752

 eigenvalue-minimisations  :  7503
 total energy-change (2. order) : 0.1767603E-02  (-0.1908448E-02)
 number of electron     289.9999997 magnetization 
 augmentation part       18.9579606 magnetization 

 Broyden mixing:
  rms(total) = 0.26289E-01    rms(broyden)= 0.26270E-01
  rms(prec ) = 0.38781E-01
  weight for this iteration     100.00

 eigenvalues of (default mixing * dielectric matrix)
  average eigenvalue GAMMA=   1.0399
  2.2569  1.9573  1.4501  0.9075  0.5323  0.4700  0.3964  0.3486

 Free energy of the ion-electron system (eV)
  ---------------------------------------------------
  alpha Z        PSCENC =      1482.86784787
  Ewald energy   TEWEN  =    -19040.63139815
  -Hartree energ DENC   =     -6794.81739438
  -exchange      EXHF   =         0.00000000
  -V(xc)+E(xc)   XCENC  =      -301.40510324
  PAW double counting   =     33204.87460860   -31585.85977886
  entropy T*S    EENTRO =         0.00715179
  eigenvalues    EBANDS =     -2541.69558006
  atomic energy  EATOM  =     25212.13580000
  Solvation  Ediel_sol  =         0.00000000
  ---------------------------------------------------
  free energy    TOTEN  =      -364.52384643 eV

  energy without entropy =     -364.53099822  energy(sigma->0) =     -364.52623036


--------------------------------------------------------------------------------------------------------




----------------------------------------- Iteration    1(  14)  ---------------------------------------


    POTLOK:  cpu time    0.0289: real time    0.0290
    SETDIJ:  cpu time    0.0037: real time    0.0037
    EDDIAG:  cpu time    0.0753: real time    0.0755
  RMM-DIIS:  cpu time    0.8940: real time    0.8993
    ORTHCH:  cpu time    0.0117: real time    0.0117
       DOS:  cpu time    0.0013: real time    0.0013
    CHARGE:  cpu time    0.0295: real time    0.0295
    MIXING:  cpu time    0.0015: real time    0.0016
    --------------------------------------------
      LOOP:  cpu time    1.0464: real time    1.1026

 eigenvalue-minimisations  :  7690
 total energy-change (2. order) : 0.1946793E-03  (-0.7083448E-03)
 number of electron     289.9999997 magnetization 
 augmentation part       18.9602988 magnetization 

 Broyden mixing:
  rms(total) = 0.13819E-01    rms(broyden)= 0.13814E-01
  rms(prec ) = 0.22367E-01
  weight for this iteration     100.00

 eigenvalues of (default mixing * dielectric matrix)
  average eigenvalue GAMMA=   1.0517
  2.3991  2.0761  1.5384  1.0942  0.5915  0.5915  0.4331  0.3955  0.3456

 Free energy of the ion-electron system (eV)
  ---------------------------------------------------
  alpha Z        PSCENC =      1482.86784787
  Ewald energy   TEWEN  =    -19040.63139815
  -Hartree energ DENC   =     -6794.74329286
  -exchange      EXHF   =         0.00000000
  -V(xc)+E(xc)   XCENC  =      -301.40887934
  PAW double counting   =     33241.87840281   -31622.36515253
  entropy T*S    EENTRO =         0.00709583
  eigenvalues    EBANDS =     -2542.26407539
  atomic energy  EATOM  =     25212.13580000
  Solvation  Ediel_sol  =         0.00000000
  ---------------------------------------------------
  free energy    TOTEN  =      -364.52365175 eV

  energy without entropy =     -364.53074758  energy(sigma->0) =     -364.52601703


--------------------------------------------------------------------------------------------------------




----------------------------------------- Iteration    1(  15)  ---------------------------------------


    POTLOK:  cpu time    0.0288: real time    0.0289
    SETDIJ:  cpu time    0.0036: real time    0.0036
    EDDIAG:  cpu time    0.0745: real time    0.0747
  RMM-DIIS:  cpu time    0.8786: real time    0.8843
    ORTHCH:  cpu time    0.0118: real time    0.0119
       DOS:  cpu time    0.0107: real time    0.0107
    CHARGE:  cpu time    0.0449: real time    0.0451
    MIXING:  cpu time    0.0016: real time    0.0016
    --------------------------------------------
      LOOP:  cpu time    1.0552: real time    1.1020

 eigenvalue-minimisations  :  7729
 total energy-change (2. order) :-0.1049537E-03  (-0.3387189E-03)
 number of electron     289.9999997 magnetization 
 augmentation part       18.9599603 magnetization 

 Broyden mixing:
  rms(total) = 0.77492E-02    rms(broyden)= 0.77465E-02
  rms(prec ) = 0.14451E-01
  weight for this iteration     100.00

 eigenvalues of (default mixing * dielectric matrix)
  average eigenvalue GAMMA=   1.0421
  2.5739  2.1140  1.4036  1.4036  0.6544  0.6544  0.4447  0.4447  0.3435  0.3843

 Free energy of the ion-electron system (eV)
  ---------------------------------------------------
  alpha Z        PSCENC =      1482.86784787
  Ewald energy   TEWEN  =    -19040.63139815
  -Hartree energ DENC   =     -6794.77967615
  -exchange      EXHF   =         0.00000000
  -V(xc)+E(xc)   XCENC  =      -301.41076282
  PAW double counting   =     33259.93705857   -31640.12516579
  entropy T*S    EENTRO =         0.00716698
  eigenvalues    EBANDS =     -2542.52462722
  atomic energy  EATOM  =     25212.13580000
  Solvation  Ediel_sol  =         0.00000000
  ---------------------------------------------------
  free energy    TOTEN  =      -364.52375670 eV

  energy without entropy =     -364.53092369  energy(sigma->0) =     -364.52614570


--------------------------------------------------------------------------------------------------------




----------------------------------------- Iteration    1(  16)  ---------------------------------------


    POTLOK:  cpu time    0.0285: real time    0.0286
    SETDIJ:  cpu time    0.0036: real time    0.0037
    EDDIAG:  cpu time    0.1304: real time    0.1307
  RMM-DIIS:  cpu time    0.7573: real time    0.7628
    ORTHCH:  cpu time    0.0118: real time    0.0118
       DOS:  cpu time    0.0025: real time    0.0025
    CHARGE:  cpu time    0.0295: real time    0.0296
    MIXING:  cpu time    0.0017: real time    0.0017
    --------------------------------------------
      LOOP:  cpu time    0.9659: real time    1.0145

 eigenvalue-minimisations  :  7169
 total energy-change (2. order) :-0.5750588E-04  (-0.1397521E-03)
 number of electron     289.9999997 magnetization 
 augmentation part       18.9593589 magnetization 

 Broyden mixing:
  rms(total) = 0.39197E-02    rms(broyden)= 0.39179E-02
  rms(prec ) = 0.80974E-02
  weight for this iteration     100.00

 eigenvalues of (default mixing * dielectric matrix)
  average eigenvalue GAMMA=   1.0142
  2.6227  2.0968  1.4641  1.4641  0.7772  0.6398  0.4954  0.4954  0.3444  0.3781
  0.3781

 Free energy of the ion-electron system (eV)
  ---------------------------------------------------
  alpha Z        PSCENC =      1482.86784787
  Ewald energy   TEWEN  =    -19040.63139815
  -Hartree energ DENC   =     -6795.10480060
  -exchange      EXHF   =         0.00000000
  -V(xc)+E(xc)   XCENC  =      -301.40181730
  PAW double counting   =     33269.27285591   -31649.26744477
[...]
     98       5.4126      2.00000
     99       5.4782      2.00000
    100       5.5104      2.00000
    101       5.5626      2.00000
    102       5.6089      2.00000
    103       5.6995      2.00000
    104       5.7462      2.00000
    105       5.7795      2.00000
    106       5.9942      2.00000
    107       6.0544      2.00000
    108       6.0763      2.00000
    109       6.1095      2.00000
    110       6.1697      2.00000
    111       6.1782      2.00000
    112       6.2182      2.00000
    113       6.2558      2.00000
    114       6.2910      2.00000
    115       6.3155      2.00000
    116       6.3341      2.00000
    117       6.3618      2.00000
    118       6.4052      2.00000
    119       6.4354      2.00000
    120       6.4690      2.00000
    121       6.5150      2.00000
    122       6.5383      2.00000
    123       6.5696      2.00000
    124       6.5976      2.00000
    125       6.6471      2.00000
    126       6.6861      2.00000
    127       6.7534      2.00000
    128       6.7919      2.00000
    129       6.8508      2.00000
    130       6.8774      2.00000
    131       6.9141      2.00000
    132       6.9246      2.00000
    133       6.9502      2.00000
    134       6.9998      2.00004
    135       7.0484      2.00027
    136       7.0989      2.00150
    137       7.1358      2.00443
    138       7.1644      2.00929
    139       7.2119      2.02578
    140       7.2493      2.04687
    141       7.2967      2.07016
    142       7.3101      2.07044
    143       7.3571      2.01303
    144       7.3830      1.92010
    145       7.4080      1.77640
    146       7.4719      1.18152
    147       7.5134      0.71919
    148       7.5313      0.53392
    149       7.5865      0.11310
    150       7.6067      0.02494
    151       7.6295     -0.03623
    152       7.6541     -0.06589
    153       7.7240     -0.04869
    154       7.7396     -0.03914
    155       7.7672     -0.02444
    156       7.8116     -0.00934
    157       7.8485     -0.00354
    158       7.9082     -0.00054
    159       7.9907     -0.00002
    160       8.0052     -0.00001
    161       8.0469     -0.00000
    162       8.1004     -0.00000
    163       8.1220     -0.00000
    164       8.1786     -0.00000
    165       8.2356     -0.00000
    166       8.2867     -0.00000
    167       8.3115     -0.00000
    168       8.3776     -0.00000
    169       8.6501     -0.00000
    170       8.7826     -0.00000
    171       8.8706     -0.00000
    172       9.3314     -0.00000
    173       9.4225     -0.00000
    174       9.4821     -0.00000
    175       9.5827     -0.00000
    176       9.6061     -0.00000


--------------------------------------------------------------------------------------------------------


 soft charge-density along one line, spin component           1
         0         1         2         3         4         5         6         7         8         9
 total charge-density along one line
 
 pseudopotential strength for first ion, spin component:           1
 -6.387   0.003  -0.001   0.001   0.000  -7.587   0.004  -0.001
  0.003  -6.379   0.000  -0.002  -0.001   0.004  -7.576   0.000
 -0.001   0.000  -6.391   0.000   0.004  -0.001   0.000  -7.591
  0.001  -0.002   0.000  -6.390   0.001   0.001  -0.002   0.000
  0.000  -0.001   0.004   0.001  -6.393   0.000  -0.001   0.004
 -7.587   0.004  -0.001   0.001   0.000  -8.990   0.005  -0.001
  0.004  -7.576   0.000  -0.002  -0.001   0.005  -8.977   0.000
 -0.001   0.000  -7.591   0.000   0.004  -0.001   0.000  -8.994
  0.001  -0.002   0.000  -7.590   0.001   0.001  -0.003   0.000
  0.000  -0.001   0.004   0.001  -7.594   0.000  -0.001   0.005
  0.000  -0.000  -0.001  -0.002   0.003   0.000  -0.000  -0.002
  0.000  -0.000  -0.002  -0.003   0.006   0.000  -0.000  -0.003
  0.000  -0.006   0.000   0.000  -0.001   0.000  -0.008   0.000
  0.000   0.000  -0.007   0.000  -0.000   0.000   0.000  -0.008
 -0.001   0.000  -0.001  -0.007   0.001  -0.001   0.000  -0.001
  0.001   0.007   0.001  -0.000   0.004   0.001   0.009   0.002
 -0.000  -0.003   0.008   0.001   0.000  -0.001  -0.003   0.010
 -0.001  -0.000   0.000   0.008  -0.001  -0.002  -0.001   0.001
 total augmentation occupancy for first ion, spin component:           1
  4.931   0.234  -0.083  -0.045   0.023  -2.540  -0.128   0.028   0.021  -0.014  -0.021   0.010  -0.048   0.005   0.104  -0.001
  0.234   5.468  -0.051  -0.144   0.076  -0.128  -2.833   0.029   0.081  -0.050  -0.072   0.001   0.010   0.109   0.003   0.006
 -0.083  -0.051   4.916  -0.009   0.070   0.027   0.029  -2.717  -0.010  -0.051   0.076  -0.021  -0.013   0.053   0.026  -0.001
 -0.045  -0.144  -0.009   4.891  -0.006   0.021   0.081  -0.009  -2.528  -0.012   0.097  -0.035   0.001  -0.003   0.105  -0.001
  0.023   0.076   0.070  -0.006   4.819  -0.014  -0.051  -0.051  -0.012  -2.655  -0.126   0.052  -0.030   0.027  -0.023  -0.001
 -2.540  -0.128   0.027   0.021  -0.014   1.330   0.070  -0.006  -0.010   0.009   0.015  -0.006   0.024  -0.002  -0.058   0.000
 -0.128  -2.833   0.029   0.081  -0.051   0.070   1.491  -0.017  -0.045   0.032   0.039  -0.001  -0.009  -0.063  -0.000  -0.003
  0.028   0.029  -2.717  -0.009  -0.051  -0.006  -0.017   1.513   0.012   0.036  -0.050   0.012   0.010  -0.030  -0.015   0.001
  0.021   0.081  -0.010  -2.528  -0.012  -0.010  -0.045   0.012   1.328   0.014  -0.060   0.019  -0.000   0.003  -0.053   0.000
 -0.014  -0.050  -0.051  -0.012  -2.655   0.009   0.032   0.036   0.014   1.475   0.082  -0.029   0.023  -0.014   0.014   0.001
 -0.021  -0.072   0.076   0.097  -0.126   0.015   0.039  -0.050  -0.060   0.082   2.227  -0.237   0.028   0.023  -0.007   0.000
  0.010   0.001  -0.021  -0.035   0.052  -0.006  -0.001   0.012   0.019  -0.029  -0.237   0.027  -0.001   0.001  -0.000   0.000
 -0.048   0.010  -0.013   0.001  -0.030   0.024  -0.009   0.010  -0.000   0.023   0.028  -0.001   0.309   0.005  -0.009   0.008
  0.005   0.109   0.053  -0.003   0.027  -0.002  -0.063  -0.030   0.003  -0.014   0.023   0.001   0.005   0.300   0.010   0.000
  0.104   0.003   0.026   0.105  -0.023  -0.058  -0.000  -0.015  -0.053   0.014  -0.007  -0.000  -0.009   0.010   0.285  -0.000
 -0.001   0.006  -0.001  -0.001  -0.001   0.000  -0.003   0.001   0.000   0.001   0.000   0.000   0.008   0.000  -0.000   0.000
 -0.001   0.002   0.006  -0.000   0.000   0.000  -0.001  -0.003   0.000  -0.000   0.003  -0.000   0.000   0.008   0.000   0.000
  0.003  -0.001   0.001   0.007  -0.002  -0.001   0.000  -0.001  -0.003   0.001  -0.000  -0.000  -0.000   0.000   0.007  -0.000


------------------------ aborting loop because EDIFF is reached ----------------------------------------


    CHARGE:  cpu time    0.0303: real time    0.0305
    FORLOC:  cpu time    0.0133: real time    0.0134
    FORNL :  cpu time    0.3096: real time    0.3111
    STRESS:  cpu time    0.9309: real time    0.9442
    FORCOR:  cpu time    0.0452: real time    0.0468
    FORHAR:  cpu time    0.0182: real time    0.0188
    MIXING:  cpu time    0.0012: real time    0.0012
    OFIELD:  cpu time    0.0000: real time    0.0000

  FORCE on cell =-STRESS in cart. coord.  units (eV):
  Direction    XX          YY          ZZ          XY          YZ          ZX
  --------------------------------------------------------------------------------------
  Alpha Z  1475.95730  1475.95730  1475.95730
  Ewald   -5696.05186 -6089.67933 -7272.60537  -184.34843   411.67803   186.14868
  Hartree  2851.43901  2516.89547  1389.01758  -152.44845   329.12415   173.37954
  E(xc)   -1269.30319 -1269.75613 -1269.94359     0.04934     0.56127     0.24048
  Local   -2184.05106 -1459.28043   852.31592   336.35121  -742.32824  -358.15438
  n-local  -254.59771  -255.91769  -255.20753     0.47090    -1.66073     2.77903
  augment   239.21484   239.41414   239.38938    -0.09296     0.36570    -0.44685
  Kinetic  4837.69803  4842.63764  4841.36904     0.00018     2.23377    -3.91620
  Fock        0.00000     0.00000     0.00000     0.00000     0.00000     0.00000
  -------------------------------------------------------------------------------------
  Total       0.30536     0.27098     0.29272    -0.01821    -0.02604     0.03030
  in kB       0.67505     0.59905     0.64711    -0.04026    -0.05757     0.06698
  external pressure =        0.64 kB  Pullay stress =        0.00 kB


 VOLUME and BASIS-vectors are now :
 -----------------------------------------------------------------------------
  energy-cutoff  :      300.00
  volume of cell :      724.75
      direct lattice vectors                 reciprocal lattice vectors
     6.924311929  0.013951848  0.027660842     0.144421585 -0.000292625 -0.000579173
     0.020793149 10.253049932  0.004628249    -0.000196358  0.097532371 -0.000040223
     0.040948408  0.004292587 10.208658221    -0.000391228 -0.000043425  0.097957654

  length of vectors
     6.924381234 10.253072061 10.208741248     0.144423043  0.097532577  0.097958445


 FORCES acting on ions
    electron-ion (+dipol)            ewald-force                    non-local-force                 convergence-correction
 -----------------------------------------------------------------------------------------------
   0.477E+02 0.656E+01 0.773E+02   -.479E+02 -.619E+01 -.766E+02   0.200E+00 -.378E+00 -.722E+00   -.107E-02 -.260E-02 0.391E-04
   0.262E+02 0.458E+02 -.102E+02   -.252E+02 -.462E+02 0.105E+02   -.103E+01 0.431E+00 -.315E+00   -.419E-02 -.178E-01 0.386E-02
   0.253E+02 0.291E+02 0.851E+02   -.245E+02 -.294E+02 -.849E+02   -.895E+00 0.321E+00 -.172E+00   -.998E-03 -.206E-01 -.324E-02
   -.616E+01 0.485E+02 -.148E+02   0.698E+01 -.486E+02 0.147E+02   -.824E+00 0.128E+00 0.982E-01   0.126E-02 -.215E-01 0.311E-02
   0.719E+02 -.412E+02 0.107E+03   -.712E+02 0.412E+02 -.106E+03   -.771E+00 -.226E-01 -.761E+00   -.186E-02 0.210E-01 -.933E-02
   -.371E+01 -.147E+02 -.134E+03   0.362E+01 0.139E+02 0.133E+03   0.914E-01 0.824E+00 0.924E+00   -.687E-04 0.120E-01 0.111E-01
   -.246E+02 0.863E+00 0.754E+02   0.237E+02 -.109E+01 -.753E+02   0.914E+00 0.256E+00 -.126E+00   0.113E-02 -.207E-01 -.191E-02
   -.259E+02 -.442E+02 -.798E+02   0.253E+02 0.437E+02 0.793E+02   0.664E+00 0.536E+00 0.514E+00   0.200E-02 -.105E-01 -.166E-02
   0.245E+03 0.166E+03 -.140E+03   -.245E+03 -.165E+03 0.141E+03   -.250E+00 -.102E+01 -.383E+00   -.138E-01 -.219E-01 0.180E-01
   -.333E+02 -.141E+03 0.184E+03   0.327E+02 0.140E+03 -.184E+03   0.551E+00 0.992E+00 -.145E+00   0.212E-02 0.427E-01 -.145E-01
   -.588E+02 -.528E+02 -.281E+03   0.582E+02 0.537E+02 0.281E+03   0.510E+00 -.875E+00 -.215E+00   0.284E-02 -.715E-02 0.195E-01
   0.458E+01 0.120E+03 0.272E+03   -.465E+01 -.121E+03 -.271E+03   0.792E-01 0.765E+00 -.550E+00   -.366E-02 -.464E-01 -.232E-02
   -.239E+03 0.165E+03 -.935E+02   0.239E+03 -.164E+03 0.938E+02   0.298E+00 -.961E+00 -.300E+00   0.134E-01 -.142E-01 0.150E-01
   0.161E+02 0.128E+02 0.346E+03   -.166E+02 -.124E+02 -.346E+03   0.502E+00 -.435E+00 -.198E+00   -.385E-02 0.635E-01 -.229E-01
   -.326E+02 -.110E+03 0.939E+02   0.318E+02 0.111E+03 -.946E+02   0.859E+00 -.119E+01 0.753E+00   -.165E-02 0.111E-01 -.922E-02
   -.317E+01 -.144E+03 -.455E+03   0.331E+01 0.144E+03 0.454E+03   -.132E+00 0.727E+00 0.470E+00   -.429E-03 0.260E-01 0.283E-01
   0.317E+02 -.427E+02 0.100E+03   -.308E+02 0.432E+02 -.101E+03   -.964E+00 -.577E+00 0.857E+00   0.186E-02 0.162E-01 -.127E-01
   0.181E+02 0.453E+01 0.170E+03   -.187E+02 -.449E+01 -.170E+03   0.594E+00 -.337E-01 -.127E-02   0.425E-02 -.518E-02 -.181E-01
   -.125E+01 0.132E+03 0.174E+03   0.137E+01 -.133E+03 -.173E+03   -.116E+00 0.383E+00 -.447E+00   0.173E-02 -.489E-01 -.101E-01
   -.520E+02 -.587E+02 -.130E+03   0.519E+02 0.584E+02 0.130E+03   0.590E-01 0.272E+00 -.256E+00   0.368E-02 0.455E-01 0.953E-02
   0.422E+02 -.127E+03 -.118E+03   -.415E+02 0.127E+03 0.117E+03   -.762E+00 0.396E+00 0.738E+00   -.284E-02 -.299E-01 -.610E-02
   -.204E+02 -.732E+02 0.178E+03   0.208E+02 0.734E+02 -.179E+03   -.435E+00 -.210E+00 0.950E-01   -.114E-03 -.159E-02 -.190E-01
   -.336E+02 -.572E+02 -.137E+03   0.327E+02 0.570E+02 0.137E+03   0.938E+00 0.139E+00 0.225E+00   -.378E-03 0.333E-01 0.193E-01
   0.471E+02 0.199E+03 -.243E+03   -.471E+02 -.199E+03 0.243E+03   0.315E-01 -.866E-01 0.242E+00   -.535E-02 -.400E-01 0.103E-01
   0.215E+02 -.312E+02 0.203E+02   -.210E+02 0.308E+02 -.202E+02   -.581E+00 0.323E+00 -.105E+00   -.101E-02 0.117E-01 -.490E-03
   -.563E+02 -.365E+02 0.851E+02   0.553E+02 0.364E+02 -.846E+02   0.968E+00 -.112E-01 -.523E+00   0.134E-02 0.151E-01 -.718E-02
   -.744E+01 -.131E+01 0.128E+03   0.777E+01 0.156E+01 -.128E+03   -.337E+00 -.272E+00 0.118E+00   0.773E-03 0.171E-01 -.892E-02
   0.382E+01 0.728E+02 0.193E+02   -.468E+01 -.728E+02 -.195E+02   0.867E+00 0.764E-01 0.204E+00   -.120E-02 -.179E-01 0.840E-03
   -.183E+02 0.251E+02 -.861E+02   0.184E+02 -.247E+02 0.855E+02   -.650E-01 -.350E+00 0.611E+00   0.149E-02 -.950E-02 0.142E-02
   -.268E+02 -.302E+02 -.181E+02   0.274E+02 0.306E+02 0.179E+02   -.547E+00 -.432E+00 0.199E+00   0.667E-04 0.376E-02 -.742E-03
   0.183E+02 -.289E+02 -.645E+02   -.182E+02 0.288E+02 0.645E+02   -.568E-01 0.968E-01 0.506E-01   -.884E-03 0.148E-01 0.326E-02
   -.341E+02 0.652E+01 0.715E+02   0.342E+02 -.628E+01 -.712E+02   -.100E+00 -.238E+00 -.275E+00   0.696E-03 -.159E-02 -.125E-02
   0.315E+02 -.289E+01 -.149E+02   -.320E+02 0.328E+01 0.147E+02   0.484E+00 -.391E+00 0.201E+00   -.177E-04 0.236E-02 -.174E-02
   -.236E+02 0.223E+02 0.155E+01   0.224E+02 -.225E+02 -.118E+01   0.120E+01 0.256E+00 -.376E+00   0.326E-02 -.135E-01 0.159E-02
   0.217E+02 -.688E+01 -.784E+02   -.212E+02 0.686E+01 0.784E+02   -.539E+00 0.882E-02 0.513E-01   0.207E-03 0.112E-01 0.564E-02
   0.273E+02 -.118E+02 -.899E+02   -.269E+02 0.121E+02 0.902E+02   -.451E+00 -.267E+00 -.264E+00   -.911E-03 -.844E-05 0.560E-02
 -----------------------------------------------------------------------------------------------
   -.945E+00 0.822E+00 -.221E+00   -.604E-13 -.146E-12 0.142E-12   0.950E+00 -.817E+00 0.215E+00   -.218E-02 -.404E-02 0.488E-02
 
 
 POSITION                                       TOTAL-FORCE (eV/Angst)
 -----------------------------------------------------------------------------------
      1.75349      1.70988      5.20664         0.003839     -0.002802     -0.002396
      0.28179      3.42605      3.54681        -0.003708      0.002252      0.001686
      0.12938      3.40369      6.85043        -0.001900      0.002453     -0.001259
      1.88693      5.15122      8.54807        -0.002644     -0.002928      0.005825
      1.99781      8.61899      5.30230        -0.000093     -0.002179     -0.002300
      1.73343      8.40209      1.49561        -0.000374      0.003916      0.001077
      3.38036      3.41570      6.82161         0.001825      0.003964     -0.002505
      3.43473      3.26113     10.15881         0.000043      0.003013      0.000421
      3.55490      6.92674      0.06729         0.000207     -0.003580      0.004980
      5.16524      8.42950      8.53752         0.004515      0.004945      0.000660
      1.61370      1.78024      1.69561        -0.000436      0.000873     -0.003919
      1.74086      5.10509      5.26596        -0.001578     -0.000140     -0.002904
      6.91122      6.92087     10.21738        -0.003847     -0.000773     -0.000132
      3.46726      0.12116      6.91942         0.004529      0.002567      0.000141
      5.13047      1.84821      8.37058         0.000449     -0.002842     -0.000074
      5.26454      8.44262      1.67915         0.002572      0.003035      0.006404
      1.84809      1.71705      8.40528        -0.001294      0.000273      0.001327
      3.46049      6.77604      6.81271         0.004770     -0.002196     -0.005173
      5.24664      5.02259      5.09866         0.001382     -0.001934     -0.003499
      6.90794     10.25507     10.22000        -0.001601      0.003914     -0.000583
      0.10105      3.32405     10.00082        -0.001637      0.005539     -0.003553
      0.05938      6.84213      6.78889        -0.000821     -0.002493     -0.003410
      3.38645     10.24445      3.27086        -0.002735     -0.000882      0.000580
      5.24658      5.10382      1.73777         0.000851     -0.002651      0.002680
      1.86898      8.48241      8.55920        -0.001675      0.000208      0.001791
      5.02788      8.63770      5.20443         0.003038     -0.006915     -0.001597
      0.02563      0.01712      6.85410        -0.002776     -0.002950     -0.003694
      5.10206      5.12995      8.53598         0.001650      0.002230      0.004327
      1.73011      5.19311      1.50670        -0.004654     -0.004108      0.000727
      0.15408      6.94293      3.48944        -0.001508     -0.001326      0.001603
      3.51357      0.06488      0.02975        -0.000499      0.001649      0.000667
      5.23306      1.78256      5.12016        -0.000303     -0.000455     -0.001223
      3.38138      6.86570      3.40801        -0.003278      0.003530      0.002211
      3.23565      3.44893      3.42544         0.005280      0.001200     -0.000724
      0.17431     10.15022      3.42444         0.002503     -0.001643      0.003001
      5.32961      1.88891      1.90072        -0.000092     -0.002764     -0.001163
 -----------------------------------------------------------------------------------
    total drift:                                0.002233      0.000210     -0.001453


--------------------------------------------------------------------------------------------------------



  FREE ENERGIE OF THE ION-ELECTRON SYSTEM (eV)
  ---------------------------------------------------
  free  energy   TOTEN  =      -364.64474594 eV

  energy  without entropy=     -364.65837387  energy(sigma->0) =     -364.64928858
 
 d Force = 0.1885326E-04[ 0.125E-04, 0.252E-04]  d Energy = 0.5663753E-04-0.378E-04
 d Force = 0.2880673E+00[ 0.288E+00, 0.288E+00]  d Ewald  =-0.2631882E+00 0.551E+00


--------------------------------------------------------------------------------------------------------


    POTLOK:  cpu time    0.0941: real time    0.0958


--------------------------------------------------------------------------------------------------------


 Conjugate gradient step on ions:
 trial-energy change:   -0.000057  1 .order   -0.000044   -0.000049   -0.000038
  (g-gl).g = 0.103E-03      g.g   = 0.100E-03  gl.gl    = 0.326E-04
 g(Force)  = 0.158E-04   g(Stress)= 0.845E-04 ortho     =-0.835E-06
 gamma     =   3.16417
 trial     =   0.50052
 opt step  =   2.00206  (harmonic =   2.29971) maximal distance =0.00147447
 next E    =  -364.644802   (d E  =  -0.00011)


--------------------------------------------------------------------------------------------------------


  
 reached required accuracy - stopping structural energy minimisation
     LOOP+:  cpu time    5.8069: real time    6.5244
    4ORBIT:  cpu time    0.0000: real time    0.0000

 total amount of memory used by VASP on root node    67416. kBytes
========================================================================

   base      :      30000. kBytes
   nonlr-proj:      10707. kBytes
   fftplans  :       2814. kBytes
   grid      :       5360. kBytes
   one-center:        124. kBytes
   wavefun   :      18411. kBytes
 
  
  
 General timing and accounting informations for this job:
 ========================================================
  
                  Total CPU time used (sec):      218.902
                            User time (sec):      218.138
                          System time (sec):        0.764
                         Elapsed time (sec):      254.251
  
                   Maximum memory used (kb):      282868.
                   Average memory used (kb):           0.
  
                          Minor page faults:        98002
                          Major page faults:           34
                 Voluntary context switches:         8575
