<?xml version="1.0" encoding="ISO-8859-1"?>
<modeling>
 <generator>
  <i name="program" type="string">vasp </i>
  <i name="version" type="string">5.4.1  </i>
  <i name="subversion" type="string">05Feb16 (build Jan 29 2020 16:04:39) complex                          parallel </i>
  <i name="platform" type="string">IFC91_ompi </i>
  <i name="date" type="string">2020 06 15 </i>
  <i name="time" type="string">04:00:01 </i>
 </generator>
 <incar>
  <i type="string" name="SYSTEM"> automatically generated by mexm</i>
  <i type="int" name="ISTART">     0</i>
  <i type="string" name="PREC">accurate               ! avoid wrap aro</i>
  <i type="string" name="ALGO"> Fast                   ! blocked Davids</i>
  <i type="int" name="ISPIN">     1</i>
  <i type="int" name="ICHARG">     2</i>
  <i type="int" name="NELM">    70</i>
  <i type="int" name="IBRION">     2</i>
  <i name="EDIFF">      0.00001000</i>
  <i name="EDIFFG">     -0.01000000</i>
  <i type="int" name="NSW">   300</i>
  <i type="int" name="ISIF">     3</i>
  <i type="int" name="ISYM">     1</i>
  <i name="ENCUT">    300.00000000</i>
  <i name="POTIM">      0.15000000</i>
  <i type="string" name="LREAL"> Auto                  ! unpublished met</i>
  <i type="int" name="ISMEAR">     1</i>
  <i name="SIGMA">      0.15000000</i>
  <i type="logical" name="LWAVE"> F  </i>
  <i type="logical" name="LCHARG"> F  </i>
  <i type="logical" name="LVTOT"> F  </i>
  <v type="int" name="KPOINT_BSE">    -1     0     0     0</v>
  <i type="int" name="NELM">    70</i>
 </incar>
 <kpoints>
  <generation param="Gamma">
   <v type="int" name="divisions">       3        3        3 </v>
   <v name="usershift">      0.00000000       0.00000000       0.00000000 </v>
   <v name="genvec1">      0.33333333      -0.00000000       0.00000000 </v>
   <v name="genvec2">     -0.00000000       0.33333333       0.00000000 </v>
   <v name="genvec3">     -0.00000000       0.00000000       0.33333333 </v>
   <v name="shift">      0.00000000       0.00000000       0.00000000 </v>
  </generation>
  <varray name="kpointlist" >
   <v>       0.00000000       0.00000000       0.00000000 </v>
   <v>       0.33333333      -0.00000000       0.00000000 </v>
   <v>       0.00000000       0.33333333       0.00000000 </v>
   <v>       0.33333333       0.33333333       0.00000000 </v>
   <v>      -0.33333333       0.33333333       0.00000000 </v>
   <v>       0.00000000       0.00000000       0.33333333 </v>
   <v>       0.33333333       0.00000000       0.33333333 </v>
   <v>      -0.33333333      -0.00000000       0.33333333 </v>
   <v>       0.00000000       0.33333333       0.33333333 </v>
   <v>       0.33333333       0.33333333       0.33333333 </v>
   <v>      -0.33333333       0.33333333       0.33333333 </v>
   <v>       0.00000000      -0.33333333       0.33333333 </v>
   <v>       0.33333333      -0.33333333       0.33333333 </v>
   <v>      -0.33333333      -0.33333333       0.33333333 </v>
  </varray>
  <varray name="weights" >
   <v>       0.03703704 </v>
   <v>       0.07407407 </v>
   <v>       0.07407407 </v>
   <v>       0.07407407 </v>
   <v>       0.07407407 </v>
   <v>       0.07407407 </v>
   <v>       0.07407407 </v>
   <v>       0.07407407 </v>
   <v>       0.07407407 </v>
   <v>       0.07407407 </v>
   <v>       0.07407407 </v>
   <v>       0.07407407 </v>
   <v>       0.07407407 </v>
   <v>       0.07407407 </v>
  </varray>
 </kpoints>
 <parameters>
  <separator name="general" >
   <i type="string" name="SYSTEM">automatically generated by mexm</i>
   <i type="logical" name="LCOMPAT"> F  </i>
  </separator>
  <separator name="electronic" >
   <i type="string" name="PREC">accura</i>
   <i name="ENMAX">    300.00000000</i>
   <i name="ENAUG">    461.25700000</i>
   <i name="EDIFF">      0.00001000</i>
   <i type="int" name="IALGO">    68</i>
   <i type="int" name="IWAVPR">    11</i>
   <i type="int" name="NBANDS">   176</i>
   <i name="NELECT">    294.00000000</i>
   <i type="int" name="TURBO">     0</i>
   <i type="int" name="IRESTART">     0</i>
   <i type="int" name="NREBOOT">     0</i>
   <i type="int" name="NMIN">     0</i>
   <i name="EREF">      0.00000000</i>
   <separator name="electronic smearing" >
    <i type="int" name="ISMEAR">     1</i>
    <i name="SIGMA">      0.15000000</i>
    <i name="KSPACING">      0.50000000</i>
    <i type="logical" name="KGAMMA"> T  </i>
   </separator>
   <separator name="electronic projectors" >
    <i type="logical" name="LREAL"> T  </i>
    <v name="ROPT">     -0.00025000     -0.00025000     -0.00025000     -0.00025000</v>
    <i type="int" name="LMAXPAW">  -100</i>
    <i type="int" name="LMAXMIX">     2</i>
    <i type="logical" name="NLSPLINE"> F  </i>
   </separator>
   <separator name="electronic startup" >
    <i type="int" name="ISTART">     0</i>
    <i type="int" name="ICHARG">     2</i>
    <i type="int" name="INIWAV">     1</i>
   </separator>
   <separator name="electronic spin" >
    <i type="int" name="ISPIN">     1</i>
    <i type="logical" name="LNONCOLLINEAR"> F  </i>
    <v name="MAGMOM">      1.00000000      1.00000000      1.00000000      1.00000000      1.00000000      1.00000000      1.00000000      1.00000000      1.00000000      1.00000000      1.00000000      1.00000000      1.00000000      1.00000000      1.00000000      1.00000000      1.00000000      1.00000000      1.00000000      1.00000000
      1.00000000      1.00000000      1.00000000      1.00000000      1.00000000      1.00000000      1.00000000      1.00000000      1.00000000      1.00000000      1.00000000      1.00000000      1.00000000      1.00000000      1.00000000      1.00000000</v>
    <i name="NUPDOWN">     -1.00000000</i>
    <i type="logical" name="LSORBIT"> F  </i>
    <v name="SAXIS">      0.00000000      0.00000000      1.00000000</v>
    <i type="logical" name="LSPIRAL"> F  </i>
    <v name="QSPIRAL">      0.00000000      0.00000000      0.00000000</v>
    <i type="logical" name="LZEROZ"> F  </i>
   </separator>
   <separator name="electronic exchange-correlation" >
    <i type="logical" name="LASPH"> F  </i>
    <i type="logical" name="LMETAGGA"> F  </i>
   </separator>
   <separator name="electronic convergence" >
    <i type="int" name="NELM">    70</i>
    <i type="int" name="NELMDL">    -5</i>
    <i type="int" name="NELMIN">     2</i>
    <i name="ENINI">    300.00000000</i>
    <separator name="electronic convergence detail" >
     <i type="logical" name="LDIAG"> T  </i>
     <i type="logical" name="LSUBROT"> F  </i>
     <i name="WEIMIN">      0.00100000</i>
     <i name="EBREAK">      0.00000001</i>
     <i name="DEPER">      0.30000000</i>
     <i type="int" name="NRMM">     4</i>
     <i name="TIME">      0.40000000</i>
    </separator>
   </separator>
   <separator name="electronic mixer" >
    <i name="AMIX">      0.40000000</i>
    <i name="BMIX">      1.00000000</i>
    <i name="AMIN">      0.10000000</i>
    <i name="AMIX_MAG">      1.60000000</i>
    <i name="BMIX_MAG">      1.00000000</i>
    <separator name="electronic mixer details" >
     <i type="int" name="IMIX">     4</i>
     <i type="logical" name="MIXFIRST"> F  </i>
     <i type="int" name="MAXMIX">   -45</i>
     <i name="WC">    100.00000000</i>
     <i type="int" name="INIMIX">     1</i>
     <i type="int" name="MIXPRE">     1</i>
     <i type="int" name="MREMOVE">     5</i>
    </separator>
   </separator>
   <separator name="electronic dipolcorrection" >
    <i type="logical" name="LDIPOL"> F  </i>
    <i type="logical" name="LMONO"> F  </i>
    <i type="int" name="IDIPOL">     0</i>
    <i name="EPSILON">      1.00000000</i>
    <v name="DIPOL">   -100.00000000   -100.00000000   -100.00000000</v>
    <i name="EFIELD">      0.00000000</i>
   </separator>
  </separator>
  <separator name="grids" >
   <i type="int" name="NGX">    40</i>
   <i type="int" name="NGY">    60</i>
   <i type="int" name="NGZ">    60</i>
   <i type="int" name="NGXF">    80</i>
   <i type="int" name="NGYF">   120</i>
   <i type="int" name="NGZF">   120</i>
   <i type="logical" name="ADDGRID"> F  </i>
  </separator>
  <separator name="ionic" >
   <i type="int" name="NSW">   300</i>
   <i type="int" name="IBRION">     2</i>
   <i type="int" name="ISIF">     3</i>
   <i name="PSTRESS">      0.00000000</i>
   <i name="EDIFFG">     -0.01000000</i>
   <i type="int" name="NFREE">     1</i>
   <i name="POTIM">      0.15000000</i>
   <i name="SMASS">     -3.00000000</i>
   <i name="SCALEE">      1.00000000</i>
  </separator>
  <separator name="ionic md" >
   <i name="TEBEG">      0.00010000</i>
   <i name="TEEND">      0.00010000</i>
   <i type="int" name="NBLOCK">     1</i>
   <i type="int" name="KBLOCK">   300</i>
   <i type="int" name="NPACO">   256</i>
   <i name="APACO">     16.00000000</i>
  </separator>
  <separator name="symmetry" >
   <i type="int" name="ISYM">     1</i>
   <i name="SYMPREC">      0.00001000</i>
  </separator>
  <separator name="dos" >
   <i type="logical" name="LORBIT"> F  </i>
   <v name="RWIGS">     -1.00000000     -1.00000000     -1.00000000     -1.00000000</v>
   <i type="int" name="NEDOS">   301</i>
   <i name="EMIN">     10.00000000</i>
   <i name="EMAX">    -10.00000000</i>
   <i name="EFERMI">      0.00000000</i>
  </separator>
  <separator name="writing" >
   <i type="int" name="NWRITE">     2</i>
   <i type="logical" name="LWAVE"> F  </i>
   <i type="logical" name="LCHARG"> F  </i>
   <i type="logical" name="LPARD"> F  </i>
   <i type="logical" name="LVTOT"> F  </i>
   <i type="logical" name="LVHAR"> F  </i>
   <i type="logical" name="LELF"> F  </i>
   <i type="logical" name="LOPTICS"> F  </i>
   <v name="STM">      0.00000000      0.00000000      0.00000000      0.00000000      0.00000000      0.00000000      0.00000000</v>
  </separator>
  <separator name="performance" >
   <i type="int" name="NPAR">     4</i>
   <i type="int" name="NSIM">     4</i>
   <i type="int" name="NBLK">    -1</i>
   <i type="logical" name="LPLANE"> T  </i>
   <i type="logical" name="LSCALAPACK"> T  </i>
   <i type="logical" name="LSCAAWARE"> F  </i>
   <i type="logical" name="LSCALU"> F  </i>
   <i type="logical" name="LASYNC"> F  </i>
   <i type="logical" name="LORBITALREAL"> F  </i>
  </separator>
  <separator name="miscellaneous" >
   <i type="int" name="IDIOT">     3</i>
   <i type="logical" name="LMUSIC"> F  </i>
   <v name="POMASS">    180.94800000     92.91000000     91.22400000    178.49000000</v>
   <v name="DARWINR">      0.00000000      0.00000000      0.00000000      0.00000000</v>
   <v name="DARWINV">      1.00000000      1.00000000      1.00000000      1.00000000</v>
   <i type="logical" name="LCORR"> T  </i>
  </separator>
  <i type="logical" name="GGA_COMPAT"> T  </i>
  <i type="logical" name="LBERRY"> F  </i>
  <i type="int" name="ICORELEVEL">     0</i>
  <i type="logical" name="LDAU"> F  </i>
  <i type="int" name="I_CONSTRAINED_M">     0</i>
  <separator name="electronic exchange-correlation" >
   <i type="string" name="GGA">--</i>
   <i type="int" name="VOSKOWN">     0</i>
   <i type="logical" name="LHFCALC"> F  </i>
   <i type="string" name="PRECFOCK"></i>
   <i type="logical" name="LSYMGRAD"> F  </i>
   <i type="logical" name="LHFONE"> F  </i>
   <i type="logical" name="LRHFCALC"> F  </i>
   <i type="logical" name="LTHOMAS"> F  </i>
   <i type="logical" name="LMODELHF"> F  </i>
   <i name="ENCUT4O">     -1.00000000</i>
   <i type="int" name="EXXOEP">     0</i>
   <i type="int" name="FOURORBIT">     0</i>
   <i name="AEXX">      0.00000000</i>
   <i name="HFALPHA">      0.00000000</i>
   <i name="MCALPHA">      0.00000000</i>
   <i name="ALDAX">      1.00000000</i>
   <i name="AGGAX">      1.00000000</i>
   <i name="ALDAC">      1.00000000</i>
   <i name="AGGAC">      1.00000000</i>
   <i type="int" name="NKREDX">     1</i>
   <i type="int" name="NKREDY">     1</i>
   <i type="int" name="NKREDZ">     1</i>
   <i type="logical" name="SHIFTRED"> F  </i>
   <i type="logical" name="ODDONLY"> F  </i>
   <i type="logical" name="EVENONLY"> F  </i>
   <i type="int" name="LMAXFOCK">     0</i>
   <i type="int" name="NMAXFOCKAE">     0</i>
   <i type="logical" name="LFOCKAEDFT"> F  </i>
   <i name="HFSCREEN">      0.00000000</i>
   <i name="HFSCREENC">      0.00000000</i>
   <i type="int" name="NBANDSGWLOW">     0</i>
  </separator>
  <separator name="vdW DFT" >
   <i type="logical" name="LUSE_VDW"> F  </i>
   <i name="Zab_VDW">     -0.84910000</i>
   <i name="PARAM1">      0.12340000</i>
   <i name="PARAM2">      1.00000000</i>
   <i name="PARAM3">      0.00000000</i>
  </separator>
  <separator name="model GW" >
   <i type="int" name="MODEL_GW">     0</i>
   <i name="MODEL_EPS0">     11.84907105</i>
   <i name="MODEL_ALPHA">      1.00000000</i>
  </separator>
  <separator name="linear response parameters" >
   <i type="logical" name="LEPSILON"> F  </i>
   <i type="logical" name="LRPA"> F  </i>
   <i type="logical" name="LNABLA"> F  </i>
   <i type="logical" name="LVEL"> F  </i>
   <i type="int" name="KINTER">     0</i>
   <i name="CSHIFT">      0.10000000</i>
   <i name="OMEGAMAX">     -1.00000000</i>
   <i name="DEG_THRESHOLD">      0.00200000</i>
  </separator>
  <separator name="orbital magnetization" >
   <i type="logical" name="NUCIND"> F  </i>
   <v name="MAGPOS">      0.00000000      0.00000000      0.00000000</v>
   <i type="logical" name="LNICSALL"> T  </i>
   <i type="logical" name="ORBITALMAG"> F  </i>
   <i type="logical" name="LMAGBLOCH"> F  </i>
   <i type="logical" name="LCHIMAG"> F  </i>
   <i type="logical" name="LGAUGE"> T  </i>
   <i type="int" name="MAGATOM">     0</i>
   <v name="MAGDIPOL">      0.00000000      0.00000000      0.00000000</v>
   <v name="AVECCONST">      0.00000000      0.00000000      0.00000000</v>
  </separator>
  <separator name="response functions" >
   <i type="logical" name="LADDER"> F  </i>
   <i type="logical" name="LFXC"> F  </i>
   <i type="logical" name="LHARTREE"> T  </i>
   <i type="int" name="IBSE">     0</i>
   <v type="int" name="KPOINT">    -1     0     0     0</v>
   <i type="logical" name="LTCTE"> F  </i>
   <i type="logical" name="LTETE"> F  </i>
   <i type="logical" name="LTRIPLET"> F  </i>
   <i type="logical" name="LFXCEPS"> F  </i>
   <i type="logical" name="LFXHEG"> F  </i>
   <i type="int" name="NATURALO">     0</i>
   <i type="logical" name="L2ORDER"> F  </i>
   <i type="logical" name="LUSEW"> F  </i>
   <i name="ENCUTGW">     -2.00000000</i>
   <i name="ENCUTGWSOFT">     -2.00000000</i>
   <i name="ENCUTLF">     -1.00000000</i>
   <i type="int" name="LMAXMP2">    -1</i>
   <i name="SCISSOR">      0.00000000</i>
   <i type="int" name="NOMEGA">     0</i>
   <i type="int" name="NOMEGAR">     0</i>
   <i type="int" name="NBANDSGW">    -1</i>
   <i type="int" name="NBANDSO">    -1</i>
   <i type="int" name="NBANDSV">    -1</i>
   <i type="int" name="NELM">    70</i>
   <i type="int" name="NELMHF">     1</i>
   <i type="int" name="DIM">     3</i>
   <i type="int" name="ANTIRES">     0</i>
   <i name="OMEGAMAX">    -30.00000000</i>
   <i name="OMEGAMIN">    -30.00000000</i>
   <i name="OMEGATL">   -200.00000000</i>
   <i type="int" name="OMEGAGRID">     0</i>
   <i name="CSHIFT">     -0.10000000</i>
   <i type="logical" name="SELFENERGY"> F  </i>
   <i type="logical" name="LSPECTRAL"> F  </i>
   <i type="logical" name="LSPECTRALGW"> F  </i>
   <i type="logical" name="LSINGLES"> F  </i>
   <i type="logical" name="LFERMIGW"> F  </i>
   <i type="logical" name="ODDONLYGW"> F  </i>
   <i type="logical" name="EVENONLYGW"> F  </i>
   <i type="int" name="NKREDLFX">     1</i>
   <i type="int" name="NKREDLFY">     1</i>
   <i type="int" name="NKREDLFZ">     1</i>
   <i type="int" name="MAXMEM">  1800</i>
   <i type="int" name="TELESCOPE">     0</i>
   <i type="int" name="TAUPAR">     1</i>
   <i type="int" name="OMEGAPAR">    -1</i>
   <i name="LAMBDA">      1.00000000</i>
  </separator>
  <separator name="External order field" >
   <i name="OFIELD_KAPPA">      0.00000000</i>
   <v name="OFIELD_K">      0.00000000      0.00000000      0.00000000</v>
   <i name="OFIELD_Q6_NEAR">      0.00000000</i>
   <i name="OFIELD_Q6_FAR">      0.00000000</i>
   <i name="OFIELD_A">      0.00000000</i>
  </separator>
 </parameters>
 <atominfo>
  <atoms>      36 </atoms>
  <types>       4 </types>
  <array name="atoms" >
   <dimension dim="1">ion</dimension>
   <field type="string">element</field>
   <field type="int">atomtype</field>
   <set>
    <rc><c>Ta</c><c>   1</c></rc>
    <rc><c>Ta</c><c>   1</c></rc>
    <rc><c>Ta</c><c>   1</c></rc>
    <rc><c>Ta</c><c>   1</c></rc>
    <rc><c>Ta</c><c>   1</c></rc>
    <rc><c>Ta</c><c>   1</c></rc>
    <rc><c>Ta</c><c>   1</c></rc>
    <rc><c>Ta</c><c>   1</c></rc>
    <rc><c>Ta</c><c>   1</c></rc>
    <rc><c>Ta</c><c>   1</c></rc>
    <rc><c>Ta</c><c>   1</c></rc>
    <rc><c>Nb</c><c>   2</c></rc>
    <rc><c>Nb</c><c>   2</c></rc>
    <rc><c>Nb</c><c>   2</c></rc>
    <rc><c>Nb</c><c>   2</c></rc>
    <rc><c>Nb</c><c>   2</c></rc>
    <rc><c>Nb</c><c>   2</c></rc>
    <rc><c>Nb</c><c>   2</c></rc>
    <rc><c>Nb</c><c>   2</c></rc>
    <rc><c>Nb</c><c>   2</c></rc>
    <rc><c>Nb</c><c>   2</c></rc>
    <rc><c>Nb</c><c>   2</c></rc>
    <rc><c>Zr</c><c>   3</c></rc>
    <rc><c>Zr</c><c>   3</c></rc>
    <rc><c>Zr</c><c>   3</c></rc>
    <rc><c>Zr</c><c>   3</c></rc>
    <rc><c>Zr</c><c>   3</c></rc>
    <rc><c>Hf</c><c>   4</c></rc>
    <rc><c>Hf</c><c>   4</c></rc>
    <rc><c>Hf</c><c>   4</c></rc>
    <rc><c>Hf</c><c>   4</c></rc>
    <rc><c>Hf</c><c>   4</c></rc>
    <rc><c>Hf</c><c>   4</c></rc>
    <rc><c>Hf</c><c>   4</c></rc>
    <rc><c>Hf</c><c>   4</c></rc>
    <rc><c>Hf</c><c>   4</c></rc>
   </set>
  </array>
  <array name="atomtypes" >
   <dimension dim="1">type</dimension>
   <field type="int">atomspertype</field>
   <field type="string">element</field>
   <field>mass</field>
   <field>valence</field>
   <field type="string">pseudopotential</field>
   <set>
    <rc><c>  11</c><c>Ta</c><c>    180.94800000</c><c>      5.00000000</c><c>  PAW_PBE Ta 17Jan2003                  </c></rc>
    <rc><c>  11</c><c>Nb</c><c>     92.91000000</c><c>     13.00000000</c><c>  PAW_PBE Nb_sv 25May2007               </c></rc>
    <rc><c>   5</c><c>Zr</c><c>     91.22400000</c><c>     12.00000000</c><c>  PAW_PBE Zr_sv 04Jan2005               </c></rc>
    <rc><c>   9</c><c>Hf</c><c>    178.49000000</c><c>      4.00000000</c><c>  PAW_PBE Hf 20Jan2003                  </c></rc>
   </set>
  </array>
 </atominfo>
 <structure name="initialpos" >
  <crystal>
   <varray name="basis" >
    <v>       6.83548119       0.01217148       0.00116726 </v>
    <v>       0.01840188      10.20491500      -0.00492346 </v>
    <v>       0.00184069      -0.00477381      10.19198031 </v>
   </varray>
   <i name="volume">    710.94426292 </i>
   <varray name="rec_basis" >
    <v>       0.14629595      -0.00026382      -0.00002654 </v>
    <v>      -0.00017450       0.09799233       0.00004593 </v>
    <v>      -0.00001684       0.00004737       0.09811638 </v>
   </varray>
  </crystal>
  <varray name="positions" >
   <v>       0.75409000       0.83556500       0.50354300 </v>
   <v>       0.23522400       0.48949700       0.17465800 </v>
   <v>       0.24782900       0.50630400       0.49855600 </v>
   <v>       0.24449100       0.52033200       0.82885800 </v>
   <v>       0.00781900       0.67066200       0.99932400 </v>
   <v>       0.22514300       0.83699600       0.17328300 </v>
   <v>       0.75543100       0.50230800       0.49140600 </v>
   <v>       0.77600800       0.83239500       0.17416800 </v>
   <v>       0.99366000       0.98777100       0.00887300 </v>
   <v>       0.75361900       0.16692000       0.17898700 </v>
   <v>       0.24025300       0.83059300       0.82572800 </v>
   <v>       0.50031300       0.99234100       0.32109400 </v>
   <v>       0.99943200       0.00007600       0.32770200 </v>
   <v>       0.25522700       0.16156300       0.49130300 </v>
   <v>       0.01782700       0.01155200       0.66316800 </v>
   <v>       0.00957200       0.66493200       0.33265500 </v>
   <v>       0.00501400       0.65812900       0.66838300 </v>
   <v>       0.48061800       0.99891200       0.65983300 </v>
   <v>       0.49536700       0.65827900       0.66495900 </v>
   <v>       0.00950000       0.33244300       0.34917900 </v>
   <v>       0.49344600       0.33883700       0.33990800 </v>
   <v>       0.75630100       0.52428800       0.82534800 </v>
   <v>       0.25015800       0.15259200       0.83929300 </v>
   <v>       0.98671400       0.34174200       0.98566600 </v>
   <v>       0.50541200       0.98986500       0.01632100 </v>
   <v>       0.50207900       0.34195800       0.66941600 </v>
   <v>       0.49573500       0.66628600       0.00496200 </v>
   <v>       0.74325900       0.15975700       0.49079300 </v>
   <v>       0.75628900       0.83477300       0.82197000 </v>
   <v>       0.50664400       0.34394800       0.99650600 </v>
   <v>       0.24347600       0.17302800       0.17110600 </v>
   <v>       0.00061200       0.33700200       0.66298300 </v>
   <v>       0.24356400       0.83300800       0.50255800 </v>
   <v>       0.74639600       0.14563500       0.82761400 </v>
   <v>       0.49311500       0.66628800       0.32721400 </v>
   <v>       0.77036100       0.49342600       0.18268000 </v>
  </varray>
 </structure>
 <calculation>
  <scstep>
   <time name="dav">    1.07    1.08</time>
   <time name="total">    1.15    1.44</time>
   <energy>
    <i name="alphaZ">   1562.20842472 </i>
    <i name="ewald"> -20102.27913252 </i>
    <i name="hartreedc">  -6495.90216625 </i>
    <i name="XCdc">   -336.65103657 </i>
    <i name="pawpsdc">  21786.09480753 </i>
    <i name="pawaedc"> -20138.55246959 </i>
    <i name="eentropy">      0.01049687 </i>
    <i name="bandstr">    -79.07732097 </i>
    <i name="atom">  25647.32148816 </i>
    <i name="e_fr_energy">   1843.17309139 </i>
    <i name="e_wo_entrp">   1843.16259453 </i>
    <i name="e_0_energy">   1843.16959244 </i>
   </energy>
  </scstep>
  <scstep>
   <time name="dav">    1.03    1.18</time>
   <time name="total">    1.04    1.33</time>
   <energy>
    <i name="e_fr_energy">   -111.49716012 </i>
    <i name="e_wo_entrp">   -111.50173128 </i>
    <i name="e_0_energy">   -111.49868384 </i>
   </energy>
  </scstep>
  <scstep>
   <time name="dav">    1.59    1.64</time>
   <time name="total">    1.59    1.67</time>
   <energy>
    <i name="e_fr_energy">   -355.95366126 </i>
    <i name="e_wo_entrp">   -355.95369268 </i>
    <i name="e_0_energy">   -355.95367174 </i>
   </energy>
  </scstep>
  <scstep>
   <time name="dav">    1.49    1.59</time>
   <time name="total">    1.49    1.62</time>
   <energy>
    <i name="e_fr_energy">   -384.45987443 </i>
    <i name="e_wo_entrp">   -384.48032826 </i>
    <i name="e_0_energy">   -384.46669237 </i>
   </energy>
  </scstep>
  <scstep>
   <time name="dav">    1.33    1.34</time>
   <time name="total">    1.36    1.51</time>
   <energy>
    <i name="e_fr_energy">   -387.27746718 </i>
    <i name="e_wo_entrp">   -387.29988629 </i>
    <i name="e_0_energy">   -387.28494022 </i>
   </energy>
  </scstep>
  <scstep>
   <time name="diag">    0.08    0.08</time>
   <time name="diis">    0.71    0.71</time>
   <time name="orth">    0.01    0.01</time>
   <time name="total">    0.87    1.03</time>
   <energy>
    <i name="e_fr_energy">   -376.10361687 </i>
    <i name="e_wo_entrp">   -376.13200657 </i>
    <i name="e_0_energy">   -376.11308011 </i>
   </energy>
  </scstep>
  <scstep>
   <time name="diag">    0.08    0.08</time>
   <time name="diis">    0.72    0.72</time>
   <time name="orth">    0.01    0.01</time>
   <time name="total">    0.88    1.04</time>
   <energy>
    <i name="e_fr_energy">   -374.28753942 </i>
    <i name="e_wo_entrp">   -374.30070226 </i>
    <i name="e_0_energy">   -374.29192703 </i>
   </energy>
  </scstep>
  <scstep>
   <time name="diag">    0.08    0.08</time>
   <time name="diis">    0.80    0.81</time>
   <time name="orth">    0.01    0.01</time>
   <time name="total">    0.97    1.13</time>
   <energy>
    <i name="e_fr_energy">   -371.99900498 </i>
    <i name="e_wo_entrp">   -372.02162845 </i>
    <i name="e_0_energy">   -372.00654614 </i>
   </energy>
  </scstep>
  <scstep>
   <time name="diag">    0.08    0.08</time>
   <time name="diis">    0.87    0.87</time>
   <time name="orth">    0.01    0.01</time>
   <time name="total">    1.03    1.19</time>
   <energy>
    <i name="e_fr_energy">   -371.90386278 </i>
    <i name="e_wo_entrp">   -371.92373129 </i>
    <i name="e_0_energy">   -371.91048562 </i>
   </energy>
  </scstep>
  <scstep>
   <time name="diag">    0.08    0.09</time>
   <time name="diis">    0.78    0.79</time>
   <time name="orth">    0.01    0.01</time>
   <time name="total">    0.94    1.15</time>
   <energy>
    <i name="e_fr_energy">   -371.83096709 </i>
    <i name="e_wo_entrp">   -371.85237560 </i>
    <i name="e_0_energy">   -371.83810326 </i>
   </energy>
  </scstep>
  <scstep>
   <time name="diag">    0.08    0.08</time>
   <time name="diis">    0.79    0.80</time>
   <time name="orth">    0.01    0.01</time>
   <time name="total">    0.95    1.14</time>
   <energy>
    <i name="e_fr_energy">   -371.82081892 </i>
    <i name="e_wo_entrp">   -371.84197025 </i>
    <i name="e_0_energy">   -371.82786937 </i>
   </energy>
  </scstep>
  <scstep>
   <time name="diag">    0.10    0.10</time>
   <time name="diis">    0.70    0.86</time>
   <time name="orth">    0.01    0.01</time>
   <time name="total">    0.89    1.34</time>
   <energy>
    <i name="e_fr_energy">   -371.81812406 </i>
    <i name="e_wo_entrp">   -371.83870941 </i>
    <i name="e_0_energy">   -371.82498584 </i>
   </energy>
  </scstep>
  <scstep>
   <time name="diag">    0.13    0.13</time>
   <time name="diis">    0.81    0.81</time>
   <time name="orth">    0.01    0.01</time>
   <time name="total">    1.04    1.24</time>
   <energy>
    <i name="e_fr_energy">   -371.81680472 </i>
    <i name="e_wo_entrp">   -371.83755963 </i>
    <i name="e_0_energy">   -371.82372303 </i>
   </energy>
  </scstep>
  <scstep>
   <time name="diag">    0.08    0.08</time>
   <time name="diis">    0.80    0.81</time>
   <time name="orth">    0.01    0.01</time>
   <time name="total">    0.97    1.18</time>
   <energy>
    <i name="e_fr_energy">   -371.81695756 </i>
    <i name="e_wo_entrp">   -371.83770316 </i>
    <i name="e_0_energy">   -371.82387276 </i>
   </energy>
  </scstep>
  <scstep>
   <time name="diag">    0.08    0.08</time>
   <time name="diis">    0.82    0.83</time>
   <time name="orth">    0.01    0.01</time>
   <time name="total">    1.01    1.19</time>
   <energy>
    <i name="e_fr_energy">   -371.81708775 </i>
    <i name="e_wo_entrp">   -371.83789284 </i>
    <i name="e_0_energy">   -371.82402278 </i>
   </energy>
  </scstep>
  <scstep>
   <time name="diag">    0.07    0.09</time>
   <time name="diis">    0.75    0.75</time>
   <time name="orth">    0.01    0.01</time>
   <time name="total">    0.90    1.12</time>
   <energy>
    <i name="e_fr_energy">   -371.81711373 </i>
    <i name="e_wo_entrp">   -371.83789056 </i>
    <i name="e_0_energy">   -371.82403934 </i>
   </energy>
  </scstep>
  <scstep>
   <time name="diag">    0.08    0.09</time>
   <time name="diis">    0.72    0.73</time>
   <time name="orth">    0.01    0.01</time>
   <time name="total">    0.91    1.11</time>
   <energy>
    <i name="e_fr_energy">   -371.81711237 </i>
    <i name="e_wo_entrp">   -371.83790203 </i>
    <i name="e_0_energy">   -371.82404225 </i>
   </energy>
  </scstep>
  <scstep>
   <time name="diag">    0.08    0.08</time>
   <time name="diis">    0.55    0.70</time>
   <time name="orth">    0.01    0.01</time>
   <time name="total">    0.73    1.09</time>
   <energy>
    <i name="e_fr_energy">   -371.81712962 </i>
    <i name="e_wo_entrp">   -371.83792601 </i>
    <i name="e_0_energy">   -371.82406175 </i>
   </energy>
  </scstep>
  <scstep>
   <time name="diag">    0.08    0.08</time>
   <time name="diis">    0.47    0.47</time>
   <time name="orth">    0.01    0.01</time>
   <time name="total">    0.64    0.86</time>
   <energy>
    <i name="e_fr_energy">   -371.81713569 </i>
    <i name="e_wo_entrp">   -371.83794571 </i>
    <i name="e_0_energy">   -371.82407237 </i>
   </energy>
  </scstep>
  <scstep>
   <time name="diag">    0.08    0.08</time>
   <time name="diis">    0.42    0.42</time>
   <time name="orth">    0.01    0.01</time>
   <time name="total">    0.55    0.83</time>
   <energy>
    <i name="alphaZ">   1562.20842472 </i>
    <i name="ewald"> -20102.27913252 </i>
    <i name="hartreedc">  -6268.55451418 </i>
    <i name="XCdc">   -335.75873971 </i>
    <i name="pawpsdc">  33552.97023592 </i>
    <i name="pawaedc"> -31885.13217947 </i>
    <i name="eentropy">      0.02080054 </i>
    <i name="bandstr">  -2542.61351977 </i>
    <i name="atom">  25647.32148816 </i>
    <i name="e_fr_energy">   -371.81713630 </i>
    <i name="e_wo_entrp">   -371.83793685 </i>
    <i name="e_0_energy">   -371.82406982 </i>
   </energy>
  </scstep>
  <structure>
   <crystal>
    <varray name="basis" >
     <v>       6.83548119       0.01217148       0.00116726 </v>
     <v>       0.01840188      10.20491500      -0.00492346 </v>
     <v>       0.00184069      -0.00477381      10.19198031 </v>
    </varray>
    <i name="volume">    710.94426292 </i>
    <varray name="rec_basis" >
     <v>       0.14629595      -0.00026382      -0.00002654 </v>
     <v>      -0.00017450       0.09799233       0.00004593 </v>
     <v>      -0.00001684       0.00004737       0.09811638 </v>
    </varray>
   </crystal>
   <varray name="positions" >
    <v>       0.75409000       0.83556500       0.50354300 </v>
    <v>       0.23522400       0.48949700       0.17465800 </v>
    <v>       0.24782900       0.50630400       0.49855600 </v>
    <v>       0.24449100       0.52033200       0.82885800 </v>
    <v>       0.00781900       0.67066200       0.99932400 </v>
    <v>       0.22514300       0.83699600       0.17328300 </v>
    <v>       0.75543100       0.50230800       0.49140600 </v>
    <v>       0.77600800       0.83239500       0.17416800 </v>
    <v>       0.99366000       0.98777100       0.00887300 </v>
    <v>       0.75361900       0.16692000       0.17898700 </v>
    <v>       0.24025300       0.83059300       0.82572800 </v>
    <v>       0.50031300       0.99234100       0.32109400 </v>
    <v>       0.99943200       0.00007600       0.32770200 </v>
    <v>       0.25522700       0.16156300       0.49130300 </v>
    <v>       0.01782700       0.01155200       0.66316800 </v>
    <v>       0.00957200       0.66493200       0.33265500 </v>
    <v>       0.00501400       0.65812900       0.66838300 </v>
    <v>       0.48061800       0.99891200       0.65983300 </v>
    <v>       0.49536700       0.65827900       0.66495900 </v>
    <v>       0.00950000       0.33244300       0.34917900 </v>
    <v>       0.49344600       0.33883700       0.33990800 </v>
    <v>       0.75630100       0.52428800       0.82534800 </v>
    <v>       0.25015800       0.15259200       0.83929300 </v>
    <v>       0.98671400       0.34174200       0.98566600 </v>
    <v>       0.50541200       0.98986500       0.01632100 </v>
    <v>       0.50207900       0.34195800       0.66941600 </v>
    <v>       0.49573500       0.66628600       0.00496200 </v>
    <v>       0.74325900       0.15975700       0.49079300 </v>
    <v>       0.75628900       0.83477300       0.82197000 </v>
    <v>       0.50664400       0.34394800       0.99650600 </v>
    <v>       0.24347600       0.17302800       0.17110600 </v>
    <v>       0.00061200       0.33700200       0.66298300 </v>
    <v>       0.24356400       0.83300800       0.50255800 </v>
    <v>       0.74639600       0.14563500       0.82761400 </v>
    <v>       0.49311500       0.66628800       0.32721400 </v>
    <v>       0.77036100       0.49342600       0.18268000 </v>
   </varray>
  </structure>
  <varray name="forces" >
   <v>      -0.01112513       0.09940690      -0.00214963 </v>
   <v>       0.00221963      -0.02543814      -0.00866207 </v>
   <v>      -0.00851883      -0.03570523       0.02181754 </v>
   <v>       0.01907918      -0.03550743       0.05913527 </v>
   <v>      -0.01146530      -0.00041376       0.01879150 </v>
   <v>       0.03745809       0.01716133      -0.00310666 </v>
   <v>      -0.01198621       0.00088628      -0.03544669 </v>
   <v>      -0.01473023      -0.02011407      -0.03430143 </v>
   <v>      -0.04578681      -0.00596112      -0.00505626 </v>
   <v>      -0.01074197       0.00250610       0.00227261 </v>
   <v>       0.05307691      -0.00420670       0.04593942 </v>
   <v>       0.21516502      -0.16452155       0.33236195 </v>
   <v>      -0.23404617      -0.25318281       0.30546171 </v>
   <v>       0.00106295       0.01257368      -0.02326804 </v>
   <v>      -0.35932719      -0.34820150      -0.22016741 </v>
   <v>      -0.26062386       0.24958102       0.28106989 </v>
   <v>      -0.28335154       0.35274225      -0.32301267 </v>
   <v>       0.41687270      -0.27466946      -0.24760771 </v>
   <v>       0.26325485       0.32216346      -0.22753092 </v>
   <v>      -0.03015623       0.02662836       0.00323251 </v>
   <v>       0.02232220       0.02046077       0.01093658 </v>
   <v>      -0.00338170      -0.03383711       0.04025887 </v>
   <v>      -0.02258964       0.00216744       0.03008211 </v>
   <v>      -0.00439024       0.01475100       0.00029024 </v>
   <v>       0.03169987      -0.02286820      -0.02730430 </v>
   <v>       0.03767128       0.01019264       0.00981813 </v>
   <v>       0.01547674       0.00124503      -0.00691595 </v>
   <v>      -0.01904446      -0.08009080      -0.03245646 </v>
   <v>      -0.02229634      -0.01141899      -0.15842124 </v>
   <v>       0.00776173       0.00278580       0.00339863 </v>
   <v>       0.00064032       0.02210373      -0.02392325 </v>
   <v>      -0.01704897      -0.00085637      -0.00942722 </v>
   <v>      -0.01792784      -0.01123518      -0.00442113 </v>
   <v>       0.01878349       0.04247105       0.03195796 </v>
   <v>       0.23659767       0.15844992       0.20298714 </v>
   <v>       0.00939599      -0.03004836      -0.00663302 </v>
  </varray>
  <varray name="stress" >
   <v>      -9.37155816      -0.31606198       0.24123373 </v>
   <v>      -0.31606196      -7.91840792       0.33053911 </v>
   <v>       0.24123376       0.33053914      -7.94465863 </v>
  </varray>
  <energy>
   <i name="e_fr_energy">   -371.81713630 </i>
   <i name="e_wo_entrp">   -371.82406982 </i>
   <i name="e_0_energy">      0.02080054 </i>
  </energy>
  <time name="totalsc">   21.54   26.43</time>
 </calculation>
 <calculation>
  <scstep>
   <time name="dav">    1.16    1.16</time>
   <time name="total">    1.23    2.05</time>
   <energy>
    <i name="alphaZ">   1569.26214719 </i>
    <i name="ewald"> -20134.83743759 </i>
    <i name="hartreedc">  -6275.91522043 </i>
    <i name="XCdc">   -334.47833509 </i>
    <i name="pawpsdc">  33552.94002704 </i>
    <i name="pawaedc"> -31885.10365325 </i>
    <i name="eentropy">      0.02082835 </i>
    <i name="bandstr">  -2511.10200796 </i>
    <i name="atom">  25647.32148816 </i>
    <i name="e_fr_energy">   -371.89216359 </i>
    <i name="e_wo_entrp">   -371.91299194 </i>
    <i name="e_0_energy">   -371.89910637 </i>
   </energy>
  </scstep>
  <scstep>
   <time name="diag">    0.07    0.08</time>
   <time name="diis">    0.79    0.80</time>
   <time name="orth">    0.01    0.01</time>
   <time name="total">    0.95    1.14</time>
   <energy>
    <i name="e_fr_energy">   -371.86734468 </i>
    <i name="e_wo_entrp">   -371.88771605 </i>
    <i name="e_0_energy">   -371.87413514 </i>
   </energy>
  </scstep>
  <scstep>
   <time name="diag">    0.07    0.07</time>
   <time name="diis">    0.81    0.81</time>
   <time name="orth">    0.01    0.01</time>
   <time name="total">    0.97    1.20</time>
   <energy>
    <i name="e_fr_energy">   -371.86052258 </i>
    <i name="e_wo_entrp">   -371.88064799 </i>
    <i name="e_0_energy">   -371.86723105 </i>
   </energy>
  </scstep>
  <scstep>
   <time name="diag">    0.10    0.10</time>
   <time name="diis">    0.78    0.86</time>
   <time name="orth">    0.01    0.02</time>
   <time name="total">    0.98    1.31</time>
   <energy>
    <i name="e_fr_energy">   -371.85482175 </i>
    <i name="e_wo_entrp">   -371.87530346 </i>
    <i name="e_0_energy">   -371.86164899 </i>
   </energy>
  </scstep>
  <scstep>
   <time name="diag">    0.08    0.08</time>
   <time name="diis">    0.86    0.87</time>
   <time name="orth">    0.01    0.01</time>
   <time name="total">    1.06    1.34</time>
   <energy>
    <i name="e_fr_energy">   -371.85394902 </i>
    <i name="e_wo_entrp">   -371.87421055 </i>
    <i name="e_0_energy">   -371.86070286 </i>
   </energy>
  </scstep>
  <scstep>
   <time name="diag">    0.08    0.09</time>
   <time name="diis">    0.73    0.87</time>
   <time name="orth">    0.01    0.01</time>
   <time name="total">    0.89    1.23</time>
   <energy>
    <i name="e_fr_energy">   -371.85408629 </i>
    <i name="e_wo_entrp">   -371.87441532 </i>
    <i name="e_0_energy">   -371.86086263 </i>
   </energy>
  </scstep>
  <scstep>
   <time name="diag">    0.08    0.08</time>
   <time name="diis">    0.81    0.81</time>
   <time name="orth">    0.01    0.01</time>
   <time name="total">    0.99    1.24</time>
   <energy>
    <i name="e_fr_energy">   -371.85415631 </i>
    <i name="e_wo_entrp">   -371.87446546 </i>
    <i name="e_0_energy">   -371.86092603 </i>
   </energy>
  </scstep>
  <scstep>
   <time name="diag">    0.08    0.08</time>
   <time name="diis">    0.80    0.81</time>
   <time name="orth">    0.01    0.01</time>
   <time name="total">    0.97    1.19</time>
   <energy>
    <i name="e_fr_energy">   -371.85422568 </i>
    <i name="e_wo_entrp">   -371.87449733 </i>
    <i name="e_0_energy">   -371.86098289 </i>
   </energy>
  </scstep>
  <scstep>
   <time name="diag">    0.07    0.08</time>
   <time name="diis">    0.68    0.69</time>
   <time name="orth">    0.01    0.01</time>
   <time name="total">    0.84    1.09</time>
   <energy>
    <i name="e_fr_energy">   -371.85430123 </i>
    <i name="e_wo_entrp">   -371.87459645 </i>
    <i name="e_0_energy">   -371.86106630 </i>
   </energy>
  </scstep>
  <scstep>
   <time name="diag">    0.08    0.08</time>
   <time name="diis">    0.52    0.52</time>
   <time name="orth">    0.01    0.01</time>
   <time name="total">    0.70    0.92</time>
   <energy>
    <i name="e_fr_energy">   -371.85435499 </i>
    <i name="e_wo_entrp">   -371.87464771 </i>
    <i name="e_0_energy">   -371.86111923 </i>
   </energy>
  </scstep>
  <scstep>
   <time name="diag">    0.08    0.08</time>
   <time name="diis">    0.61    0.65</time>
   <time name="orth">    0.01    0.01</time>
   <time name="total">    0.78    1.05</time>
   <energy>
    <i name="e_fr_energy">   -371.85438970 </i>
    <i name="e_wo_entrp">   -371.87466999 </i>
    <i name="e_0_energy">   -371.86114980 </i>
   </energy>
  </scstep>
  <scstep>
   <time name="diag">    0.07    0.08</time>
   <time name="diis">    0.43    0.43</time>
   <time name="orth">    0.01    0.01</time>
   <time name="total">    0.59    0.86</time>
   <energy>
    <i name="e_fr_energy">   -371.85440227 </i>
    <i name="e_wo_entrp">   -371.87469722 </i>
    <i name="e_0_energy">   -371.86116725 </i>
   </energy>
  </scstep>
  <scstep>
   <time name="diag">    0.11    0.11</time>
   <time name="diis">    0.43    0.43</time>
   <time name="orth">    0.01    0.01</time>
   <time name="total">    0.59    0.79</time>
   <energy>
    <i name="alphaZ">   1569.26214719 </i>
    <i name="ewald"> -20134.83743759 </i>
    <i name="hartreedc">  -6257.09569920 </i>
    <i name="XCdc">   -335.26341480 </i>
    <i name="pawpsdc">  33729.75693079 </i>
    <i name="pawaedc"> -32061.69242507 </i>
    <i name="eentropy">      0.02028579 </i>
    <i name="bandstr">  -2529.32627899 </i>
    <i name="atom">  25647.32148816 </i>
    <i name="e_fr_energy">   -371.85440373 </i>
    <i name="e_wo_entrp">   -371.87468952 </i>
    <i name="e_0_energy">   -371.86116566 </i>
   </energy>
  </scstep>
  <structure>
   <crystal>
    <varray name="basis" >
     <v>       6.82405294       0.01176895       0.00146049 </v>
     <v>       0.01779552      10.19049842      -0.00431395 </v>
     <v>       0.00227648      -0.00416620      10.17753540 </v>
    </varray>
    <i name="volume">    707.74861869 </i>
    <varray name="rec_basis" >
     <v>       0.14654093      -0.00025592      -0.00003288 </v>
     <v>      -0.00016925       0.09813094       0.00004021 </v>
     <v>      -0.00002110       0.00004163       0.09825564 </v>
    </varray>
   </crystal>
   <varray name="positions" >
    <v>       0.75406607       0.83570601       0.50354002 </v>
    <v>       0.23522880       0.48946091       0.17464568 </v>
    <v>       0.24781109       0.50625340       0.49858696 </v>
    <v>       0.24453151       0.52028163       0.82894194 </v>
    <v>       0.00779472       0.67066145       0.99935069 </v>
    <v>       0.22522225       0.83702024       0.17327859 </v>
    <v>       0.75540563       0.50230926       0.49135567 </v>
    <v>       0.77597690       0.83236649       0.17411928 </v>
    <v>       0.99356308       0.98776266       0.00886583 </v>
    <v>       0.75359625       0.16692358       0.17899023 </v>
    <v>       0.24036538       0.83058693       0.82579322 </v>
    <v>       0.50076907       0.99210735       0.32156579 </v>
    <v>       0.99893730      -0.00028228       0.32813564 </v>
    <v>       0.25522921       0.16158081       0.49126997 </v>
    <v>       0.01706761       0.01105893       0.66285521 </v>
    <v>       0.00901912       0.66528681       0.33305436 </v>
    <v>       0.00441283       0.65862977       0.66792463 </v>
    <v>       0.48150179       0.99852124       0.65948110 </v>
    <v>       0.49592325       0.65873508       0.66463606 </v>
    <v>       0.00943605       0.33248084       0.34918362 </v>
    <v>       0.49349318       0.33886597       0.33992354 </v>
    <v>       0.75629395       0.52424005       0.82540515 </v>
    <v>       0.25011015       0.15259515       0.83933572 </v>
    <v>       0.98670465       0.34176293       0.98566642 </v>
    <v>       0.50547922       0.98983247       0.01628220 </v>
    <v>       0.50215872       0.34197237       0.66942994 </v>
    <v>       0.49576777       0.66628772       0.00495218 </v>
    <v>       0.74321900       0.15964344       0.49074686 </v>
    <v>       0.75624190       0.83475676       0.82174504 </v>
    <v>       0.50666042       0.34395193       0.99651083 </v>
    <v>       0.24347728       0.17305933       0.17107204 </v>
    <v>       0.00057591       0.33700082       0.66296962 </v>
    <v>       0.24352609       0.83299211       0.50255172 </v>
    <v>       0.74643560       0.14569521       0.82765941 </v>
    <v>       0.49361527       0.66651225       0.32750230 </v>
    <v>       0.77038101       0.49338336       0.18267056 </v>
   </varray>
  </structure>
  <varray name="forces" >
   <v>      -0.00876870       0.08758107       0.00266441 </v>
   <v>       0.01110623      -0.00683060      -0.00334595 </v>
   <v>      -0.00351159      -0.02352924       0.02225708 </v>
   <v>       0.01716259      -0.02113581       0.03512449 </v>
   <v>      -0.01154119      -0.01289717       0.02193747 </v>
   <v>       0.05199749       0.00986156       0.00293564 </v>
   <v>      -0.01557527       0.00957786      -0.02018631 </v>
   <v>      -0.03537199      -0.02686104      -0.02915015 </v>
   <v>      -0.03281002       0.01601592      -0.01218440 </v>
   <v>      -0.01283190       0.00963347      -0.00475079 </v>
   <v>       0.05952300       0.00360934       0.03367665 </v>
   <v>       0.17593792      -0.14395827       0.30200900 </v>
   <v>      -0.19367232      -0.21661863       0.27158264 </v>
   <v>       0.00272288       0.00193823      -0.00872685 </v>
   <v>      -0.33551948      -0.31265588      -0.19567209 </v>
   <v>      -0.24157117       0.21059686       0.24257658 </v>
   <v>      -0.24681520       0.30562149      -0.28284017 </v>
   <v>       0.38195618      -0.24495266      -0.21867366 </v>
   <v>       0.23057323       0.28854221      -0.20596174 </v>
   <v>      -0.03015144       0.01710719      -0.00941965 </v>
   <v>       0.02039631       0.00997613       0.00015423 </v>
   <v>      -0.00739156      -0.03426222       0.03362639 </v>
   <v>      -0.02270044      -0.00764995       0.01008867 </v>
   <v>       0.00001653       0.00558945      -0.00704604 </v>
   <v>       0.02290537      -0.01427861      -0.03301762 </v>
   <v>       0.02654280       0.00314582       0.02260059 </v>
   <v>       0.01725484      -0.00166285      -0.00079609 </v>
   <v>      -0.01567838      -0.06359716      -0.01895228 </v>
   <v>      -0.02885420      -0.00774648      -0.13749483 </v>
   <v>       0.00350820      -0.00305318       0.00118833 </v>
   <v>       0.00134681       0.00761077      -0.01355706 </v>
   <v>      -0.00871649      -0.00671686       0.00429586 </v>
   <v>      -0.01017169      -0.00434500      -0.00216964 </v>
   <v>       0.02039597       0.04285077       0.03134994 </v>
   <v>       0.21533377       0.14463982       0.17988527 </v>
   <v>       0.00297288      -0.02114637      -0.01400792 </v>
  </varray>
  <varray name="stress" >
   <v>      -2.90659723      -0.27919722       0.12551665 </v>
   <v>      -0.27919718      -1.70113102       0.23020482 </v>
   <v>       0.12551665       0.23020486      -1.71966805 </v>
  </varray>
  <energy>
   <i name="e_fr_energy">   -371.85440373 </i>
   <i name="e_wo_entrp">   -371.86116566 </i>
   <i name="e_0_energy">      0.02028579 </i>
  </energy>
  <time name="totalsc">   13.20   17.72</time>
 </calculation>
 <calculation>
  <scstep>
   <time name="dav">    1.20    1.21</time>
   <time name="total">    1.31    2.62</time>
   <energy>
    <i name="alphaZ">   1582.42376183 </i>
    <i name="ewald"> -20194.58582566 </i>
    <i name="hartreedc">  -6271.39587527 </i>
    <i name="XCdc">   -332.88549928 </i>
    <i name="pawpsdc">  33730.14946200 </i>
    <i name="pawaedc"> -32062.06586610 </i>
    <i name="eentropy">      0.02013170 </i>
    <i name="bandstr">  -2470.99356564 </i>
    <i name="atom">  25647.32148816 </i>
    <i name="e_fr_energy">   -372.01178826 </i>
    <i name="e_wo_entrp">   -372.03191996 </i>
    <i name="e_0_energy">   -372.01849883 </i>
   </energy>
  </scstep>
  <scstep>
   <time name="diag">    0.08    0.08</time>
   <time name="diis">    0.79    0.80</time>
   <time name="orth">    0.01    0.01</time>
   <time name="total">    0.95    1.17</time>
   <energy>
    <i name="e_fr_energy">   -371.92472251 </i>
    <i name="e_wo_entrp">   -371.94377697 </i>
    <i name="e_0_energy">   -371.93107400 </i>
   </energy>
  </scstep>
  <scstep>
   <time name="diag">    0.08    0.08</time>
   <time name="diis">    0.83    0.86</time>
   <time name="orth">    0.01    0.01</time>
   <time name="total">    0.99    1.18</time>
   <energy>
    <i name="e_fr_energy">   -371.90157003 </i>
    <i name="e_wo_entrp">   -371.92067434 </i>
    <i name="e_0_energy">   -371.90793813 </i>
   </energy>
  </scstep>
  <scstep>
   <time name="diag">    0.08    0.08</time>
   <time name="diis">    0.81    0.82</time>
   <time name="orth">    0.01    0.01</time>
   <time name="total">    0.99    1.18</time>
   <energy>
    <i name="e_fr_energy">   -371.88200817 </i>
    <i name="e_wo_entrp">   -371.90159409 </i>
    <i name="e_0_energy">   -371.88853681 </i>
   </energy>
  </scstep>
  <scstep>
   <time name="diag">    0.08    0.08</time>
   <time name="diis">    0.88    0.89</time>
   <time name="orth">    0.01    0.01</time>
   <time name="total">    1.06    1.30</time>
   <energy>
    <i name="e_fr_energy">   -371.87902860 </i>
    <i name="e_wo_entrp">   -371.89825650 </i>
    <i name="e_0_energy">   -371.88543790 </i>
   </energy>
  </scstep>
  <scstep>
   <time name="diag">    0.08    0.12</time>
   <time name="diis">    0.82    0.82</time>
   <time name="orth">    0.01    0.01</time>
   <time name="total">    0.97    1.29</time>
   <energy>
    <i name="e_fr_energy">   -371.87944530 </i>
    <i name="e_wo_entrp">   -371.89882426 </i>
    <i name="e_0_energy">   -371.88590495 </i>
   </energy>
  </scstep>
  <scstep>
   <time name="diag">    0.07    0.08</time>
   <time name="diis">    0.82    0.91</time>
   <time name="orth">    0.01    0.01</time>
   <time name="total">    0.99    1.12</time>
   <energy>
    <i name="e_fr_energy">   -371.87965788 </i>
    <i name="e_wo_entrp">   -371.89897327 </i>
    <i name="e_0_energy">   -371.88609634 </i>
   </energy>
  </scstep>
  <scstep>
   <time name="diag">    0.10    0.10</time>
   <time name="diis">    0.84    1.00</time>
   <time name="orth">    0.01    0.03</time>
   <time name="total">    1.02    1.22</time>
   <energy>
    <i name="e_fr_energy">   -371.87986663 </i>
    <i name="e_wo_entrp">   -371.89912111 </i>
    <i name="e_0_energy">   -371.88628479 </i>
   </energy>
  </scstep>
  <scstep>
   <time name="diag">    0.07    0.07</time>
   <time name="diis">    0.77    0.77</time>
   <time name="orth">    0.01    0.01</time>
   <time name="total">    0.92    0.96</time>
   <energy>
    <i name="e_fr_energy">   -371.88010263 </i>
    <i name="e_wo_entrp">   -371.89939946 </i>
    <i name="e_0_energy">   -371.88653490 </i>
   </energy>
  </scstep>
  <scstep>
   <time name="diag">    0.08    0.08</time>
   <time name="diis">    0.75    0.75</time>
   <time name="orth">    0.01    0.01</time>
   <time name="total">    0.90    0.93</time>
   <energy>
    <i name="e_fr_energy">   -371.88025760 </i>
    <i name="e_wo_entrp">   -371.89955414 </i>
    <i name="e_0_energy">   -371.88668978 </i>
   </energy>
  </scstep>
  <scstep>
   <time name="diag">    0.07    0.07</time>
   <time name="diis">    0.70    0.71</time>
   <time name="orth">    0.01    0.01</time>
   <time name="total">    0.86    0.89</time>
   <energy>
    <i name="e_fr_energy">   -371.88035439 </i>
    <i name="e_wo_entrp">   -371.89961546 </i>
    <i name="e_0_energy">   -371.88677475 </i>
   </energy>
  </scstep>
  <scstep>
   <time name="diag">    0.07    0.08</time>
   <time name="diis">    0.60    0.60</time>
   <time name="orth">    0.01    0.01</time>
   <time name="total">    0.75    0.78</time>
   <energy>
    <i name="e_fr_energy">   -371.88038619 </i>
    <i name="e_wo_entrp">   -371.89968574 </i>
    <i name="e_0_energy">   -371.88681937 </i>
   </energy>
  </scstep>
  <scstep>
   <time name="diag">    0.07    0.07</time>
   <time name="diis">    0.48    0.48</time>
   <time name="orth">    0.01    0.01</time>
   <time name="total">    0.60    0.63</time>
   <energy>
    <i name="alphaZ">   1582.42376183 </i>
    <i name="ewald"> -20194.58582566 </i>
    <i name="hartreedc">  -6236.70288534 </i>
    <i name="XCdc">   -334.33466935 </i>
    <i name="pawpsdc">  34068.88704535 </i>
    <i name="pawaedc"> -32400.28934304 </i>
    <i name="eentropy">      0.01927869 </i>
    <i name="bandstr">  -2504.61923810 </i>
    <i name="atom">  25647.32148816 </i>
    <i name="e_fr_energy">   -371.88038747 </i>
    <i name="e_wo_entrp">   -371.89966616 </i>
    <i name="e_0_energy">   -371.88681370 </i>
   </energy>
  </scstep>
  <structure>
   <crystal>
    <varray name="basis" >
     <v>       6.80291128       0.01102429       0.00200293 </v>
     <v>       0.01667379      10.16382853      -0.00318640 </v>
     <v>       0.00308268      -0.00304214      10.15081310 </v>
    </varray>
    <i name="volume">    701.86200677 </i>
    <varray name="rec_basis" >
     <v>       0.14699629      -0.00024116      -0.00004471 </v>
     <v>      -0.00015945       0.09838839       0.00002953 </v>
     <v>      -0.00002905       0.00003093       0.09851429 </v>
    </varray>
   </crystal>
   <varray name="positions" >
    <v>       0.75402174       0.83596723       0.50353448 </v>
    <v>       0.23523769       0.48939406       0.17462286 </v>
    <v>       0.24777789       0.50615965       0.49864432 </v>
    <v>       0.24460656       0.52018832       0.82909746 </v>
    <v>       0.00774972       0.67066044       0.99940013 </v>
    <v>       0.22536910       0.83706516       0.17327042 </v>
    <v>       0.75535863       0.50231161       0.49126243 </v>
    <v>       0.77591928       0.83231367       0.17402903 </v>
    <v>       0.99338348       0.98774720       0.00885254 </v>
    <v>       0.75355408       0.16693022       0.17899622 </v>
    <v>       0.24057361       0.83057569       0.82591404 </v>
    <v>       0.50161410       0.99167448       0.32243983 </v>
    <v>       0.99802049      -0.00094609       0.32893907 </v>
    <v>       0.25523332       0.16161382       0.49120877 </v>
    <v>       0.01566038       0.01014548       0.66227583 </v>
    <v>       0.00799461       0.66594403       0.33379419 </v>
    <v>       0.00329898       0.65955748       0.66707544 </v>
    <v>       0.48313948       0.99779743       0.65882918 </v>
    <v>       0.49695412       0.65958008       0.66403771 </v>
    <v>       0.00931754       0.33255095       0.34919217 </v>
    <v>       0.49358061       0.33891964       0.33995232 </v>
    <v>       0.75628088       0.52415120       0.82551102 </v>
    <v>       0.25002148       0.15260098       0.83941488 </v>
    <v>       0.98668732       0.34180171       0.98566721 </v>
    <v>       0.50560377       0.98977221       0.01621033 </v>
    <v>       0.50230644       0.34199899       0.66945576 </v>
    <v>       0.49582849       0.66629092       0.00493398 </v>
    <v>       0.74314485       0.15943306       0.49066140 </v>
    <v>       0.75615463       0.83472669       0.82132828 </v>
    <v>       0.50669085       0.34395922       0.99651977 </v>
    <v>       0.24347966       0.17311738       0.17100913 </v>
    <v>       0.00050903       0.33699864       0.66294483 </v>
    <v>       0.24345583       0.83296267       0.50254009 </v>
    <v>       0.74650897       0.14580674       0.82774351 </v>
    <v>       0.49454229       0.66692770       0.32803633 </v>
    <v>       0.77041809       0.49330436       0.18265307 </v>
   </varray>
  </structure>
  <varray name="forces" >
   <v>      -0.00557211       0.06199035       0.00974461 </v>
   <v>       0.02806550       0.02974785       0.00699757 </v>
   <v>       0.00595565      -0.00174497       0.02235971 </v>
   <v>       0.01390484       0.00378227      -0.00797310 </v>
   <v>      -0.01192152      -0.03639767       0.02801540 </v>
   <v>       0.08113248      -0.00431253       0.01395096 </v>
   <v>      -0.02240732       0.02476883       0.00920462 </v>
   <v>      -0.07599158      -0.03928980      -0.02077612 </v>
   <v>      -0.00823433       0.05711824      -0.02587491 </v>
   <v>      -0.01653425       0.02246968      -0.01862411 </v>
   <v>       0.07114280       0.01858716       0.01129602 </v>
   <v>       0.10029870      -0.10409033       0.24349997 </v>
   <v>      -0.11638653      -0.14577444       0.20623909 </v>
   <v>       0.00434960      -0.01592776       0.01858632 </v>
   <v>      -0.28785115      -0.24465293      -0.14939552 </v>
   <v>      -0.20294782       0.13716430       0.16862721 </v>
   <v>      -0.17628177       0.21563547      -0.20690009 </v>
   <v>       0.31420939      -0.18931639      -0.16238692 </v>
   <v>       0.16581458       0.22422221      -0.16581647 </v>
   <v>      -0.03019734      -0.00028105      -0.03315560 </v>
   <v>       0.01619227      -0.00912205      -0.02028700 </v>
   <v>      -0.01381770      -0.03598830       0.02080114 </v>
   <v>      -0.02313799      -0.02472002      -0.02686242 </v>
   <v>       0.00875321      -0.01117415      -0.02123223 </v>
   <v>       0.00564259       0.00206051      -0.04459821 </v>
   <v>       0.00521169      -0.00966733       0.04632090 </v>
   <v>       0.02056423      -0.00737446       0.01170284 </v>
   <v>      -0.00839404      -0.02960473       0.00680661 </v>
   <v>      -0.04021726      -0.00038796      -0.09472318 </v>
   <v>      -0.00521356      -0.01345271      -0.00298246 </v>
   <v>       0.00213788      -0.01982993       0.00673954 </v>
   <v>       0.00765516      -0.01767548       0.03002117 </v>
   <v>       0.00538978       0.00820032       0.00316574 </v>
   <v>       0.02369993       0.04226916       0.03070614 </v>
   <v>       0.17328062       0.11712205       0.13474248 </v>
   <v>      -0.00829464      -0.00435341      -0.02793970 </v>
  </varray>
  <varray name="stress" >
   <v>       9.57969389      -0.21720987      -0.09177584 </v>
   <v>      -0.21720982      10.28982874       0.02214966 </v>
   <v>      -0.09177581       0.02214971      10.28769353 </v>
  </varray>
  <energy>
   <i name="e_fr_energy">   -371.88038747 </i>
   <i name="e_wo_entrp">   -371.88681370 </i>
   <i name="e_0_energy">      0.01927869 </i>
  </energy>
  <time name="totalsc">   13.97   17.25</time>
 </calculation>
 <calculation>
  <scstep>
   <time name="dav">    0.92    1.06</time>
   <time name="total">    1.00    1.27</time>
   <energy>
    <i name="alphaZ">   1580.14741579 </i>
    <i name="ewald"> -20187.02476421 </i>
    <i name="hartreedc">  -6231.93842490 </i>
    <i name="XCdc">   -334.77540622 </i>
    <i name="pawpsdc">  34069.28759204 </i>
    <i name="pawaedc"> -32400.63975006 </i>
    <i name="eentropy">      0.01925930 </i>
    <i name="bandstr">  -2514.29315765 </i>
    <i name="atom">  25647.32148816 </i>
    <i name="e_fr_energy">   -371.89574775 </i>
    <i name="e_wo_entrp">   -371.91500704 </i>
    <i name="e_0_energy">   -371.90216751 </i>
   </energy>
  </scstep>
  <scstep>
   <time name="diag">    0.08    0.08</time>
   <time name="diis">    0.70    0.71</time>
   <time name="orth">    0.01    0.01</time>
   <time name="total">    0.86    0.89</time>
   <energy>
    <i name="e_fr_energy">   -371.91506163 </i>
    <i name="e_wo_entrp">   -371.93597945 </i>
    <i name="e_0_energy">   -371.92203424 </i>
   </energy>
  </scstep>
  <scstep>
   <time name="diag">    0.12    0.12</time>
   <time name="diis">    0.72    0.79</time>
   <time name="orth">    0.01    0.01</time>
   <time name="total">    0.92    1.02</time>
   <energy>
    <i name="e_fr_energy">   -371.91062825 </i>
    <i name="e_wo_entrp">   -371.93051854 </i>
    <i name="e_0_energy">   -371.91725835 </i>
   </energy>
  </scstep>
  <scstep>
   <time name="diag">    0.08    0.08</time>
   <time name="diis">    0.80    0.81</time>
   <time name="orth">    0.01    0.01</time>
   <time name="total">    0.95    1.02</time>
   <energy>
    <i name="e_fr_energy">   -371.90955359 </i>
    <i name="e_wo_entrp">   -371.92956072 </i>
    <i name="e_0_energy">   -371.91622263 </i>
   </energy>
  </scstep>
  <scstep>
   <time name="diag">    0.07    0.07</time>
   <time name="diis">    0.79    0.80</time>
   <time name="orth">    0.01    0.01</time>
   <time name="total">    0.94    0.98</time>
   <energy>
    <i name="e_fr_energy">   -371.90943143 </i>
    <i name="e_wo_entrp">   -371.92969770 </i>
    <i name="e_0_energy">   -371.91618685 </i>
   </energy>
  </scstep>
  <scstep>
   <time name="diag">    0.11    0.11</time>
   <time name="diis">    0.84    0.84</time>
   <time name="orth">    0.01    0.01</time>
   <time name="total">    1.02    1.05</time>
   <energy>
    <i name="e_fr_energy">   -371.90938111 </i>
    <i name="e_wo_entrp">   -371.92946590 </i>
    <i name="e_0_energy">   -371.91607604 </i>
   </energy>
  </scstep>
  <scstep>
   <time name="diag">    0.07    0.07</time>
   <time name="diis">    0.81    0.82</time>
   <time name="orth">    0.01    0.01</time>
   <time name="total">    0.97    0.99</time>
   <energy>
    <i name="e_fr_energy">   -371.90933979 </i>
    <i name="e_wo_entrp">   -371.92949282 </i>
    <i name="e_0_energy">   -371.91605747 </i>
   </energy>
  </scstep>
  <scstep>
   <time name="diag">    0.07    0.07</time>
   <time name="diis">    0.60    0.60</time>
   <time name="orth">    0.01    0.01</time>
   <time name="total">    0.75    0.78</time>
   <energy>
    <i name="e_fr_energy">   -371.90933820 </i>
    <i name="e_wo_entrp">   -371.92947823 </i>
    <i name="e_0_energy">   -371.91605154 </i>
   </energy>
  </scstep>
  <scstep>
   <time name="diag">    0.08    0.08</time>
   <time name="diis">    0.46    0.46</time>
   <time name="orth">    0.01    0.01</time>
   <time name="total">    0.58    0.61</time>
   <energy>
    <i name="alphaZ">   1580.14741579 </i>
    <i name="ewald"> -20187.02476421 </i>
    <i name="hartreedc">  -6237.58150640 </i>
    <i name="XCdc">   -334.53762081 </i>
    <i name="pawpsdc">  33996.10125082 </i>
    <i name="pawaedc"> -32327.39676370 </i>
    <i name="eentropy">      0.02014183 </i>
    <i name="bandstr">  -2508.95897990 </i>
    <i name="atom">  25647.32148816 </i>
    <i name="e_fr_energy">   -371.90933841 </i>
    <i name="e_wo_entrp">   -371.92948025 </i>
    <i name="e_0_energy">   -371.91605236 </i>
   </energy>
  </scstep>
  <structure>
   <crystal>
    <varray name="basis" >
     <v>       6.80474743       0.01049218       0.00212947 </v>
     <v>       0.01587341      10.16979266      -0.00268677 </v>
     <v>       0.00327000      -0.00254364      10.15673060 </v>
    </varray>
    <i name="volume">    702.87310281 </i>
    <varray name="rec_basis" >
     <v>       0.14695659      -0.00022939      -0.00004737 </v>
     <v>      -0.00015162       0.09833066       0.00002467 </v>
     <v>      -0.00003085       0.00002606       0.09845690 </v>
    </varray>
   </crystal>
   <varray name="positions" >
    <v>       0.75399192       0.83615886       0.50354506 </v>
    <v>       0.23529673       0.48940523       0.17462254 </v>
    <v>       0.24777568       0.50611797       0.49869799 </v>
    <v>       0.24466552       0.52015409       0.82915222 </v>
    <v>       0.00770738       0.67061195       0.99945794 </v>
    <v>       0.22559097       0.83707816       0.17328540 </v>
    <v>       0.75529457       0.50234537       0.49123547 </v>
    <v>       0.77574519       0.83223973       0.17396366 </v>
    <v>       0.99329160       0.98781618       0.00881277 </v>
    <v>       0.75350366       0.16696272       0.17897411 </v>
    <v>       0.24080147       0.83059538       0.82597970 </v>
    <v>       0.50216726       0.99135502       0.32312895 </v>
    <v>       0.99740580      -0.00141720       0.32954936 </v>
    <v>       0.25524367       0.16160664       0.49120765 </v>
    <v>       0.01450173       0.00943915       0.66183495 </v>
    <v>       0.00716298       0.66640170       0.33432811 </v>
    <v>       0.00248252       0.66023230       0.66644522 </v>
    <v>       0.48444854       0.99724266       0.65834036 </v>
    <v>       0.49771403       0.66023084       0.66356702 </v>
    <v>       0.00920817       0.33258006       0.34915190 </v>
    <v>       0.49364935       0.33893008       0.33993755 </v>
    <v>       0.75624821       0.52406637       0.82558300 </v>
    <v>       0.24993864       0.15257080       0.83941258 </v>
    <v>       0.98669737       0.34180320       0.98563944 </v>
    <v>       0.50566726       0.98974961       0.01612114 </v>
    <v>       0.50237880       0.34199740       0.66952787 </v>
    <v>       0.49589461       0.66628248       0.00494180 </v>
    <v>       0.74309721       0.15930562       0.49063452 </v>
    <v>       0.75603866       0.83471361       0.82102796 </v>
    <v>       0.50669339       0.34394452       0.99651957 </v>
    <v>       0.24348495       0.17311555       0.17099162 </v>
    <v>       0.00049608       0.33697436       0.66297412 </v>
    <v>       0.24343692       0.83296112       0.50253939 </v>
    <v>       0.74658644       0.14590939       0.82781946 </v>
    <v>       0.49527339       0.66725661       0.32843881 </v>
    <v>       0.77041732       0.49326544       0.18260877 </v>
   </varray>
  </structure>
  <varray name="forces" >
   <v>       0.00093529       0.05075309       0.01621121 </v>
   <v>       0.01963132       0.04265990       0.03277067 </v>
   <v>      -0.00028634       0.02125683       0.01613574 </v>
   <v>      -0.00123729       0.05682175      -0.04968139 </v>
   <v>       0.00311728      -0.04010485       0.02037332 </v>
   <v>       0.05101906      -0.00081209       0.03045613 </v>
   <v>      -0.01495038       0.02605961       0.01397276 </v>
   <v>      -0.05207383      -0.02941502      -0.01209022 </v>
   <v>       0.00351743       0.04793454      -0.00627763 </v>
   <v>      -0.01480484       0.01297156      -0.00283628 </v>
   <v>       0.05627535       0.01703369      -0.01465774 </v>
   <v>       0.05765677      -0.07648402       0.17962870 </v>
   <v>      -0.07045817      -0.10246601       0.12724534 </v>
   <v>      -0.00152534      -0.03294488       0.02720085 </v>
   <v>      -0.22852167      -0.19732071      -0.11679875 </v>
   <v>      -0.16437119       0.08287436       0.10246159 </v>
   <v>      -0.11263104       0.13152752      -0.13544379 </v>
   <v>       0.24255685      -0.14961460      -0.12463749 </v>
   <v>       0.10839497       0.15521255      -0.12669159 </v>
   <v>      -0.01868278       0.00299601      -0.03840460 </v>
   <v>       0.00352136      -0.00615738      -0.02836605 </v>
   <v>      -0.00353855      -0.00877961       0.00153649 </v>
   <v>      -0.02867774      -0.05330887      -0.05537612 </v>
   <v>       0.01722814      -0.00509173      -0.02141390 </v>
   <v>      -0.00040893       0.00617249      -0.02847525 </v>
   <v>      -0.01003406       0.00216833       0.05197473 </v>
   <v>       0.00832585      -0.01563105       0.01422383 </v>
   <v>      -0.00105124      -0.01020244       0.00964809 </v>
   <v>      -0.02921108      -0.00186777      -0.06346140 </v>
   <v>      -0.01102443      -0.00890042      -0.00308666 </v>
   <v>      -0.00180785      -0.04001727       0.03258146 </v>
   <v>       0.01915059      -0.00665156       0.03291561 </v>
   <v>       0.00897346       0.01485078       0.01236771 </v>
   <v>       0.02914476       0.02367806       0.01984489 </v>
   <v>       0.13413088       0.08761933       0.10265759 </v>
   <v>       0.00171735       0.00317985      -0.01650785 </v>
  </varray>
  <varray name="stress" >
   <v>       7.43711775      -0.15185693      -0.18226621 </v>
   <v>      -0.15185694       7.73580052      -0.03253158 </v>
   <v>      -0.18226618      -0.03253153       7.91443922 </v>
  </varray>
  <energy>
   <i name="e_fr_energy">   -371.90933841 </i>
   <i name="e_wo_entrp">   -371.91605236 </i>
   <i name="e_0_energy">      0.02014183 </i>
  </energy>
  <time name="totalsc">    9.70   10.42</time>
 </calculation>
 <calculation>
  <scstep>
   <time name="dav">    0.99    1.00</time>
   <time name="total">    1.09    1.24</time>
   <energy>
    <i name="alphaZ">   1575.29131410 </i>
    <i name="ewald"> -20169.01148838 </i>
    <i name="hartreedc">  -6229.03136922 </i>
    <i name="XCdc">   -335.47289527 </i>
    <i name="pawpsdc">  33995.44358576 </i>
    <i name="pawaedc"> -32326.80629188 </i>
    <i name="eentropy">      0.01943722 </i>
    <i name="bandstr">  -2529.62952028 </i>
    <i name="atom">  25647.32148816 </i>
    <i name="e_fr_energy">   -371.87573981 </i>
    <i name="e_wo_entrp">   -371.89517703 </i>
    <i name="e_0_energy">   -371.88221888 </i>
   </energy>
  </scstep>
  <scstep>
   <time name="diag">    0.08    0.08</time>
   <time name="diis">    0.65    0.65</time>
   <time name="orth">    0.01    0.01</time>
   <time name="total">    0.82    0.85</time>
   <energy>
    <i name="e_fr_energy">   -371.96448246 </i>
    <i name="e_wo_entrp">   -371.98760431 </i>
    <i name="e_0_energy">   -371.97218974 </i>
   </energy>
  </scstep>
  <scstep>
   <time name="diag">    0.07    0.07</time>
   <time name="diis">    0.78    0.79</time>
   <time name="orth">    0.01    0.01</time>
   <time name="total">    0.93    0.96</time>
   <energy>
    <i name="e_fr_energy">   -371.94682765 </i>
    <i name="e_wo_entrp">   -371.96760527 </i>
    <i name="e_0_energy">   -371.95375352 </i>
   </energy>
  </scstep>
  <scstep>
   <time name="diag">    0.11    0.11</time>
   <time name="diis">    0.85    0.85</time>
   <time name="orth">    0.01    0.01</time>
   <time name="total">    1.06    1.10</time>
   <energy>
    <i name="e_fr_energy">   -371.94162144 </i>
    <i name="e_wo_entrp">   -371.96279664 </i>
    <i name="e_0_energy">   -371.94867984 </i>
   </energy>
  </scstep>
  <scstep>
   <time name="diag">    0.07    0.07</time>
   <time name="diis">    0.88    0.88</time>
   <time name="orth">    0.01    0.01</time>
   <time name="total">    1.05    1.08</time>
   <energy>
    <i name="e_fr_energy">   -371.94108525 </i>
    <i name="e_wo_entrp">   -371.96282726 </i>
    <i name="e_0_energy">   -371.94833259 </i>
   </energy>
  </scstep>
  <scstep>
   <time name="diag">    0.07    0.07</time>
   <time name="diis">    0.81    0.81</time>
   <time name="orth">    0.01    0.01</time>
   <time name="total">    0.96    0.99</time>
   <energy>
    <i name="e_fr_energy">   -371.94087106 </i>
    <i name="e_wo_entrp">   -371.96218682 </i>
    <i name="e_0_energy">   -371.94797631 </i>
   </energy>
  </scstep>
  <scstep>
   <time name="diag">    0.07    0.07</time>
   <time name="diis">    0.88    0.88</time>
   <time name="orth">    0.01    0.01</time>
   <time name="total">    1.06    1.10</time>
   <energy>
    <i name="e_fr_energy">   -371.94071585 </i>
    <i name="e_wo_entrp">   -371.96221380 </i>
    <i name="e_0_energy">   -371.94788184 </i>
   </energy>
  </scstep>
  <scstep>
   <time name="diag">    0.08    0.08</time>
   <time name="diis">    0.80    0.81</time>
   <time name="orth">    0.01    0.01</time>
   <time name="total">    0.96    1.01</time>
   <energy>
    <i name="e_fr_energy">   -371.94072889 </i>
    <i name="e_wo_entrp">   -371.96219746 </i>
    <i name="e_0_energy">   -371.94788508 </i>
   </energy>
  </scstep>
  <scstep>
   <time name="diag">    0.08    0.08</time>
   <time name="diis">    0.75    0.76</time>
   <time name="orth">    0.01    0.01</time>
   <time name="total">    0.91    0.98</time>
   <energy>
    <i name="e_fr_energy">   -371.94074310 </i>
    <i name="e_wo_entrp">   -371.96221143 </i>
    <i name="e_0_energy">   -371.94789921 </i>
   </energy>
  </scstep>
  <scstep>
   <time name="diag">    0.12    0.12</time>
   <time name="diis">    0.65    0.65</time>
   <time name="orth">    0.02    0.02</time>
   <time name="total">    0.88    0.92</time>
   <energy>
    <i name="e_fr_energy">   -371.94074584 </i>
    <i name="e_wo_entrp">   -371.96221058 </i>
    <i name="e_0_energy">   -371.94790075 </i>
   </energy>
  </scstep>
  <scstep>
   <time name="diag">    0.13    0.13</time>
   <time name="diis">    0.51    0.51</time>
   <time name="orth">    0.01    0.01</time>
   <time name="total">    0.68    0.71</time>
   <energy>
    <i name="alphaZ">   1575.29131410 </i>
    <i name="ewald"> -20169.01148838 </i>
    <i name="hartreedc">  -6240.63563021 </i>
    <i name="XCdc">   -334.98740795 </i>
    <i name="pawpsdc">  33838.14642270 </i>
    <i name="pawaedc"> -32169.87464754 </i>
    <i name="eentropy">      0.02146396 </i>
    <i name="bandstr">  -2518.21225864 </i>
    <i name="atom">  25647.32148816 </i>
    <i name="e_fr_energy">   -371.94074381 </i>
    <i name="e_wo_entrp">   -371.96220776 </i>
    <i name="e_0_energy">   -371.94789846 </i>
   </energy>
  </scstep>
  <structure>
   <crystal>
    <varray name="basis" >
     <v>       6.80867664       0.00935349       0.00240024 </v>
     <v>       0.01416068      10.18255541      -0.00161761 </v>
     <v>       0.00367086      -0.00147687      10.16939356 </v>
    </varray>
    <i name="volume">    705.03982794 </i>
    <varray name="rec_basis" >
     <v>       0.14687172      -0.00020426      -0.00005305 </v>
     <v>      -0.00013492       0.09820736       0.00001431 </v>
     <v>      -0.00003469       0.00001567       0.09833430 </v>
    </varray>
   </crystal>
   <varray name="positions" >
    <v>       0.75392819       0.83656867       0.50356768 </v>
    <v>       0.23542302       0.48942913       0.17462186 </v>
    <v>       0.24777095       0.50602881       0.49881278 </v>
    <v>       0.24479164       0.52008089       0.82926934 </v>
    <v>       0.00761678       0.67050825       0.99958160 </v>
    <v>       0.22606562       0.83710599       0.17331744 </v>
    <v>       0.75515752       0.50241758       0.49117781 </v>
    <v>       0.77537276       0.83208160       0.17382387 </v>
    <v>       0.99309504       0.98796370       0.00872769 </v>
    <v>       0.75339581       0.16703223       0.17892683 </v>
    <v>       0.24128894       0.83063751       0.82612011 </v>
    <v>       0.50335054       0.99067181       0.32460278 </v>
    <v>       0.99609060      -0.00242489       0.33085464 </v>
    <v>       0.25526583       0.16159128       0.49120525 </v>
    <v>       0.01202284       0.00792847       0.66089216 </v>
    <v>       0.00538394       0.66738037       0.33546996 </v>
    <v>       0.00073605       0.66167548       0.66509736 </v>
    <v>       0.48724893       0.99605640       0.65729496 </v>
    <v>       0.49933994       0.66162274       0.66256028 </v>
    <v>       0.00897419       0.33264232       0.34906580 </v>
    <v>       0.49379642       0.33895243       0.33990597 </v>
    <v>       0.75617827       0.52388494       0.82573694 </v>
    <v>       0.24976141       0.15250624       0.83940767 </v>
    <v>       0.98671888       0.34180640       0.98558004 </v>
    <v>       0.50580309       0.98970128       0.01593040 </v>
    <v>       0.50253360       0.34199402       0.66968210 </v>
    <v>       0.49603607       0.66626443       0.00495854 </v>
    <v>       0.74299526       0.15903306       0.49057704 </v>
    <v>       0.75579056       0.83468566       0.82038568 </v>
    <v>       0.50669882       0.34391307       0.99651915 </v>
    <v>       0.24349626       0.17311166       0.17095416 </v>
    <v>       0.00046838       0.33692244       0.66303678 </v>
    <v>       0.24339646       0.83295783       0.50253791 </v>
    <v>       0.74675218       0.14612893       0.82798187 </v>
    <v>       0.49683753       0.66796008       0.32929953 </v>
    <v>       0.77041567       0.49318221       0.18251402 </v>
   </varray>
  </structure>
  <varray name="forces" >
   <v>       0.01463080       0.02278850       0.02749353 </v>
   <v>       0.00451534       0.06834144       0.08499539 </v>
   <v>      -0.01267794       0.06700372      -0.00108070 </v>
   <v>      -0.03060849       0.16049978      -0.12815076 </v>
   <v>       0.03456967      -0.04789721       0.00577151 </v>
   <v>      -0.00799496       0.00426968       0.06194255 </v>
   <v>       0.00078463       0.02854847       0.02357920 </v>
   <v>      -0.00537363      -0.01055460       0.00445576 </v>
   <v>       0.02891011       0.02844013       0.03429687 </v>
   <v>      -0.01093253      -0.00316444       0.02723432 </v>
   <v>       0.02536583       0.01340901      -0.06620435 </v>
   <v>      -0.03349380      -0.01541425       0.05064480 </v>
   <v>       0.02493474      -0.01032733      -0.03371585 </v>
   <v>      -0.01179902      -0.06460528       0.04091682 </v>
   <v>      -0.10892289      -0.10307152      -0.05271802 </v>
   <v>      -0.08605432      -0.03086170      -0.03306774 </v>
   <v>       0.01484443      -0.03877773       0.00680680 </v>
   <v>       0.09483939      -0.06941235      -0.04491039 </v>
   <v>      -0.01015409       0.01485087      -0.04618003 </v>
   <v>       0.00559450       0.01084418      -0.05190129 </v>
   <v>      -0.02334802      -0.00123932      -0.04588926 </v>
   <v>       0.01740224       0.04692690      -0.03561613 </v>
   <v>      -0.03945454      -0.11035970      -0.11034072 </v>
   <v>       0.03561335       0.00709347      -0.01931535 </v>
   <v>      -0.01414667       0.01497994       0.00150458 </v>
   <v>      -0.04304047       0.02649844       0.06276066 </v>
   <v>      -0.01749380      -0.03334082       0.01985128 </v>
   <v>       0.01414758       0.03410471       0.01607579 </v>
   <v>      -0.00586793      -0.00406235       0.00662673 </v>
   <v>      -0.02269114      -0.00029562      -0.00258038 </v>
   <v>      -0.00937230      -0.07927736       0.08440342 </v>
   <v>       0.04397507       0.01717028       0.03811617 </v>
   <v>       0.01788144       0.02681196       0.03156197 </v>
   <v>       0.04004646      -0.01339539      -0.00072016 </v>
   <v>       0.05393523       0.02449205       0.03539938 </v>
   <v>       0.02143571       0.01898343       0.00795365 </v>
  </varray>
  <varray name="stress" >
   <v>       2.51771960      -0.04030685      -0.38437818 </v>
   <v>      -0.04030682       1.97118918      -0.16449422 </v>
   <v>      -0.38437815      -0.16449423       2.47911034 </v>
  </varray>
  <energy>
   <i name="e_fr_energy">   -371.94074381 </i>
   <i name="e_wo_entrp">   -371.94789846 </i>
   <i name="e_0_energy">      0.02146396 </i>
  </energy>
  <time name="totalsc">   12.02   12.84</time>
 </calculation>
 <calculation>
  <scstep>
   <time name="dav">    0.95    0.96</time>
   <time name="total">    1.05    1.93</time>
   <energy>
    <i name="alphaZ">   1573.99749967 </i>
    <i name="ewald"> -20163.77559113 </i>
    <i name="hartreedc">  -6238.72582235 </i>
    <i name="XCdc">   -335.23682142 </i>
    <i name="pawpsdc">  33837.41760447 </i>
    <i name="pawaedc"> -32169.18205171 </i>
    <i name="eentropy">      0.02117217 </i>
    <i name="bandstr">  -2523.77536490 </i>
    <i name="atom">  25647.32148816 </i>
    <i name="e_fr_energy">   -371.93788704 </i>
    <i name="e_wo_entrp">   -371.95905921 </i>
    <i name="e_0_energy">   -371.94494443 </i>
   </energy>
  </scstep>
  <scstep>
   <time name="diag">    0.09    0.09</time>
   <time name="diis">    0.66    0.66</time>
   <time name="orth">    0.01    0.01</time>
   <time name="total">    0.83    1.02</time>
   <energy>
    <i name="e_fr_energy">   -371.94409765 </i>
    <i name="e_wo_entrp">   -371.96630691 </i>
    <i name="e_0_energy">   -371.95150074 </i>
   </energy>
  </scstep>
  <scstep>
   <time name="diag">    0.07    0.07</time>
   <time name="diis">    0.74    0.75</time>
   <time name="orth">    0.01    0.01</time>
   <time name="total">    0.90    1.09</time>
   <energy>
    <i name="e_fr_energy">   -371.94269686 </i>
    <i name="e_wo_entrp">   -371.96422794 </i>
    <i name="e_0_energy">   -371.94987388 </i>
   </energy>
  </scstep>
  <scstep>
   <time name="diag">    0.08    0.08</time>
   <time name="diis">    0.80    0.80</time>
   <time name="orth">    0.01    0.01</time>
   <time name="total">    0.97    1.21</time>
   <energy>
    <i name="e_fr_energy">   -371.94234416 </i>
    <i name="e_wo_entrp">   -371.96397743 </i>
    <i name="e_0_energy">   -371.94955525 </i>
   </energy>
  </scstep>
  <scstep>
   <time name="diag">    0.08    0.08</time>
   <time name="diis">    0.80    0.84</time>
   <time name="orth">    0.01    0.01</time>
   <time name="total">    0.97    1.22</time>
   <energy>
    <i name="e_fr_energy">   -371.94230814 </i>
    <i name="e_wo_entrp">   -371.96409209 </i>
    <i name="e_0_energy">   -371.94956946 </i>
   </energy>
  </scstep>
  <scstep>
   <time name="diag">    0.08    0.08</time>
   <time name="diis">    0.84    0.84</time>
   <time name="orth">    0.01    0.01</time>
   <time name="total">    1.00    1.18</time>
   <energy>
    <i name="e_fr_energy">   -371.94229397 </i>
    <i name="e_wo_entrp">   -371.96396470 </i>
    <i name="e_0_energy">   -371.94951755 </i>
   </energy>
  </scstep>
  <scstep>
[...]
       <r>    6.8919    1.0000 </r>
       <r>    6.9370    1.0000 </r>
       <r>    6.9812    1.0000 </r>
       <r>    7.0274    1.0000 </r>
       <r>    7.0616    1.0000 </r>
       <r>    7.0931    1.0000 </r>
       <r>    7.1192    1.0000 </r>
       <r>    7.1921    1.0002 </r>
       <r>    7.2085    1.0003 </r>
       <r>    7.2378    1.0008 </r>
       <r>    7.2906    1.0035 </r>
       <r>    7.3194    1.0070 </r>
       <r>    7.3515    1.0134 </r>
       <r>    7.3932    1.0255 </r>
       <r>    7.4057    1.0292 </r>
       <r>    7.4374    1.0353 </r>
       <r>    7.4693    1.0289 </r>
       <r>    7.4866    1.0155 </r>
       <r>    7.5061    0.9890 </r>
       <r>    7.5320    0.9299 </r>
       <r>    7.5841    0.7234 </r>
       <r>    7.6180    0.5418 </r>
       <r>    7.6310    0.4687 </r>
       <r>    7.7131    0.0871 </r>
       <r>    7.7401    0.0195 </r>
       <r>    7.7688   -0.0199 </r>
       <r>    7.7898   -0.0324 </r>
       <r>    7.8577   -0.0255 </r>
       <r>    7.8786   -0.0191 </r>
       <r>    7.9125   -0.0104 </r>
       <r>    7.9333   -0.0067 </r>
       <r>    7.9674   -0.0029 </r>
       <r>    7.9973   -0.0013 </r>
       <r>    8.0719   -0.0001 </r>
       <r>    8.0936   -0.0000 </r>
       <r>    8.1426   -0.0000 </r>
       <r>    8.1846   -0.0000 </r>
       <r>    8.2588   -0.0000 </r>
       <r>    8.3399   -0.0000 </r>
       <r>    8.4173   -0.0000 </r>
       <r>    8.4263   -0.0000 </r>
       <r>    8.7403   -0.0000 </r>
       <r>    8.8419   -0.0000 </r>
       <r>    8.8917   -0.0000 </r>
       <r>    9.5506   -0.0000 </r>
       <r>    9.6240   -0.0000 </r>
       <r>    9.6393   -0.0000 </r>
       <r>    9.6839   -0.0000 </r>
       <r>    9.8307   -0.0000 </r>
      </set>
     </set>
    </set>
   </array>
  </eigenvalues>
  <separator name="orbital magnetization" >
   <v name="MAGDIPOLOUT">      0.00000000      0.00000000      0.00000000</v>
  </separator>
  <dos>
   <i name="efermi">      7.62542304 </i>
   <total>
    <array>
     <dimension dim="1">gridpoints</dimension>
     <dimension dim="2">spin</dimension>
     <field>energy</field>
     <field>total</field>
     <field>integrated</field>
     <set>
      <set comment="spin 1">
       <r>   -49.4554     0.0000     0.0000 </r>
       <r>   -49.2483     0.0000     0.0000 </r>
       <r>   -49.0413     0.0000     0.0000 </r>
       <r>   -48.8343     0.0000     0.0000 </r>
       <r>   -48.6272     0.0000     0.0000 </r>
       <r>   -48.4202     0.0000     0.0000 </r>
       <r>   -48.2132     0.0000     0.0000 </r>
       <r>   -48.0061    -0.0000    -0.0000 </r>
       <r>   -47.7991    -0.0000    -0.0000 </r>
       <r>   -47.5921    -0.0000    -0.0000 </r>
       <r>   -47.3851    -0.0000    -0.0000 </r>
       <r>   -47.1780    -0.0000    -0.0000 </r>
       <r>   -46.9710    -0.0370    -0.0077 </r>
       <r>   -46.7640    -0.9491    -0.2042 </r>
       <r>   -46.5569    19.5521     3.8437 </r>
       <r>   -46.3499    75.8545    19.5480 </r>
       <r>   -46.1429    12.8997    22.2186 </r>
       <r>   -45.9358    -1.0514    22.0009 </r>
       <r>   -45.7288    -0.0044    22.0000 </r>
       <r>   -45.5218    -0.0000    22.0000 </r>
       <r>   -45.3147    -0.0000    22.0000 </r>
       <r>   -45.1077     0.0000    22.0000 </r>
       <r>   -44.9007     0.0000    22.0000 </r>
       <r>   -44.6937     0.0000    22.0000 </r>
       <r>   -44.4866     0.0000    22.0000 </r>
       <r>   -44.2796     0.0000    22.0000 </r>
       <r>   -44.0726     0.0000    22.0000 </r>
       <r>   -43.8655     0.0000    22.0000 </r>
       <r>   -43.6585     0.0000    22.0000 </r>
       <r>   -43.4515     0.0000    22.0000 </r>
       <r>   -43.2444     0.0000    22.0000 </r>
       <r>   -43.0374     0.0000    22.0000 </r>
       <r>   -42.8304     0.0000    22.0000 </r>
       <r>   -42.6233     0.0000    22.0000 </r>
       <r>   -42.4163     0.0000    22.0000 </r>
       <r>   -42.2093     0.0000    22.0000 </r>
       <r>   -42.0023     0.0000    22.0000 </r>
       <r>   -41.7952    -0.0000    22.0000 </r>
       <r>   -41.5882    -0.0000    22.0000 </r>
       <r>   -41.3812    -0.0000    22.0000 </r>
       <r>   -41.1741    -0.0000    22.0000 </r>
       <r>   -40.9671    -0.0061    21.9987 </r>
       <r>   -40.7601    -0.6462    21.8650 </r>
       <r>   -40.5530     9.2684    23.7838 </r>
       <r>   -40.3460    36.6196    31.3652 </r>
       <r>   -40.1390     3.4114    32.0715 </r>
       <r>   -39.9319    -0.3440    32.0002 </r>
       <r>   -39.7249    -0.0011    32.0000 </r>
       <r>   -39.5179    -0.0000    32.0000 </r>
       <r>   -39.3109    -0.0000    32.0000 </r>
       <r>   -39.1038     0.0000    32.0000 </r>
       <r>   -38.8968     0.0000    32.0000 </r>
       <r>   -38.6898     0.0000    32.0000 </r>
       <r>   -38.4827     0.0000    32.0000 </r>
       <r>   -38.2757     0.0000    32.0000 </r>
       <r>   -38.0687     0.0000    32.0000 </r>
       <r>   -37.8616     0.0000    32.0000 </r>
       <r>   -37.6546     0.0000    32.0000 </r>
       <r>   -37.4476     0.0000    32.0000 </r>
       <r>   -37.2405     0.0000    32.0000 </r>
       <r>   -37.0335     0.0000    32.0000 </r>
       <r>   -36.8265     0.0000    32.0000 </r>
       <r>   -36.6195     0.0000    32.0000 </r>
       <r>   -36.4124     0.0000    32.0000 </r>
       <r>   -36.2054     0.0000    32.0000 </r>
       <r>   -35.9984     0.0000    32.0000 </r>
       <r>   -35.7913     0.0000    32.0000 </r>
       <r>   -35.5843     0.0000    32.0000 </r>
       <r>   -35.3773     0.0000    32.0000 </r>
       <r>   -35.1702     0.0000    32.0000 </r>
       <r>   -34.9632     0.0000    32.0000 </r>
       <r>   -34.7562     0.0000    32.0000 </r>
       <r>   -34.5491     0.0000    32.0000 </r>
       <r>   -34.3421     0.0000    32.0000 </r>
       <r>   -34.1351     0.0000    32.0000 </r>
       <r>   -33.9281     0.0000    32.0000 </r>
       <r>   -33.7210     0.0000    32.0000 </r>
       <r>   -33.5140     0.0000    32.0000 </r>
       <r>   -33.3070     0.0000    32.0000 </r>
       <r>   -33.0999     0.0000    32.0000 </r>
       <r>   -32.8929     0.0000    32.0000 </r>
       <r>   -32.6859     0.0000    32.0000 </r>
       <r>   -32.4788     0.0000    32.0000 </r>
       <r>   -32.2718     0.0000    32.0000 </r>
       <r>   -32.0648     0.0000    32.0000 </r>
       <r>   -31.8577     0.0000    32.0000 </r>
       <r>   -31.6507     0.0000    32.0000 </r>
       <r>   -31.4437     0.0000    32.0000 </r>
       <r>   -31.2367     0.0000    32.0000 </r>
       <r>   -31.0296     0.0000    32.0000 </r>
       <r>   -30.8226     0.0000    32.0000 </r>
       <r>   -30.6156     0.0000    32.0000 </r>
       <r>   -30.4085     0.0000    32.0000 </r>
       <r>   -30.2015     0.0000    32.0000 </r>
       <r>   -29.9945     0.0000    32.0000 </r>
       <r>   -29.7874     0.0000    32.0000 </r>
       <r>   -29.5804     0.0000    32.0000 </r>
       <r>   -29.3734     0.0000    32.0000 </r>
       <r>   -29.1663     0.0000    32.0000 </r>
       <r>   -28.9593     0.0000    32.0000 </r>
       <r>   -28.7523     0.0000    32.0000 </r>
       <r>   -28.5453     0.0000    32.0000 </r>
       <r>   -28.3382     0.0000    32.0000 </r>
       <r>   -28.1312     0.0000    32.0000 </r>
       <r>   -27.9242     0.0000    32.0000 </r>
       <r>   -27.7171     0.0000    32.0000 </r>
       <r>   -27.5101     0.0000    32.0000 </r>
       <r>   -27.3031     0.0000    32.0000 </r>
       <r>   -27.0960     0.0000    32.0000 </r>
       <r>   -26.8890     0.0000    32.0000 </r>
       <r>   -26.6820     0.0000    32.0000 </r>
       <r>   -26.4749     0.0000    32.0000 </r>
       <r>   -26.2679     0.0000    32.0000 </r>
       <r>   -26.0609     0.0000    32.0000 </r>
       <r>   -25.8539     0.0000    32.0000 </r>
       <r>   -25.6468     0.0000    32.0000 </r>
       <r>   -25.4398     0.0000    32.0000 </r>
       <r>   -25.2328     0.0000    32.0000 </r>
       <r>   -25.0257     0.0000    32.0000 </r>
       <r>   -24.8187     0.0000    32.0000 </r>
       <r>   -24.6117     0.0000    32.0000 </r>
       <r>   -24.4046    -0.0000    32.0000 </r>
       <r>   -24.1976    -0.0000    32.0000 </r>
       <r>   -23.9906    -0.0000    32.0000 </r>
       <r>   -23.7835    -0.0000    32.0000 </r>
       <r>   -23.5765    -0.0000    32.0000 </r>
       <r>   -23.3695    -0.0157    31.9967 </r>
       <r>   -23.1625    -1.1019    31.7686 </r>
       <r>   -22.9554    17.5728    35.4067 </r>
       <r>   -22.7484    41.6954    44.0390 </r>
       <r>   -22.5414   141.9649    73.4301 </r>
       <r>   -22.3343    96.0817    93.3219 </r>
       <r>   -22.1273    23.1591    98.1166 </r>
       <r>   -21.9203    -0.4769    98.0178 </r>
       <r>   -21.7132    -0.0861    98.0000 </r>
       <r>   -21.5062    -0.0001    98.0000 </r>
       <r>   -21.2992    -0.0000    98.0000 </r>
       <r>   -21.0921     0.0000    98.0000 </r>
       <r>   -20.8851     0.0000    98.0000 </r>
       <r>   -20.6781     0.0000    98.0000 </r>
       <r>   -20.4711     0.0000    98.0000 </r>
       <r>   -20.2640     0.0000    98.0000 </r>
       <r>   -20.0570    -0.0000    98.0000 </r>
       <r>   -19.8500    -0.0000    98.0000 </r>
       <r>   -19.6429    -0.0000    98.0000 </r>
       <r>   -19.4359    -0.0000    98.0000 </r>
       <r>   -19.2289    -0.0101    97.9979 </r>
       <r>   -19.0218    -0.7257    97.8477 </r>
       <r>   -18.8148     9.7265    99.8614 </r>
       <r>   -18.6078    58.3844   111.9487 </r>
       <r>   -18.4007    59.4820   124.2633 </r>
       <r>   -18.1937    18.5698   128.1079 </r>
       <r>   -17.9867    -0.4611   128.0124 </r>
       <r>   -17.7797    -0.0598   128.0000 </r>
       <r>   -17.5726    -0.0000   128.0000 </r>
       <r>   -17.3656    -0.0000   128.0000 </r>
       <r>   -17.1586     0.0000   128.0000 </r>
       <r>   -16.9515     0.0000   128.0000 </r>
       <r>   -16.7445     0.0000   128.0000 </r>
       <r>   -16.5375     0.0000   128.0000 </r>
       <r>   -16.3304     0.0000   128.0000 </r>
       <r>   -16.1234     0.0000   128.0000 </r>
       <r>   -15.9164     0.0000   128.0000 </r>
       <r>   -15.7093     0.0000   128.0000 </r>
       <r>   -15.5023     0.0000   128.0000 </r>
       <r>   -15.2953     0.0000   128.0000 </r>
       <r>   -15.0883     0.0000   128.0000 </r>
       <r>   -14.8812     0.0000   128.0000 </r>
       <r>   -14.6742     0.0000   128.0000 </r>
       <r>   -14.4672     0.0000   128.0000 </r>
       <r>   -14.2601     0.0000   128.0000 </r>
       <r>   -14.0531     0.0000   128.0000 </r>
       <r>   -13.8461     0.0000   128.0000 </r>
       <r>   -13.6390     0.0000   128.0000 </r>
       <r>   -13.4320     0.0000   128.0000 </r>
       <r>   -13.2250     0.0000   128.0000 </r>
       <r>   -13.0179     0.0000   128.0000 </r>
       <r>   -12.8109     0.0000   128.0000 </r>
       <r>   -12.6039     0.0000   128.0000 </r>
       <r>   -12.3969     0.0000   128.0000 </r>
       <r>   -12.1898     0.0000   128.0000 </r>
       <r>   -11.9828     0.0000   128.0000 </r>
       <r>   -11.7758     0.0000   128.0000 </r>
       <r>   -11.5687     0.0000   128.0000 </r>
       <r>   -11.3617     0.0000   128.0000 </r>
       <r>   -11.1547     0.0000   128.0000 </r>
       <r>   -10.9476     0.0000   128.0000 </r>
       <r>   -10.7406     0.0000   128.0000 </r>
       <r>   -10.5336     0.0000   128.0000 </r>
       <r>   -10.3265     0.0000   128.0000 </r>
       <r>   -10.1195     0.0000   128.0000 </r>
       <r>    -9.9125     0.0000   128.0000 </r>
       <r>    -9.7055     0.0000   128.0000 </r>
       <r>    -9.4984     0.0000   128.0000 </r>
       <r>    -9.2914     0.0000   128.0000 </r>
       <r>    -9.0844     0.0000   128.0000 </r>
       <r>    -8.8773     0.0000   128.0000 </r>
       <r>    -8.6703     0.0000   128.0000 </r>
       <r>    -8.4633     0.0000   128.0000 </r>
       <r>    -8.2562     0.0000   128.0000 </r>
       <r>    -8.0492     0.0000   128.0000 </r>
       <r>    -7.8422     0.0000   128.0000 </r>
       <r>    -7.6351     0.0000   128.0000 </r>
       <r>    -7.4281     0.0000   128.0000 </r>
       <r>    -7.2211     0.0000   128.0000 </r>
       <r>    -7.0141     0.0000   128.0000 </r>
       <r>    -6.8070     0.0000   128.0000 </r>
       <r>    -6.6000     0.0000   128.0000 </r>
       <r>    -6.3930     0.0000   128.0000 </r>
       <r>    -6.1859     0.0000   128.0000 </r>
       <r>    -5.9789     0.0000   128.0000 </r>
       <r>    -5.7719     0.0000   128.0000 </r>
       <r>    -5.5648     0.0000   128.0000 </r>
       <r>    -5.3578     0.0000   128.0000 </r>
       <r>    -5.1508     0.0000   128.0000 </r>
       <r>    -4.9437     0.0000   128.0000 </r>
       <r>    -4.7367     0.0000   128.0000 </r>
       <r>    -4.5297     0.0000   128.0000 </r>
       <r>    -4.3227     0.0000   128.0000 </r>
       <r>    -4.1156     0.0000   128.0000 </r>
       <r>    -3.9086     0.0000   128.0000 </r>
       <r>    -3.7016     0.0000   128.0000 </r>
       <r>    -3.4945     0.0000   128.0000 </r>
       <r>    -3.2875     0.0000   128.0000 </r>
       <r>    -3.0805     0.0000   128.0000 </r>
       <r>    -2.8734     0.0000   128.0000 </r>
       <r>    -2.6664     0.0000   128.0000 </r>
       <r>    -2.4594     0.0000   128.0000 </r>
       <r>    -2.2523     0.0000   128.0000 </r>
       <r>    -2.0453     0.0000   128.0000 </r>
       <r>    -1.8383     0.0000   128.0000 </r>
       <r>    -1.6313     0.0000   128.0000 </r>
       <r>    -1.4242     0.0000   128.0000 </r>
       <r>    -1.2172     0.0000   128.0000 </r>
       <r>    -1.0102     0.0000   128.0000 </r>
       <r>    -0.8031     0.0000   128.0000 </r>
       <r>    -0.5961    -0.0000   128.0000 </r>
       <r>    -0.3891    -0.0000   128.0000 </r>
       <r>    -0.1820    -0.0000   128.0000 </r>
       <r>     0.0250    -0.0000   128.0000 </r>
       <r>     0.2320    -0.0000   128.0000 </r>
       <r>     0.4391    -0.0009   127.9998 </r>
       <r>     0.6461    -0.0070   127.9984 </r>
       <r>     0.8531     0.2610   128.0524 </r>
       <r>     1.0601     1.0973   128.2796 </r>
       <r>     1.2672     1.5527   128.6010 </r>
       <r>     1.4742     1.7512   128.9636 </r>
       <r>     1.6812     3.2186   129.6299 </r>
       <r>     1.8883     4.0782   130.4742 </r>
       <r>     2.0953     2.1179   130.9127 </r>
       <r>     2.3023     4.2445   131.7915 </r>
       <r>     2.5094     4.2015   132.6613 </r>
       <r>     2.7164     2.6732   133.2147 </r>
       <r>     2.9234     7.2437   134.7144 </r>
       <r>     3.1305     7.9325   136.3567 </r>
       <r>     3.3375     8.1747   138.0491 </r>
       <r>     3.5445     8.9175   139.8953 </r>
       <r>     3.7515    12.3369   142.4494 </r>
       <r>     3.9586    16.3917   145.8430 </r>
       <r>     4.1656    24.9328   151.0048 </r>
       <r>     4.3726    23.5486   155.8801 </r>
       <r>     4.5797    26.5476   161.3763 </r>
       <r>     4.7867    31.8353   167.9672 </r>
       <r>     4.9937    38.3648   175.9099 </r>
       <r>     5.2008    37.1278   183.5965 </r>
       <r>     5.4078    39.4118   191.7559 </r>
       <r>     5.6148    33.4380   198.6786 </r>
       <r>     5.8219    32.6016   205.4281 </r>
       <r>     6.0289    15.1543   208.5655 </r>
       <r>     6.2359    30.1200   214.8013 </r>
       <r>     6.4429    67.1329   228.6999 </r>
       <r>     6.6500    62.0909   241.5546 </r>
       <r>     6.8570    49.8556   251.8763 </r>
       <r>     7.0640    52.1948   262.6822 </r>
       <r>     7.2711    56.1805   274.3133 </r>
       <r>     7.4781    58.4949   286.4235 </r>
       <r>     7.6851    49.5374   296.6793 </r>
       <r>     7.8922    46.6325   306.3337 </r>
       <r>     8.0992    49.3390   316.5484 </r>
       <r>     8.3062    37.3351   324.2779 </r>
       <r>     8.5133    26.6731   329.8000 </r>
       <r>     8.7203    18.7060   333.6728 </r>
       <r>     8.9273    19.5612   337.7226 </r>
       <r>     9.1343    10.8525   339.9694 </r>
       <r>     9.3414    15.3001   343.1370 </r>
       <r>     9.5484    22.5680   347.8092 </r>
       <r>     9.7554    16.3319   351.1904 </r>
       <r>     9.9625     4.1605   352.0518 </r>
       <r>    10.1695    -0.2442   352.0012 </r>
       <r>    10.3765    -0.0059   352.0000 </r>
       <r>    10.5836    -0.0000   352.0000 </r>
       <r>    10.7906    -0.0000   352.0000 </r>
       <r>    10.9976     0.0000   352.0000 </r>
       <r>    11.2047     0.0000   352.0000 </r>
       <r>    11.4117     0.0000   352.0000 </r>
       <r>    11.6187     0.0000   352.0000 </r>
       <r>    11.8258     0.0000   352.0000 </r>
       <r>    12.0328     0.0000   352.0000 </r>
       <r>    12.2398     0.0000   352.0000 </r>
       <r>    12.4468     0.0000   352.0000 </r>
       <r>    12.6539     0.0000   352.0000 </r>
      </set>
     </set>
    </array>
   </total>
  </dos>
 </calculation>
 <structure name="finalpos" >
  <crystal>
   <varray name="basis" >
    <v>       6.80357162       0.00597167      -0.00447035 </v>
    <v>       0.00908206      10.18899111      -0.00584883 </v>
    <v>      -0.00657367      -0.00568499      10.18841565 </v>
   </varray>
   <i name="volume">    706.27549170 </i>
   <varray name="rec_basis" >
    <v>       0.14698180      -0.00013096       0.00009476 </v>
    <v>      -0.00008611       0.09814525       0.00005471 </v>
    <v>       0.00006444       0.00005628       0.09815076 </v>
   </varray>
  </crystal>
  <varray name="positions" >
   <v>       0.75467398       0.83669790       0.50381069 </v>
   <v>       0.23619522       0.49078274       0.17756983 </v>
   <v>       0.24609426       0.50796443       0.49796031 </v>
   <v>       0.24506795       0.52667178       0.82624663 </v>
   <v>       0.00795709       0.67045906       0.00100939 </v>
   <v>       0.22797336       0.83735343       0.17551902 </v>
   <v>       0.75452357       0.50123907       0.49265092 </v>
   <v>       0.77297368       0.83303115       0.17267312 </v>
   <v>       0.99604690       0.98691787       0.01077622 </v>
   <v>       0.75215521       0.16907980       0.17849598 </v>
   <v>       0.24351286       0.83071837       0.82496441 </v>
   <v>       0.50297669       0.99180589       0.32637796 </v>
   <v>       0.99468024      -0.00200474       0.33035492 </v>
   <v>       0.25375656       0.16101421       0.49234341 </v>
   <v>       0.00493994       0.00184942       0.65736490 </v>
   <v>      -0.00034342       0.66770988       0.33447754 </v>
   <v>      -0.00101110       0.66225075       0.66449510 </v>
   <v>       0.49423764       0.99346440       0.65526026 </v>
   <v>       0.50060245       0.66310523       0.66136322 </v>
   <v>       0.00726231       0.33380537       0.34855553 </v>
   <v>       0.49316606       0.33998076       0.34054113 </v>
   <v>       0.75700812       0.52262731       0.82723121 </v>
   <v>       0.24572570       0.14348030       0.83147991 </v>
   <v>       0.99961936       0.34165764       0.98467290 </v>
   <v>       0.50347880       0.99274727       0.01555566 </v>
   <v>       0.49870073       0.34236828       0.67250478 </v>
   <v>       0.49579881       0.66569674       0.00654458 </v>
   <v>       0.74282569       0.16218952       0.49139737 </v>
   <v>       0.75450563       0.83398808       0.82328957 </v>
   <v>       0.50008536       0.34194669       0.99477851 </v>
   <v>       0.24426198       0.17250582       0.17505760 </v>
   <v>       0.00358499       0.33860188       0.66433547 </v>
   <v>       0.24332000       0.83277098       0.50173641 </v>
   <v>       0.75334354       0.14674727       0.82878836 </v>
   <v>       0.50125143       0.66832784       0.33026086 </v>
   <v>       0.76904640       0.49045061       0.17955428 </v>
  </varray>
 </structure>
</modeling>
