       N       E                     dE             d eps       ncg     rms          rms(c)
DAV:   1     0.194861741624E+04    0.19486E+04   -0.11258E+05  5472   0.106E+03
DAV:   2    -0.463267958718E+02   -0.19949E+04   -0.19162E+04  5392   0.379E+02
DAV:   3    -0.327063002295E+03   -0.28074E+03   -0.26630E+03  8640   0.109E+02
DAV:   4    -0.363503252020E+03   -0.36440E+02   -0.34794E+02  8584   0.333E+01
DAV:   5    -0.367151736256E+03   -0.36485E+01   -0.35590E+01  7800   0.102E+01    0.648E+01
RMM:   6    -0.357884866352E+03    0.92669E+01   -0.30411E+01  7441   0.103E+01    0.307E+01
RMM:   7    -0.361463135320E+03   -0.35783E+01   -0.33924E+01  7588   0.755E+00    0.150E+01
RMM:   8    -0.353100955848E+03    0.83622E+01   -0.91698E+00  7467   0.451E+00    0.460E+00
RMM:   9    -0.352631089861E+03    0.46987E+00   -0.32196E+00  7627   0.212E+00    0.290E+00
RMM:  10    -0.352644615083E+03   -0.13525E-01   -0.78881E-01  7686   0.118E+00    0.191E+00
RMM:  11    -0.352608211593E+03    0.36403E-01   -0.20660E-01  7496   0.654E-01    0.957E-01
RMM:  12    -0.352603175374E+03    0.50362E-02   -0.96054E-02  7696   0.465E-01    0.435E-01
RMM:  13    -0.352601558052E+03    0.16173E-02   -0.30342E-02  7643   0.233E-01    0.249E-01
RMM:  14    -0.352602084973E+03   -0.52692E-03   -0.13966E-02  7773   0.116E-01    0.156E-01
RMM:  15    -0.352602541738E+03   -0.45676E-03   -0.69046E-03  7733   0.744E-02    0.904E-02
RMM:  16    -0.352602720988E+03   -0.17925E-03   -0.29480E-03  7312   0.480E-02    0.478E-02
RMM:  17    -0.352602761920E+03   -0.40932E-04   -0.13420E-03  6183   0.326E-02    0.178E-02
RMM:  18    -0.352602823098E+03   -0.61178E-04   -0.74264E-04  5886   0.234E-02    0.959E-03
RMM:  19    -0.352602848339E+03   -0.25241E-04   -0.30966E-04  5350   0.162E-02    0.650E-03
RMM:  20    -0.352602858273E+03   -0.99339E-05   -0.13838E-04  4616   0.127E-02    0.344E-03
RMM:  21    -0.352602863741E+03   -0.54686E-05   -0.81066E-05  4332   0.109E-02
   1 F= -.35260286E+03 E0= -.35260925E+03  d E =-.352603E+03
       N       E                     dE             d eps       ncg     rms          rms(c)
DAV:   1    -0.352679496359E+03   -0.76638E-01   -0.24278E+00  6064   0.487E+00    0.190E+00
RMM:   2    -0.352655114600E+03    0.24382E-01   -0.22395E-01  7190   0.120E+00    0.587E-01
RMM:   3    -0.352649399857E+03    0.57147E-02   -0.55769E-02  7713   0.423E-01    0.458E-01
RMM:   4    -0.352642865507E+03    0.65343E-02   -0.13515E-02  7767   0.224E-01    0.248E-01
RMM:   5    -0.352642374501E+03    0.49101E-03   -0.44417E-03  7698   0.123E-01    0.194E-01
RMM:   6    -0.352642410826E+03   -0.36325E-04   -0.16528E-03  7855   0.664E-02    0.117E-01
RMM:   7    -0.352642446656E+03   -0.35830E-04   -0.79154E-04  7143   0.470E-02    0.556E-02
RMM:   8    -0.352642472119E+03   -0.25464E-04   -0.37418E-04  6497   0.289E-02    0.397E-02
RMM:   9    -0.352642489787E+03   -0.17667E-04   -0.16698E-04  5521   0.227E-02    0.302E-02
RMM:  10    -0.352642497391E+03   -0.76041E-05   -0.77703E-05  4980   0.158E-02
   2 F= -.35264250E+03 E0= -.35264903E+03  d E =-.396336E-01
       N       E                     dE             d eps       ncg     rms          rms(c)
DAV:   1    -0.353011856238E+03   -0.36937E+00   -0.21780E+01  5556   0.146E+01    0.557E+00
RMM:   2    -0.352795921010E+03    0.21594E+00   -0.19959E+00  7238   0.357E+00    0.177E+00
RMM:   3    -0.352738805119E+03    0.57116E-01   -0.49077E-01  7743   0.124E+00    0.136E+00
RMM:   4    -0.352681573453E+03    0.57232E-01   -0.12094E-01  7764   0.667E-01    0.731E-01
RMM:   5    -0.352676901642E+03    0.46718E-02   -0.39248E-02  7688   0.379E-01    0.566E-01
RMM:   6    -0.352677631047E+03   -0.72941E-03   -0.15256E-02  7926   0.197E-01    0.344E-01
RMM:   7    -0.352678215869E+03   -0.58482E-03   -0.69015E-03  8575   0.144E-01    0.163E-01
RMM:   8    -0.352678613235E+03   -0.39737E-03   -0.36132E-03  8717   0.790E-02    0.123E-01
RMM:   9    -0.352678823081E+03   -0.20985E-03   -0.11489E-03  7787   0.572E-02    0.930E-02
RMM:  10    -0.352679013981E+03   -0.19090E-03   -0.67164E-04  7276   0.375E-02    0.443E-02
RMM:  11    -0.352679038144E+03   -0.24163E-04   -0.34501E-04  6315   0.284E-02    0.140E-02
RMM:  12    -0.352679043753E+03   -0.56092E-05   -0.18045E-04  6125   0.209E-02    0.106E-02
RMM:  13    -0.352679044738E+03   -0.98536E-06   -0.49241E-05  4838   0.139E-02
   3 F= -.35267904E+03 E0= -.35268573E+03  d E =-.761810E-01
       N       E                     dE             d eps       ncg     rms          rms(c)
DAV:   1    -0.352702122947E+03   -0.23079E-01   -0.15474E+00  5288   0.320E+00    0.454E-01
RMM:   2    -0.352705021320E+03   -0.28984E-02   -0.52025E-02  7389   0.594E-01    0.240E-01
RMM:   3    -0.352703628434E+03    0.13929E-02   -0.77358E-03  7625   0.157E-01    0.162E-01
RMM:   4    -0.352703346549E+03    0.28189E-03   -0.20326E-03  7695   0.642E-02    0.101E-01
RMM:   5    -0.352703308930E+03    0.37619E-04   -0.82998E-04  7679   0.457E-02    0.550E-02
RMM:   6    -0.352703318750E+03   -0.98206E-05   -0.34477E-04  7043   0.270E-02    0.333E-02
RMM:   7    -0.352703322395E+03   -0.36447E-05   -0.11972E-04  5285   0.166E-02    0.216E-02
RMM:   8    -0.352703331544E+03   -0.91488E-05   -0.64540E-05  4620   0.132E-02
   4 F= -.35270333E+03 E0= -.35271003E+03  d E =-.242868E-01
       N       E                     dE             d eps       ncg     rms          rms(c)
DAV:   1    -0.352739798879E+03   -0.36476E-01   -0.13924E+01  5040   0.959E+00    0.137E+00
RMM:   2    -0.352767421206E+03   -0.27622E-01   -0.47363E-01  7377   0.181E+00    0.719E-01
RMM:   3    -0.352753191848E+03    0.14229E-01   -0.66885E-02  7546   0.467E-01    0.471E-01
RMM:   4    -0.352750937559E+03    0.22543E-02   -0.18370E-02  7707   0.192E-01    0.291E-01
RMM:   5    -0.352750573552E+03    0.36401E-03   -0.71843E-03  7774   0.133E-01    0.162E-01
RMM:   6    -0.352750672078E+03   -0.98526E-04   -0.30104E-03  7954   0.789E-02    0.995E-02
RMM:   7    -0.352750695249E+03   -0.23171E-04   -0.12012E-03  7533   0.447E-02    0.660E-02
RMM:   8    -0.352750744101E+03   -0.48852E-04   -0.47110E-04  6452   0.295E-02    0.347E-02
RMM:   9    -0.352750772389E+03   -0.28287E-04   -0.23366E-04  6094   0.230E-02    0.168E-02
RMM:  10    -0.352750784500E+03   -0.12112E-04   -0.99812E-05  5487   0.158E-02    0.109E-02
RMM:  11    -0.352750788942E+03   -0.44422E-05   -0.38803E-05  4398   0.122E-02
   5 F= -.35275079E+03 E0= -.35275749E+03  d E =-.717442E-01
       N       E                     dE             d eps       ncg     rms          rms(c)
DAV:   1    -0.352677669184E+03    0.73115E-01   -0.55681E+01  5152   0.192E+01    0.283E+00
RMM:   2    -0.352798300568E+03   -0.12063E+00   -0.19705E+00  7357   0.368E+00    0.147E+00
RMM:   3    -0.352734434208E+03    0.63866E-01   -0.26940E-01  7619   0.943E-01    0.931E-01
RMM:   4    -0.352726338348E+03    0.80959E-02   -0.77563E-02  7804   0.395E-01    0.581E-01
RMM:   5    -0.352725047841E+03    0.12905E-02   -0.29009E-02  7860   0.264E-01    0.332E-01
RMM:   6    -0.352725483478E+03   -0.43564E-03   -0.12234E-02  8043   0.156E-01    0.198E-01
RMM:   7    -0.352725533380E+03   -0.49902E-04   -0.49567E-03  8753   0.922E-02    0.130E-01
RMM:   8    -0.352725726216E+03   -0.19284E-03   -0.21091E-03  8308   0.574E-02    0.707E-02
RMM:   9    -0.352725808160E+03   -0.81944E-04   -0.86901E-04  7290   0.402E-02    0.348E-02
RMM:  10    -0.352725852825E+03   -0.44665E-04   -0.39600E-04  6454   0.247E-02    0.209E-02
RMM:  11    -0.352725865457E+03   -0.12632E-04   -0.14772E-04  5745   0.184E-02    0.109E-02
RMM:  12    -0.352725872421E+03   -0.69642E-05   -0.64598E-05  5095   0.135E-02
   6 F= -.35272587E+03 E0= -.35273252E+03  d E =-.468277E-01
       N       E                     dE             d eps       ncg     rms          rms(c)
DAV:   1    -0.352735025200E+03   -0.91597E-02   -0.24470E+01  5040   0.127E+01    0.180E+00
RMM:   2    -0.352783497881E+03   -0.48473E-01   -0.82665E-01  7363   0.239E+00    0.965E-01
RMM:   3    -0.352766579468E+03    0.16918E-01   -0.12929E-01  7669   0.639E-01    0.674E-01
RMM:   4    -0.352761527656E+03    0.50518E-02   -0.29439E-02  7688   0.251E-01    0.431E-01
RMM:   5    -0.352760858411E+03    0.66924E-03   -0.13108E-02  7663   0.186E-01    0.223E-01
RMM:   6    -0.352760673639E+03    0.18477E-03   -0.52732E-03  7864   0.110E-01    0.129E-01
RMM:   7    -0.352760688078E+03   -0.14438E-04   -0.21451E-03  8170   0.565E-02    0.878E-02
RMM:   8    -0.352760706549E+03   -0.18471E-04   -0.78821E-04  6817   0.348E-02    0.488E-02
RMM:   9    -0.352760722021E+03   -0.15472E-04   -0.36822E-04  6403   0.269E-02    0.244E-02
RMM:  10    -0.352760726698E+03   -0.46770E-05   -0.15620E-04  5679   0.186E-02    0.138E-02
RMM:  11    -0.352760729196E+03   -0.24976E-05   -0.77381E-05  4897   0.148E-02
   7 F= -.35276073E+03 E0= -.35276742E+03  d E =-.816845E-01
       N       E                     dE             d eps       ncg     rms          rms(c)
DAV:   1    -0.352807234445E+03   -0.46508E-01   -0.15542E+00  5728   0.414E+00    0.170E+00
RMM:   2    -0.352783530253E+03    0.23704E-01   -0.16163E-01  7169   0.104E+00    0.496E-01
RMM:   3    -0.352779374394E+03    0.41559E-02   -0.37300E-02  7714   0.363E-01    0.354E-01
RMM:   4    -0.352775812151E+03    0.35622E-02   -0.94696E-03  7761   0.197E-01    0.222E-01
RMM:   5    -0.352775559000E+03    0.25315E-03   -0.32318E-03  7739   0.969E-02    0.174E-01
RMM:   6    -0.352775669950E+03   -0.11095E-03   -0.10910E-03  7971   0.594E-02    0.980E-02
RMM:   7    -0.352775780656E+03   -0.11071E-03   -0.70928E-04  7091   0.397E-02    0.424E-02
RMM:   8    -0.352775831668E+03   -0.51011E-04   -0.22530E-04  5561   0.267E-02    0.324E-02
RMM:   9    -0.352775863795E+03   -0.32128E-04   -0.11251E-04  5466   0.191E-02    0.264E-02
RMM:  10    -0.352775895494E+03   -0.31699E-04   -0.58266E-05  4640   0.150E-02    0.128E-02
RMM:  11    -0.352775912303E+03   -0.16809E-04   -0.35708E-05  4279   0.135E-02    0.481E-03
RMM:  12    -0.352775915594E+03   -0.32911E-05   -0.18735E-05  3741   0.121E-02
   8 F= -.35277592E+03 E0= -.35278269E+03  d E =-.151864E-01
       N       E                     dE             d eps       ncg     rms          rms(c)
DAV:   1    -0.352817242885E+03   -0.41331E-01   -0.17977E+00  5704   0.446E+00    0.183E+00
RMM:   2    -0.352789886631E+03    0.27356E-01   -0.18589E-01  7120   0.112E+00    0.530E-01
RMM:   3    -0.352785124534E+03    0.47621E-02   -0.42603E-02  7696   0.390E-01    0.377E-01
RMM:   4    -0.352781019792E+03    0.41047E-02   -0.10728E-02  7767   0.211E-01    0.236E-01
RMM:   5    -0.352780749831E+03    0.26996E-03   -0.36473E-03  7735   0.103E-01    0.186E-01
RMM:   6    -0.352780890415E+03   -0.14058E-03   -0.12115E-03  8067   0.636E-02    0.106E-01
RMM:   7    -0.352781030251E+03   -0.13984E-03   -0.84080E-04  7331   0.424E-02    0.468E-02
RMM:   8    -0.352781090761E+03   -0.60510E-04   -0.26266E-04  5701   0.284E-02    0.355E-02
RMM:   9    -0.352781128505E+03   -0.37744E-04   -0.13080E-04  5579   0.201E-02    0.291E-02
RMM:  10    -0.352781165954E+03   -0.37449E-04   -0.72171E-05  4855   0.160E-02    0.141E-02
RMM:  11    -0.352781184493E+03   -0.18539E-04   -0.42294E-05  4496   0.140E-02    0.518E-03
RMM:  12    -0.352781187963E+03   -0.34698E-05   -0.20491E-05  3861   0.124E-02
   9 F= -.35278119E+03 E0= -.35278804E+03  d E =-.204588E-01
       N       E                     dE             d eps       ncg     rms          rms(c)
DAV:   1    -0.352787422939E+03   -0.62384E-02   -0.88748E-01  5104   0.273E+00    0.315E-01
RMM:   2    -0.352789201533E+03   -0.17786E-02   -0.30430E-02  7486   0.485E-01    0.147E-01
RMM:   3    -0.352788990938E+03    0.21060E-03   -0.35798E-03  7565   0.123E-01    0.106E-01
RMM:   4    -0.352788843700E+03    0.14724E-03   -0.94182E-04  7986   0.493E-02    0.644E-02
RMM:   5    -0.352788820337E+03    0.23363E-04   -0.38787E-04  7623   0.334E-02    0.353E-02
RMM:   6    -0.352788813240E+03    0.70973E-05   -0.13921E-04  5938   0.189E-02    0.212E-02
RMM:   7    -0.352788811351E+03    0.18894E-05   -0.48472E-05  4342   0.139E-02
  10 F= -.35278881E+03 E0= -.35279570E+03  d E =-.762339E-02
       N       E                     dE             d eps       ncg     rms          rms(c)
DAV:   1    -0.352787109994E+03    0.17032E-02   -0.79832E+00  5040   0.818E+00    0.934E-01
RMM:   2    -0.352803405473E+03   -0.16295E-01   -0.27415E-01  7489   0.145E+00    0.440E-01
RMM:   3    -0.352801474388E+03    0.19311E-02   -0.32054E-02  7646   0.367E-01    0.316E-01
RMM:   4    -0.352800204714E+03    0.12697E-02   -0.83489E-03  7994   0.148E-01    0.192E-01
RMM:   5    -0.352800029645E+03    0.17507E-03   -0.34558E-03  7789   0.100E-01    0.105E-01
RMM:   6    -0.352800010721E+03    0.18924E-04   -0.13384E-03  8587   0.558E-02    0.631E-02
RMM:   7    -0.352800027739E+03   -0.17018E-04   -0.50528E-04  7296   0.321E-02    0.376E-02
RMM:   8    -0.352800040234E+03   -0.12495E-04   -0.26883E-04  6545   0.232E-02    0.219E-02
RMM:   9    -0.352800043435E+03   -0.32007E-05   -0.11455E-04  5789   0.181E-02    0.134E-02
RMM:  10    -0.352800042723E+03    0.71175E-06   -0.41617E-05  4700   0.137E-02
  11 F= -.35280004E+03 E0= -.35280704E+03  d E =-.188548E-01
       N       E                     dE             d eps       ncg     rms          rms(c)
DAV:   1    -0.352799963781E+03    0.79653E-04   -0.16765E-01  5232   0.119E+00    0.136E-01
RMM:   2    -0.352800314126E+03   -0.35034E-03   -0.58025E-03  7486   0.211E-01    0.624E-02
RMM:   3    -0.352800278464E+03    0.35662E-04   -0.71667E-04  7394   0.542E-02    0.441E-02
RMM:   4    -0.352800255327E+03    0.23138E-04   -0.20950E-04  6747   0.224E-02    0.258E-02
RMM:   5    -0.352800251357E+03    0.39701E-05   -0.75018E-05  4691   0.140E-02
  12 F= -.35280025E+03 E0= -.35280726E+03  d E =-.190634E-01
       N       E                     dE             d eps       ncg     rms          rms(c)
DAV:   1    -0.352804414409E+03   -0.41591E-02   -0.98862E-01  5320   0.279E+00    0.180E-01
RMM:   2    -0.352806583825E+03   -0.21694E-02   -0.26114E-02  6966   0.447E-01    0.104E-01
RMM:   3    -0.352806353270E+03    0.23055E-03   -0.31084E-03  7503   0.127E-01    0.790E-02
RMM:   4    -0.352806338605E+03    0.14665E-04   -0.73764E-04  8564   0.357E-02    0.556E-02
RMM:   5    -0.352806334463E+03    0.41415E-05   -0.26027E-04  7259   0.260E-02    0.309E-02
RMM:   6    -0.352806333175E+03    0.12884E-05   -0.10750E-04  6295   0.180E-02    0.120E-02
RMM:   7    -0.352806334215E+03   -0.10407E-05   -0.28272E-05  3584   0.117E-02
  13 F= -.35280633E+03 E0= -.35281344E+03  d E =-.608286E-02
       N       E                     dE             d eps       ncg     rms          rms(c)
DAV:   1    -0.352803283944E+03    0.30492E-02   -0.89003E+00  5056   0.838E+00    0.533E-01
RMM:   2    -0.352823072809E+03   -0.19789E-01   -0.23740E-01  6893   0.135E+00    0.305E-01
RMM:   3    -0.352820867208E+03    0.22056E-02   -0.27653E-02  7533   0.383E-01    0.231E-01
RMM:   4    -0.352820761312E+03    0.10590E-03   -0.65429E-03  8836   0.108E-01    0.163E-01
RMM:   5    -0.352820726105E+03    0.35208E-04   -0.22421E-03  8401   0.758E-02    0.928E-02
RMM:   6    -0.352820717724E+03    0.83809E-05   -0.96750E-04  8509   0.520E-02    0.360E-02
RMM:   7    -0.352820734247E+03   -0.16524E-04   -0.37437E-04  7022   0.257E-02    0.241E-02
RMM:   8    -0.352820749663E+03   -0.15416E-04   -0.16829E-04  5803   0.192E-02    0.139E-02
RMM:   9    -0.352820757201E+03   -0.75377E-05   -0.75381E-05  4625   0.141E-02
  14 F= -.35282076E+03 E0= -.35282817E+03  d E =-.205058E-01
       N       E                     dE             d eps       ncg     rms          rms(c)
DAV:   1    -0.352759550625E+03    0.61199E-01   -0.35590E+01  5040   0.168E+01    0.107E+00
RMM:   2    -0.352840394155E+03   -0.80844E-01   -0.97218E-01  6955   0.272E+00    0.608E-01
RMM:   3    -0.352831595142E+03    0.87990E-02   -0.11205E-01  7561   0.777E-01    0.450E-01
RMM:   4    -0.352831262349E+03    0.33279E-03   -0.26681E-02  8811   0.229E-01    0.314E-01
RMM:   5    -0.352831120095E+03    0.14225E-03   -0.91694E-03  8715   0.152E-01    0.181E-01
RMM:   6    -0.352831116736E+03    0.33597E-05   -0.37189E-03  8680   0.102E-01    0.728E-02
RMM:   7    -0.352831193347E+03   -0.76611E-04   -0.16557E-03  8972   0.531E-02    0.478E-02
RMM:   8    -0.352831243455E+03   -0.50108E-04   -0.60744E-04  7831   0.324E-02    0.275E-02
RMM:   9    -0.352831268599E+03   -0.25144E-04   -0.29302E-04  7383   0.246E-02    0.133E-02
RMM:  10    -0.352831280457E+03   -0.11858E-04   -0.12365E-04  5912   0.166E-02    0.749E-03
RMM:  11    -0.352831284993E+03   -0.45354E-05   -0.51548E-05  4625   0.130E-02
  15 F= -.35283128E+03 E0= -.35283934E+03  d E =-.310336E-01
       N       E                     dE             d eps       ncg     rms          rms(c)
DAV:   1    -0.352853906581E+03   -0.22626E-01   -0.29236E+00  5576   0.519E+00    0.144E+00
RMM:   2    -0.352842219266E+03    0.11687E-01   -0.17338E-01  7264   0.107E+00    0.477E-01
RMM:   3    -0.352838759048E+03    0.34602E-02   -0.33794E-02  7715   0.354E-01    0.337E-01
RMM:   4    -0.352835505485E+03    0.32536E-02   -0.96885E-03  7768   0.180E-01    0.191E-01
RMM:   5    -0.352835241475E+03    0.26401E-03   -0.31017E-03  7694   0.102E-01    0.146E-01
RMM:   6    -0.352835273607E+03   -0.32132E-04   -0.12103E-03  8144   0.551E-02    0.846E-02
RMM:   7    -0.352835288824E+03   -0.15217E-04   -0.53738E-04  6764   0.394E-02    0.382E-02
RMM:   8    -0.352835306720E+03   -0.17896E-04   -0.26784E-04  5992   0.259E-02    0.302E-02
RMM:   9    -0.352835314480E+03   -0.77599E-05   -0.10313E-04  5324   0.188E-02    0.230E-02
RMM:  10    -0.352835316828E+03   -0.23484E-05   -0.59612E-05  4966   0.144E-02
  16 F= -.35283532E+03 E0= -.35284344E+03  d E =-.403184E-02
       N       E                     dE             d eps       ncg     rms          rms(c)
DAV:   1    -0.352835330416E+03   -0.15936E-04   -0.25927E-03  5904   0.155E-01    0.415E-02
RMM:   2    -0.352835324812E+03    0.56041E-05   -0.15001E-04  7000   0.324E-02    0.124E-02
RMM:   3    -0.352835321322E+03    0.34901E-05   -0.25348E-05  3583   0.115E-02
  17 F= -.35283532E+03 E0= -.35284345E+03  d E =-.403633E-02
       N       E                     dE             d eps       ncg     rms          rms(c)
DAV:   1    -0.352837729011E+03   -0.24042E-02   -0.48770E-01  5136   0.197E+00    0.236E-01
RMM:   2    -0.352838331453E+03   -0.60244E-03   -0.14886E-02  7489   0.345E-01    0.112E-01
RMM:   3    -0.352838201248E+03    0.13020E-03   -0.20188E-03  7490   0.892E-02    0.702E-02
RMM:   4    -0.352838149790E+03    0.51458E-04   -0.57441E-04  7958   0.376E-02    0.448E-02
RMM:   5    -0.352838143855E+03    0.59352E-05   -0.23423E-04  6832   0.234E-02    0.282E-02
RMM:   6    -0.352838141097E+03    0.27578E-05   -0.84136E-05  4812   0.146E-02
  18 F= -.35283814E+03 E0= -.35284626E+03  d E =-.281978E-02
       N       E                     dE             d eps       ncg     rms          rms(c)
DAV:   1    -0.352838113996E+03    0.29859E-04   -0.43862E+00  5040   0.590E+00    0.707E-01
RMM:   2    -0.352843355157E+03   -0.52412E-02   -0.13342E-01  7492   0.103E+00    0.330E-01
RMM:   3    -0.352842123713E+03    0.12314E-02   -0.17672E-02  7487   0.267E-01    0.206E-01
RMM:   4    -0.352841694213E+03    0.42950E-03   -0.51243E-03  8125   0.112E-01    0.132E-01
RMM:   5    -0.352841660519E+03    0.33694E-04   -0.21559E-03  8589   0.708E-02    0.852E-02
RMM:   6    -0.352841642401E+03    0.18118E-04   -0.83361E-04  8454   0.431E-02    0.513E-02
RMM:   7    -0.352841674149E+03   -0.31747E-04   -0.32720E-04  7024   0.275E-02    0.269E-02
RMM:   8    -0.352841694524E+03   -0.20375E-04   -0.17999E-04  6338   0.204E-02    0.146E-02
RMM:   9    -0.352841703953E+03   -0.94292E-05   -0.71652E-05  5261   0.153E-02
  19 F= -.35284170E+03 E0= -.35284980E+03  d E =-.638263E-02
       N       E                     dE             d eps       ncg     rms          rms(c)
DAV:   1    -0.352844029733E+03   -0.23352E-02   -0.83752E-01  5296   0.269E+00    0.493E-01
RMM:   2    -0.352844236079E+03   -0.20635E-03   -0.35451E-02  7245   0.505E-01    0.182E-01
RMM:   3    -0.352843725295E+03    0.51078E-03   -0.47538E-03  7507   0.147E-01    0.120E-01
RMM:   4    -0.352843431689E+03    0.29361E-03   -0.14065E-03  7759   0.638E-02    0.728E-02
RMM:   5    -0.352843391352E+03    0.40336E-04   -0.48105E-04  7721   0.405E-02    0.530E-02
RMM:   6    -0.352843379678E+03    0.11674E-04   -0.20141E-04  6805   0.222E-02    0.317E-02
RMM:   7    -0.352843371259E+03    0.84185E-05   -0.66583E-05  4937   0.165E-02
  20 F= -.35284337E+03 E0= -.35285146E+03  d E =-.166731E-02
       N       E                     dE             d eps       ncg     rms          rms(c)
DAV:   1    -0.352844129767E+03   -0.75009E-03   -0.65715E-01  5304   0.238E+00    0.431E-01
RMM:   2    -0.352844303292E+03   -0.17352E-03   -0.27452E-02  7224   0.445E-01    0.156E-01
RMM:   3    -0.352843913716E+03    0.38958E-03   -0.36359E-03  7491   0.129E-01    0.103E-01
RMM:   4    -0.352843694120E+03    0.21960E-03   -0.10854E-03  7781   0.555E-02    0.631E-02
RMM:   5    -0.352843671000E+03    0.23120E-04   -0.38555E-04  7723   0.344E-02    0.466E-02
RMM:   6    -0.352843665541E+03    0.54595E-05   -0.15692E-04  6496   0.195E-02    0.293E-02
RMM:   7    -0.352843660069E+03    0.54721E-05   -0.59115E-05  4701   0.154E-02
  21 F= -.35284366E+03 E0= -.35285174E+03  d E =-.195612E-02
       N       E                     dE             d eps       ncg     rms          rms(c)
DAV:   1    -0.352844440265E+03   -0.77472E-03   -0.32105E-01  5360   0.164E+00    0.221E-01
RMM:   2    -0.352844904083E+03   -0.46382E-03   -0.11457E-02  7427   0.295E-01    0.950E-02
RMM:   3    -0.352844792310E+03    0.11177E-03   -0.14768E-03  7621   0.809E-02    0.673E-02
RMM:   4    -0.352844721766E+03    0.70544E-04   -0.40557E-04  7814   0.335E-02    0.417E-02
RMM:   5    -0.352844718466E+03    0.32998E-05   -0.15381E-04  6884   0.229E-02    0.262E-02
RMM:   6    -0.352844720049E+03   -0.15835E-05   -0.56043E-05  4501   0.123E-02
  22 F= -.35284472E+03 E0= -.35285281E+03  d E =-.105998E-02
       N       E                     dE             d eps       ncg     rms          rms(c)
DAV:   1    -0.352843374014E+03    0.13445E-02   -0.28864E+00  5264   0.493E+00    0.649E-01
RMM:   2    -0.352847430091E+03   -0.40561E-02   -0.10136E-01  7365   0.877E-01    0.267E-01
RMM:   3    -0.352846373706E+03    0.10564E-02   -0.12092E-02  7621   0.236E-01    0.188E-01
RMM:   4    -0.352845821513E+03    0.55219E-03   -0.32887E-03  7928   0.961E-02    0.119E-01
RMM:   5    -0.352845810733E+03    0.10779E-04   -0.12914E-03  8080   0.638E-02    0.780E-02
RMM:   6    -0.352845825840E+03   -0.15106E-04   -0.52527E-04  8055   0.362E-02    0.487E-02
RMM:   7    -0.352845851085E+03   -0.25245E-04   -0.19414E-04  6283   0.231E-02    0.266E-02
RMM:   8    -0.352845867061E+03   -0.15976E-04   -0.99398E-05  5332   0.173E-02    0.159E-02
RMM:   9    -0.352845878149E+03   -0.11088E-04   -0.46961E-05  4637   0.132E-02    0.936E-03
RMM:  10    -0.352845884552E+03   -0.64037E-05   -0.19409E-05  3666   0.113E-02
  23 F= -.35284588E+03 E0= -.35285400E+03  d E =-.222448E-02
       N       E                     dE             d eps       ncg     rms          rms(c)
DAV:   1    -0.352845877637E+03    0.51162E-06   -0.65943E-02  5424   0.745E-01    0.990E-02
RMM:   2    -0.352845977003E+03   -0.99366E-04   -0.23424E-03  7242   0.134E-01    0.410E-02
RMM:   3    -0.352845946089E+03    0.30914E-04   -0.26403E-04  7369   0.374E-02    0.307E-02
RMM:   4    -0.352845928942E+03    0.17147E-04   -0.63926E-05  5472   0.147E-02    0.197E-02
RMM:   5    -0.352845924146E+03    0.47966E-05   -0.17789E-05  2884   0.109E-02
  24 F= -.35284592E+03 E0= -.35285403E+03  d E =-.226408E-02
       N       E                     dE             d eps       ncg     rms          rms(c)
DAV:   1    -0.352846304486E+03   -0.37554E-03   -0.57643E-02  5152   0.690E-01    0.591E-02
RMM:   2    -0.352846395592E+03   -0.91105E-04   -0.17426E-03  7287   0.119E-01    0.302E-02
RMM:   3    -0.352846378941E+03    0.16651E-04   -0.17987E-04  6126   0.324E-02    0.210E-02
RMM:   4    -0.352846373180E+03    0.57614E-05   -0.75438E-05  4708   0.150E-02
  25 F= -.35284637E+03 E0= -.35285449E+03  d E =-.449034E-03
       N       E                     dE             d eps       ncg     rms          rms(c)
DAV:   1    -0.352846575738E+03   -0.19680E-03   -0.51847E-01  5040   0.207E+00    0.177E-01
RMM:   2    -0.352847442465E+03   -0.86673E-03   -0.15977E-02  7365   0.358E-01    0.923E-02
RMM:   3    -0.352847358930E+03    0.83534E-04   -0.21585E-03  7385   0.977E-02    0.664E-02
RMM:   4    -0.352847296269E+03    0.62661E-04   -0.62965E-04  8444   0.397E-02    0.348E-02
RMM:   5    -0.352847297448E+03   -0.11788E-05   -0.24257E-04  6258   0.249E-02    0.184E-02
RMM:   6    -0.352847297969E+03   -0.52089E-06   -0.99155E-05  4865   0.169E-02
  26 F= -.35284730E+03 E0= -.35285544E+03  d E =-.137382E-02
       N       E                     dE             d eps       ncg     rms          rms(c)
DAV:   1    -0.352844366597E+03    0.29309E-02   -0.20751E+00  5040   0.414E+00    0.353E-01
RMM:   2    -0.352847799766E+03   -0.34332E-02   -0.63609E-02  7360   0.717E-01    0.183E-01
RMM:   3    -0.352847425848E+03    0.37392E-03   -0.84020E-03  7453   0.194E-01    0.130E-01
RMM:   4    -0.352847193322E+03    0.23253E-03   -0.23864E-03  8477   0.772E-02    0.692E-02
RMM:   5    -0.352847201226E+03   -0.79040E-05   -0.10209E-03  7962   0.485E-02    0.381E-02
RMM:   6    -0.352847198546E+03    0.26795E-05   -0.36250E-04  7319   0.290E-02    0.187E-02
RMM:   7    -0.352847210485E+03   -0.11939E-04   -0.16048E-04  6086   0.174E-02    0.116E-02
RMM:   8    -0.352847212439E+03   -0.19538E-05   -0.40868E-05  4667   0.127E-02
  27 F= -.35284721E+03 E0= -.35285538E+03  d E =-.128829E-02
       N       E                     dE             d eps       ncg     rms          rms(c)
DAV:   1    -0.352846799201E+03    0.41128E-03   -0.65241E-01  5040   0.232E+00    0.198E-01
RMM:   2    -0.352847821498E+03   -0.10223E-02   -0.19510E-02  7218   0.401E-01    0.101E-01
RMM:   3    -0.352847673411E+03    0.14809E-03   -0.23344E-03  7413   0.108E-01    0.720E-02
RMM:   4    -0.352847591961E+03    0.81450E-04   -0.65342E-04  8376   0.417E-02    0.378E-02
RMM:   5    -0.352847587568E+03    0.43929E-05   -0.24413E-04  6547   0.258E-02    0.201E-02
RMM:   6    -0.352847586421E+03    0.11469E-05   -0.98514E-05  5049   0.168E-02
  28 F= -.35284759E+03 E0= -.35285574E+03  d E =-.166228E-02
       N       E                     dE             d eps       ncg     rms          rms(c)
DAV:   1    -0.352847809536E+03   -0.22197E-03   -0.14662E-01  5064   0.111E+00    0.112E-01
RMM:   2    -0.352848134318E+03   -0.32478E-03   -0.47917E-03  7457   0.195E-01    0.543E-02
RMM:   3    -0.352848082461E+03    0.51857E-04   -0.55536E-04  7359   0.499E-02    0.391E-02
RMM:   4    -0.352848060270E+03    0.22191E-04   -0.12949E-04  6292   0.198E-02    0.241E-02
RMM:   5    -0.352848055712E+03    0.45580E-05   -0.44887E-05  3979   0.116E-02
  29 F= -.35284806E+03 E0= -.35285625E+03  d E =-.469290E-03
       N       E                     dE             d eps       ncg     rms          rms(c)
DAV:   1    -0.352847135324E+03    0.92495E-03   -0.82375E-01  5040   0.263E+00    0.266E-01
RMM:   2    -0.352848963907E+03   -0.18286E-02   -0.27342E-02  7472   0.464E-01    0.133E-01
RMM:   3    -0.352848714699E+03    0.24921E-03   -0.33904E-03  7500   0.119E-01    0.955E-02
RMM:   4    -0.352848592832E+03    0.12187E-03   -0.76626E-04  8538   0.473E-02    0.618E-02
RMM:   5    -0.352848576833E+03    0.15999E-04   -0.33691E-04  7662   0.324E-02    0.328E-02
RMM:   6    -0.352848568274E+03    0.85593E-05   -0.13111E-04  5854   0.189E-02    0.205E-02
RMM:   7    -0.352848566576E+03    0.16974E-05   -0.45182E-05  4201   0.140E-02
  30 F= -.35284857E+03 E0= -.35285687E+03  d E =-.980155E-03
       N       E                     dE             d eps       ncg     rms          rms(c)
DAV:   1    -0.352849660775E+03   -0.10925E-02   -0.17698E-01  5472   0.128E+00    0.337E-01
RMM:   2    -0.352849104656E+03    0.55612E-03   -0.10236E-02  7117   0.266E-01    0.112E-01
RMM:   3    -0.352848949989E+03    0.15467E-03   -0.18677E-03  7663   0.889E-02    0.765E-02
RMM:   4    -0.352848810008E+03    0.13998E-03   -0.54910E-04  7715   0.406E-02    0.456E-02
RMM:   5    -0.352848806909E+03    0.30984E-05   -0.17156E-04  6830   0.254E-02    0.353E-02
RMM:   6    -0.352848818208E+03   -0.11299E-04   -0.71184E-05  4938   0.140E-02    0.201E-02
RMM:   7    -0.352848827928E+03   -0.97196E-05   -0.26056E-05  3569   0.121E-02
  31 F= -.35284883E+03 E0= -.35285716E+03  d E =-.261351E-03
       N       E                     dE             d eps       ncg     rms          rms(c)
DAV:   1    -0.352848870349E+03   -0.52140E-04   -0.10403E-02  5536   0.311E-01    0.789E-02
RMM:   2    -0.352848837123E+03    0.33225E-04   -0.59624E-04  7049   0.647E-02    0.243E-02
RMM:   3    -0.352848830699E+03    0.64242E-05   -0.95928E-05  6245   0.208E-02
  32 F= -.35284883E+03 E0= -.35285717E+03  d E =-.264123E-03
       N       E                     dE             d eps       ncg     rms          rms(c)
DAV:   1    -0.352849020043E+03   -0.18292E-03   -0.57366E-02  5120   0.681E-01    0.818E-02
RMM:   2    -0.352849068546E+03   -0.48503E-04   -0.18726E-03  7475   0.119E-01    0.430E-02
RMM:   3    -0.352849049594E+03    0.18952E-04   -0.27708E-04  6828   0.332E-02    0.307E-02
RMM:   4    -0.352849036075E+03    0.13519E-04   -0.11700E-04  6064   0.186E-02    0.136E-02
RMM:   5    -0.352849036815E+03   -0.74050E-06   -0.45427E-05  4099   0.109E-02
  33 F= -.35284904E+03 E0= -.35285737E+03  d E =-.206116E-03
       N       E                     dE             d eps       ncg     rms          rms(c)
DAV:   1    -0.352849223620E+03   -0.18755E-03   -0.38350E-01  5040   0.176E+00    0.203E-01
RMM:   2    -0.352849509966E+03   -0.28635E-03   -0.12289E-02  7478   0.306E-01    0.104E-01
RMM:   3    -0.352849367968E+03    0.14200E-03   -0.19024E-03  7382   0.848E-02    0.745E-02
RMM:   4    -0.352849254356E+03    0.11361E-03   -0.68273E-04  8007   0.435E-02    0.349E-02
RMM:   5    -0.352849249129E+03    0.52271E-05   -0.25389E-04  6167   0.245E-02    0.191E-02
RMM:   6    -0.352849249873E+03   -0.74405E-06   -0.94770E-05  4972   0.158E-02
  34 F= -.35284925E+03 E0= -.35285755E+03  d E =-.419174E-03
       N       E                     dE             d eps       ncg     rms          rms(c)
DAV:   1    -0.352849716584E+03   -0.46746E-03   -0.11139E-01  5376   0.996E-01    0.229E-01
RMM:   2    -0.352849561399E+03    0.15518E-03   -0.54919E-03  7257   0.196E-01    0.794E-02
RMM:   3    -0.352849479390E+03    0.82009E-04   -0.94850E-04  7649   0.619E-02    0.543E-02
RMM:   4    -0.352849397774E+03    0.81616E-04   -0.28172E-04  7685   0.295E-02    0.323E-02
RMM:   5    -0.352849389262E+03    0.85119E-05   -0.96197E-05  6394   0.182E-02
  35 F= -.35284939E+03 E0= -.35285769E+03  d E =-.139389E-03
       N       E                     dE             d eps       ncg     rms          rms(c)
DAV:   1    -0.352849408369E+03   -0.10595E-04   -0.10322E-02  5512   0.304E-01    0.634E-02
RMM:   2    -0.352849395166E+03    0.13203E-04   -0.50943E-04  7272   0.591E-02    0.233E-02
RMM:   3    -0.352849383892E+03    0.11274E-04   -0.83233E-05  6013   0.175E-02    0.175E-02
RMM:   4    -0.352849377034E+03    0.68586E-05   -0.22811E-05  3285   0.117E-02
  36 F= -.35284938E+03 E0= -.35285769E+03  d E =-.127161E-03
       N       E                     dE             d eps       ncg     rms          rms(c)
DAV:   1    -0.352849473982E+03   -0.90089E-04   -0.59453E-02  5080   0.688E-01    0.770E-02
RMM:   2    -0.352849558463E+03   -0.84481E-04   -0.18960E-03  7481   0.120E-01    0.399E-02
RMM:   3    -0.352849543089E+03    0.15374E-04   -0.25364E-04  6709   0.336E-02    0.281E-02
RMM:   4    -0.352849534991E+03    0.80982E-05   -0.10360E-04  5556   0.165E-02    0.157E-02
RMM:   5    -0.352849533138E+03    0.18529E-05   -0.33803E-05  3734   0.102E-02
  37 F= -.35284953E+03 E0= -.35285786E+03  d E =-.156104E-03
       N       E                     dE             d eps       ncg     rms          rms(c)
DAV:   1    -0.352849314774E+03    0.22022E-03   -0.36410E-01  5040   0.170E+00    0.179E-01
RMM:   2    -0.352849844888E+03   -0.53011E-03   -0.11324E-02  7487   0.294E-01    0.905E-02
RMM:   3    -0.352849761452E+03    0.83436E-04   -0.15178E-03  7436   0.758E-02    0.634E-02
RMM:   4    -0.352849710468E+03    0.50984E-04   -0.46817E-04  7871   0.336E-02    0.381E-02
RMM:   5    -0.352849707579E+03    0.28893E-05   -0.18632E-04  6592   0.229E-02    0.210E-02
RMM:   6    -0.352849708828E+03   -0.12494E-05   -0.63393E-05  4496   0.135E-02
  38 F= -.35284971E+03 E0= -.35285807E+03  d E =-.331795E-03
       N       E                     dE             d eps       ncg     rms          rms(c)
DAV:   1    -0.352849877720E+03   -0.17014E-03   -0.30966E-02  5120   0.517E-01    0.965E-02
RMM:   2    -0.352849850927E+03    0.26794E-04   -0.13486E-03  7487   0.976E-02    0.401E-02
RMM:   3    -0.352849830828E+03    0.20099E-04   -0.21518E-04  6864   0.276E-02    0.267E-02
RMM:   4    -0.352849817428E+03    0.13400E-04   -0.71244E-05  5767   0.155E-02    0.157E-02
RMM:   5    -0.352849816848E+03    0.58027E-06   -0.23262E-05  3226   0.102E-02
  39 F= -.35284982E+03 E0= -.35285819E+03  d E =-.108020E-03
       N       E                     dE             d eps       ncg     rms          rms(c)
DAV:   1    -0.352850038154E+03   -0.22073E-03   -0.90149E-02  5048   0.884E-01    0.166E-01
RMM:   2    -0.352849959916E+03    0.78238E-04   -0.39391E-03  7491   0.165E-01    0.682E-02
RMM:   3    -0.352849899004E+03    0.60913E-04   -0.63702E-04  7500   0.463E-02    0.453E-02
RMM:   4    -0.352849858480E+03    0.40524E-04   -0.20602E-04  7056   0.238E-02    0.270E-02
RMM:   5    -0.352849856480E+03    0.19991E-05   -0.78209E-05  5067   0.146E-02
  40 F= -.35284986E+03 E0= -.35285826E+03  d E =-.147652E-03
