<?xml version="1.0" encoding="ISO-8859-1"?>
<modeling>
 <generator>
  <i name="program" type="string">vasp </i>
  <i name="version" type="string">5.4.1  </i>
  <i name="subversion" type="string">05Feb16 (build Jan 29 2020 16:04:39) complex                          parallel </i>
  <i name="platform" type="string">IFC91_ompi </i>
  <i name="date" type="string">2020 06 15 </i>
  <i name="time" type="string">12:33:40 </i>
 </generator>
 <incar>
  <i type="string" name="SYSTEM"> automatically generated by mexm</i>
  <i type="int" name="ISTART">     0</i>
  <i type="string" name="PREC">accurate               ! avoid wrap aro</i>
  <i type="string" name="ALGO"> Fast                   ! blocked Davids</i>
  <i type="int" name="ISPIN">     1</i>
  <i type="int" name="ICHARG">     2</i>
  <i type="int" name="NELM">    70</i>
  <i type="int" name="IBRION">     2</i>
  <i name="EDIFF">      0.00001000</i>
  <i name="EDIFFG">     -0.01000000</i>
  <i type="int" name="NSW">   300</i>
  <i type="int" name="ISIF">     3</i>
  <i type="int" name="ISYM">     1</i>
  <i name="ENCUT">    300.00000000</i>
  <i name="POTIM">      0.15000000</i>
  <i type="string" name="LREAL"> Auto                  ! unpublished met</i>
  <i type="int" name="ISMEAR">     1</i>
  <i name="SIGMA">      0.15000000</i>
  <i type="logical" name="LWAVE"> F  </i>
  <i type="logical" name="LCHARG"> F  </i>
  <i type="logical" name="LVTOT"> F  </i>
  <v type="int" name="KPOINT_BSE">    -1     0     0     0</v>
  <i type="int" name="NELM">    70</i>
 </incar>
 <kpoints>
  <generation param="Gamma">
   <v type="int" name="divisions">       3        3        3 </v>
   <v name="usershift">      0.00000000       0.00000000       0.00000000 </v>
   <v name="genvec1">      0.33333333      -0.00000000       0.00000000 </v>
   <v name="genvec2">      0.00000000       0.33333333      -0.00000000 </v>
   <v name="genvec3">      0.00000000      -0.00000000       0.33333333 </v>
   <v name="shift">      0.00000000       0.00000000       0.00000000 </v>
  </generation>
  <varray name="kpointlist" >
   <v>       0.00000000       0.00000000       0.00000000 </v>
   <v>       0.33333333       0.00000000       0.00000000 </v>
   <v>      -0.00000000       0.33333333       0.00000000 </v>
   <v>       0.33333333       0.33333333       0.00000000 </v>
   <v>      -0.33333333       0.33333333      -0.00000000 </v>
   <v>       0.00000000      -0.00000000       0.33333333 </v>
   <v>       0.33333333      -0.00000000       0.33333333 </v>
   <v>      -0.33333333      -0.00000000       0.33333333 </v>
   <v>      -0.00000000       0.33333333       0.33333333 </v>
   <v>       0.33333333       0.33333333       0.33333333 </v>
   <v>      -0.33333333       0.33333333       0.33333333 </v>
   <v>      -0.00000000      -0.33333333       0.33333333 </v>
   <v>       0.33333333      -0.33333333       0.33333333 </v>
   <v>      -0.33333333      -0.33333333       0.33333333 </v>
  </varray>
  <varray name="weights" >
   <v>       0.03703704 </v>
   <v>       0.07407407 </v>
   <v>       0.07407407 </v>
   <v>       0.07407407 </v>
   <v>       0.07407407 </v>
   <v>       0.07407407 </v>
   <v>       0.07407407 </v>
   <v>       0.07407407 </v>
   <v>       0.07407407 </v>
   <v>       0.07407407 </v>
   <v>       0.07407407 </v>
   <v>       0.07407407 </v>
   <v>       0.07407407 </v>
   <v>       0.07407407 </v>
  </varray>
 </kpoints>
 <parameters>
  <separator name="general" >
   <i type="string" name="SYSTEM">automatically generated by mexm</i>
   <i type="logical" name="LCOMPAT"> F  </i>
  </separator>
  <separator name="electronic" >
   <i type="string" name="PREC">accura</i>
   <i name="ENMAX">    300.00000000</i>
   <i name="ENAUG">    461.25700000</i>
   <i name="EDIFF">      0.00001000</i>
   <i type="int" name="IALGO">    68</i>
   <i type="int" name="IWAVPR">    11</i>
   <i type="int" name="NBANDS">   160</i>
   <i name="NELECT">    265.00000000</i>
   <i type="int" name="TURBO">     0</i>
   <i type="int" name="IRESTART">     0</i>
   <i type="int" name="NREBOOT">     0</i>
   <i type="int" name="NMIN">     0</i>
   <i name="EREF">      0.00000000</i>
   <separator name="electronic smearing" >
    <i type="int" name="ISMEAR">     1</i>
    <i name="SIGMA">      0.15000000</i>
    <i name="KSPACING">      0.50000000</i>
    <i type="logical" name="KGAMMA"> T  </i>
   </separator>
   <separator name="electronic projectors" >
    <i type="logical" name="LREAL"> T  </i>
    <v name="ROPT">     -0.00025000     -0.00025000     -0.00025000     -0.00025000</v>
    <i type="int" name="LMAXPAW">  -100</i>
    <i type="int" name="LMAXMIX">     2</i>
    <i type="logical" name="NLSPLINE"> F  </i>
   </separator>
   <separator name="electronic startup" >
    <i type="int" name="ISTART">     0</i>
    <i type="int" name="ICHARG">     2</i>
    <i type="int" name="INIWAV">     1</i>
   </separator>
   <separator name="electronic spin" >
    <i type="int" name="ISPIN">     1</i>
    <i type="logical" name="LNONCOLLINEAR"> F  </i>
    <v name="MAGMOM">      1.00000000      1.00000000      1.00000000      1.00000000      1.00000000      1.00000000      1.00000000      1.00000000      1.00000000      1.00000000      1.00000000      1.00000000      1.00000000      1.00000000      1.00000000      1.00000000      1.00000000      1.00000000      1.00000000      1.00000000
      1.00000000      1.00000000      1.00000000      1.00000000      1.00000000      1.00000000      1.00000000      1.00000000      1.00000000      1.00000000      1.00000000      1.00000000      1.00000000      1.00000000      1.00000000      1.00000000</v>
    <i name="NUPDOWN">     -1.00000000</i>
    <i type="logical" name="LSORBIT"> F  </i>
    <v name="SAXIS">      0.00000000      0.00000000      1.00000000</v>
    <i type="logical" name="LSPIRAL"> F  </i>
    <v name="QSPIRAL">      0.00000000      0.00000000      0.00000000</v>
    <i type="logical" name="LZEROZ"> F  </i>
   </separator>
   <separator name="electronic exchange-correlation" >
    <i type="logical" name="LASPH"> F  </i>
    <i type="logical" name="LMETAGGA"> F  </i>
   </separator>
   <separator name="electronic convergence" >
    <i type="int" name="NELM">    70</i>
    <i type="int" name="NELMDL">    -5</i>
    <i type="int" name="NELMIN">     2</i>
    <i name="ENINI">    300.00000000</i>
    <separator name="electronic convergence detail" >
     <i type="logical" name="LDIAG"> T  </i>
     <i type="logical" name="LSUBROT"> F  </i>
     <i name="WEIMIN">      0.00100000</i>
     <i name="EBREAK">      0.00000002</i>
     <i name="DEPER">      0.30000000</i>
     <i type="int" name="NRMM">     4</i>
     <i name="TIME">      0.40000000</i>
    </separator>
   </separator>
   <separator name="electronic mixer" >
    <i name="AMIX">      0.40000000</i>
    <i name="BMIX">      1.00000000</i>
    <i name="AMIN">      0.10000000</i>
    <i name="AMIX_MAG">      1.60000000</i>
    <i name="BMIX_MAG">      1.00000000</i>
    <separator name="electronic mixer details" >
     <i type="int" name="IMIX">     4</i>
     <i type="logical" name="MIXFIRST"> F  </i>
     <i type="int" name="MAXMIX">   -45</i>
     <i name="WC">    100.00000000</i>
     <i type="int" name="INIMIX">     1</i>
     <i type="int" name="MIXPRE">     1</i>
     <i type="int" name="MREMOVE">     5</i>
    </separator>
   </separator>
   <separator name="electronic dipolcorrection" >
    <i type="logical" name="LDIPOL"> F  </i>
    <i type="logical" name="LMONO"> F  </i>
    <i type="int" name="IDIPOL">     0</i>
    <i name="EPSILON">      1.00000000</i>
    <v name="DIPOL">   -100.00000000   -100.00000000   -100.00000000</v>
    <i name="EFIELD">      0.00000000</i>
   </separator>
  </separator>
  <separator name="grids" >
   <i type="int" name="NGX">    40</i>
   <i type="int" name="NGY">    60</i>
   <i type="int" name="NGZ">    60</i>
   <i type="int" name="NGXF">    80</i>
   <i type="int" name="NGYF">   120</i>
   <i type="int" name="NGZF">   120</i>
   <i type="logical" name="ADDGRID"> F  </i>
  </separator>
  <separator name="ionic" >
   <i type="int" name="NSW">   300</i>
   <i type="int" name="IBRION">     2</i>
   <i type="int" name="ISIF">     3</i>
   <i name="PSTRESS">      0.00000000</i>
   <i name="EDIFFG">     -0.01000000</i>
   <i type="int" name="NFREE">     1</i>
   <i name="POTIM">      0.15000000</i>
   <i name="SMASS">     -3.00000000</i>
   <i name="SCALEE">      1.00000000</i>
  </separator>
  <separator name="ionic md" >
   <i name="TEBEG">      0.00010000</i>
   <i name="TEEND">      0.00010000</i>
   <i type="int" name="NBLOCK">     1</i>
   <i type="int" name="KBLOCK">   300</i>
   <i type="int" name="NPACO">   256</i>
   <i name="APACO">     16.00000000</i>
  </separator>
  <separator name="symmetry" >
   <i type="int" name="ISYM">     1</i>
   <i name="SYMPREC">      0.00001000</i>
  </separator>
  <separator name="dos" >
   <i type="logical" name="LORBIT"> F  </i>
   <v name="RWIGS">     -1.00000000     -1.00000000     -1.00000000     -1.00000000</v>
   <i type="int" name="NEDOS">   301</i>
   <i name="EMIN">     10.00000000</i>
   <i name="EMAX">    -10.00000000</i>
   <i name="EFERMI">      0.00000000</i>
  </separator>
  <separator name="writing" >
   <i type="int" name="NWRITE">     2</i>
   <i type="logical" name="LWAVE"> F  </i>
   <i type="logical" name="LCHARG"> F  </i>
   <i type="logical" name="LPARD"> F  </i>
   <i type="logical" name="LVTOT"> F  </i>
   <i type="logical" name="LVHAR"> F  </i>
   <i type="logical" name="LELF"> F  </i>
   <i type="logical" name="LOPTICS"> F  </i>
   <v name="STM">      0.00000000      0.00000000      0.00000000      0.00000000      0.00000000      0.00000000      0.00000000</v>
  </separator>
  <separator name="performance" >
   <i type="int" name="NPAR">     4</i>
   <i type="int" name="NSIM">     4</i>
   <i type="int" name="NBLK">    -1</i>
   <i type="logical" name="LPLANE"> T  </i>
   <i type="logical" name="LSCALAPACK"> T  </i>
   <i type="logical" name="LSCAAWARE"> F  </i>
   <i type="logical" name="LSCALU"> F  </i>
   <i type="logical" name="LASYNC"> F  </i>
   <i type="logical" name="LORBITALREAL"> F  </i>
  </separator>
  <separator name="miscellaneous" >
   <i type="int" name="IDIOT">     3</i>
   <i type="logical" name="LMUSIC"> F  </i>
   <v name="POMASS">    178.49000000    180.94800000     91.22400000     92.91000000</v>
   <v name="DARWINR">      0.00000000      0.00000000      0.00000000      0.00000000</v>
   <v name="DARWINV">      1.00000000      1.00000000      1.00000000      1.00000000</v>
   <i type="logical" name="LCORR"> T  </i>
  </separator>
  <i type="logical" name="GGA_COMPAT"> T  </i>
  <i type="logical" name="LBERRY"> F  </i>
  <i type="int" name="ICORELEVEL">     0</i>
  <i type="logical" name="LDAU"> F  </i>
  <i type="int" name="I_CONSTRAINED_M">     0</i>
  <separator name="electronic exchange-correlation" >
   <i type="string" name="GGA">--</i>
   <i type="int" name="VOSKOWN">     0</i>
   <i type="logical" name="LHFCALC"> F  </i>
   <i type="string" name="PRECFOCK"></i>
   <i type="logical" name="LSYMGRAD"> F  </i>
   <i type="logical" name="LHFONE"> F  </i>
   <i type="logical" name="LRHFCALC"> F  </i>
   <i type="logical" name="LTHOMAS"> F  </i>
   <i type="logical" name="LMODELHF"> F  </i>
   <i name="ENCUT4O">     -1.00000000</i>
   <i type="int" name="EXXOEP">     0</i>
   <i type="int" name="FOURORBIT">     0</i>
   <i name="AEXX">      0.00000000</i>
   <i name="HFALPHA">      0.00000000</i>
   <i name="MCALPHA">      0.00000000</i>
   <i name="ALDAX">      1.00000000</i>
   <i name="AGGAX">      1.00000000</i>
   <i name="ALDAC">      1.00000000</i>
   <i name="AGGAC">      1.00000000</i>
   <i type="int" name="NKREDX">     1</i>
   <i type="int" name="NKREDY">     1</i>
   <i type="int" name="NKREDZ">     1</i>
   <i type="logical" name="SHIFTRED"> F  </i>
   <i type="logical" name="ODDONLY"> F  </i>
   <i type="logical" name="EVENONLY"> F  </i>
   <i type="int" name="LMAXFOCK">     0</i>
   <i type="int" name="NMAXFOCKAE">     0</i>
   <i type="logical" name="LFOCKAEDFT"> F  </i>
   <i name="HFSCREEN">      0.00000000</i>
   <i name="HFSCREENC">      0.00000000</i>
   <i type="int" name="NBANDSGWLOW">     0</i>
  </separator>
  <separator name="vdW DFT" >
   <i type="logical" name="LUSE_VDW"> F  </i>
   <i name="Zab_VDW">     -0.84910000</i>
   <i name="PARAM1">      0.12340000</i>
   <i name="PARAM2">      1.00000000</i>
   <i name="PARAM3">      0.00000000</i>
  </separator>
  <separator name="model GW" >
   <i type="int" name="MODEL_GW">     0</i>
   <i name="MODEL_EPS0">     12.22998412</i>
   <i name="MODEL_ALPHA">      1.00000000</i>
  </separator>
  <separator name="linear response parameters" >
   <i type="logical" name="LEPSILON"> F  </i>
   <i type="logical" name="LRPA"> F  </i>
   <i type="logical" name="LNABLA"> F  </i>
   <i type="logical" name="LVEL"> F  </i>
   <i type="int" name="KINTER">     0</i>
   <i name="CSHIFT">      0.10000000</i>
   <i name="OMEGAMAX">     -1.00000000</i>
   <i name="DEG_THRESHOLD">      0.00200000</i>
  </separator>
  <separator name="orbital magnetization" >
   <i type="logical" name="NUCIND"> F  </i>
   <v name="MAGPOS">      0.00000000      0.00000000      0.00000000</v>
   <i type="logical" name="LNICSALL"> T  </i>
   <i type="logical" name="ORBITALMAG"> F  </i>
   <i type="logical" name="LMAGBLOCH"> F  </i>
   <i type="logical" name="LCHIMAG"> F  </i>
   <i type="logical" name="LGAUGE"> T  </i>
   <i type="int" name="MAGATOM">     0</i>
   <v name="MAGDIPOL">      0.00000000      0.00000000      0.00000000</v>
   <v name="AVECCONST">      0.00000000      0.00000000      0.00000000</v>
  </separator>
  <separator name="response functions" >
   <i type="logical" name="LADDER"> F  </i>
   <i type="logical" name="LFXC"> F  </i>
   <i type="logical" name="LHARTREE"> T  </i>
   <i type="int" name="IBSE">     0</i>
   <v type="int" name="KPOINT">    -1     0     0     0</v>
   <i type="logical" name="LTCTE"> F  </i>
   <i type="logical" name="LTETE"> F  </i>
   <i type="logical" name="LTRIPLET"> F  </i>
   <i type="logical" name="LFXCEPS"> F  </i>
   <i type="logical" name="LFXHEG"> F  </i>
   <i type="int" name="NATURALO">     0</i>
   <i type="logical" name="L2ORDER"> F  </i>
   <i type="logical" name="LUSEW"> F  </i>
   <i name="ENCUTGW">     -2.00000000</i>
   <i name="ENCUTGWSOFT">     -2.00000000</i>
   <i name="ENCUTLF">     -1.00000000</i>
   <i type="int" name="LMAXMP2">    -1</i>
   <i name="SCISSOR">      0.00000000</i>
   <i type="int" name="NOMEGA">     0</i>
   <i type="int" name="NOMEGAR">     0</i>
   <i type="int" name="NBANDSGW">    -1</i>
   <i type="int" name="NBANDSO">    -1</i>
   <i type="int" name="NBANDSV">    -1</i>
   <i type="int" name="NELM">    70</i>
   <i type="int" name="NELMHF">     1</i>
   <i type="int" name="DIM">     3</i>
   <i type="int" name="ANTIRES">     0</i>
   <i name="OMEGAMAX">    -30.00000000</i>
   <i name="OMEGAMIN">    -30.00000000</i>
   <i name="OMEGATL">   -200.00000000</i>
   <i type="int" name="OMEGAGRID">     0</i>
   <i name="CSHIFT">     -0.10000000</i>
   <i type="logical" name="SELFENERGY"> F  </i>
   <i type="logical" name="LSPECTRAL"> F  </i>
   <i type="logical" name="LSPECTRALGW"> F  </i>
   <i type="logical" name="LSINGLES"> F  </i>
   <i type="logical" name="LFERMIGW"> F  </i>
   <i type="logical" name="ODDONLYGW"> F  </i>
   <i type="logical" name="EVENONLYGW"> F  </i>
   <i type="int" name="NKREDLFX">     1</i>
   <i type="int" name="NKREDLFY">     1</i>
   <i type="int" name="NKREDLFZ">     1</i>
   <i type="int" name="MAXMEM">  1800</i>
   <i type="int" name="TELESCOPE">     0</i>
   <i type="int" name="TAUPAR">     1</i>
   <i type="int" name="OMEGAPAR">    -1</i>
   <i name="LAMBDA">      1.00000000</i>
  </separator>
  <separator name="External order field" >
   <i name="OFIELD_KAPPA">      0.00000000</i>
   <v name="OFIELD_K">      0.00000000      0.00000000      0.00000000</v>
   <i name="OFIELD_Q6_NEAR">      0.00000000</i>
   <i name="OFIELD_Q6_FAR">      0.00000000</i>
   <i name="OFIELD_A">      0.00000000</i>
  </separator>
 </parameters>
 <atominfo>
  <atoms>      36 </atoms>
  <types>       4 </types>
  <array name="atoms" >
   <dimension dim="1">ion</dimension>
   <field type="string">element</field>
   <field type="int">atomtype</field>
   <set>
    <rc><c>Hf</c><c>   1</c></rc>
    <rc><c>Hf</c><c>   1</c></rc>
    <rc><c>Hf</c><c>   1</c></rc>
    <rc><c>Hf</c><c>   1</c></rc>
    <rc><c>Hf</c><c>   1</c></rc>
    <rc><c>Hf</c><c>   1</c></rc>
    <rc><c>Hf</c><c>   1</c></rc>
    <rc><c>Hf</c><c>   1</c></rc>
    <rc><c>Hf</c><c>   1</c></rc>
    <rc><c>Hf</c><c>   1</c></rc>
    <rc><c>Hf</c><c>   1</c></rc>
    <rc><c>Hf</c><c>   1</c></rc>
    <rc><c>Ta</c><c>   2</c></rc>
    <rc><c>Ta</c><c>   2</c></rc>
    <rc><c>Ta</c><c>   2</c></rc>
    <rc><c>Ta</c><c>   2</c></rc>
    <rc><c>Ta</c><c>   2</c></rc>
    <rc><c>Ta</c><c>   2</c></rc>
    <rc><c>Ta</c><c>   2</c></rc>
    <rc><c>Ta</c><c>   2</c></rc>
    <rc><c>Ta</c><c>   2</c></rc>
    <rc><c>Ta</c><c>   2</c></rc>
    <rc><c>Ta</c><c>   2</c></rc>
    <rc><c>Zr</c><c>   3</c></rc>
    <rc><c>Zr</c><c>   3</c></rc>
    <rc><c>Zr</c><c>   3</c></rc>
    <rc><c>Zr</c><c>   3</c></rc>
    <rc><c>Zr</c><c>   3</c></rc>
    <rc><c>Zr</c><c>   3</c></rc>
    <rc><c>Zr</c><c>   3</c></rc>
    <rc><c>Nb</c><c>   4</c></rc>
    <rc><c>Nb</c><c>   4</c></rc>
    <rc><c>Nb</c><c>   4</c></rc>
    <rc><c>Nb</c><c>   4</c></rc>
    <rc><c>Nb</c><c>   4</c></rc>
    <rc><c>Nb</c><c>   4</c></rc>
   </set>
  </array>
  <array name="atomtypes" >
   <dimension dim="1">type</dimension>
   <field type="int">atomspertype</field>
   <field type="string">element</field>
   <field>mass</field>
   <field>valence</field>
   <field type="string">pseudopotential</field>
   <set>
    <rc><c>  12</c><c>Hf</c><c>    178.49000000</c><c>      4.00000000</c><c>  PAW_PBE Hf 20Jan2003                  </c></rc>
    <rc><c>  11</c><c>Ta</c><c>    180.94800000</c><c>      5.00000000</c><c>  PAW_PBE Ta 17Jan2003                  </c></rc>
    <rc><c>   7</c><c>Zr</c><c>     91.22400000</c><c>     12.00000000</c><c>  PAW_PBE Zr_sv 04Jan2005               </c></rc>
    <rc><c>   6</c><c>Nb</c><c>     92.91000000</c><c>     13.00000000</c><c>  PAW_PBE Nb_sv 25May2007               </c></rc>
   </set>
  </array>
 </atominfo>
 <structure name="initialpos" >
  <crystal>
   <varray name="basis" >
    <v>       6.97754826       0.01078473       0.00560686 </v>
    <v>       0.01651629      10.23488975       0.02436789 </v>
    <v>       0.00853500       0.02422822      10.27531003 </v>
   </varray>
   <i name="volume">    733.79904738 </i>
   <varray name="rec_basis" >
    <v>       0.14331727      -0.00023099      -0.00011850 </v>
    <v>      -0.00015083       0.09770580      -0.00023026 </v>
    <v>      -0.00007785      -0.00023158       0.09732128 </v>
   </varray>
  </crystal>
  <varray name="positions" >
   <v>       0.48144000       0.32347900       0.99981700 </v>
   <v>       0.76535200       0.49643700       0.16866400 </v>
   <v>       0.26922700       0.82894000       0.81865500 </v>
   <v>       0.75203300       0.49807500       0.83353000 </v>
   <v>       0.22246800       0.49590900       0.16298800 </v>
   <v>       0.01517600       0.67717900       0.33829300 </v>
   <v>       0.48381900       0.32727400       0.32981900 </v>
   <v>       0.50134100       0.67453500       0.01664700 </v>
   <v>       0.52130300       0.03344900       0.67047000 </v>
   <v>       0.98702700       0.01072300       0.66848800 </v>
   <v>       0.72644500       0.81262000       0.80411500 </v>
   <v>       0.50408800       0.00017100       0.00234800 </v>
   <v>       0.74276500       0.83272700       0.19326000 </v>
   <v>       0.24395500       0.16468600       0.49738300 </v>
   <v>       0.02084500       0.32680400       0.34716500 </v>
   <v>       0.24274900       0.49811800       0.83236100 </v>
   <v>       0.25466300       0.83739300       0.17722700 </v>
   <v>       0.49235100       0.33060300       0.66838100 </v>
   <v>       0.25353000       0.49505300       0.49967600 </v>
   <v>       0.48511400       0.66448100       0.32078800 </v>
   <v>       0.47037300       0.63351800       0.66446200 </v>
   <v>       0.02294700       0.65574200       0.66260200 </v>
   <v>       0.00653400       0.99854200       0.33695700 </v>
   <v>       0.74343200       0.50273800       0.49942300 </v>
   <v>       0.99662900       0.99185700       0.99998900 </v>
   <v>       0.49822000       0.01125500       0.32648100 </v>
   <v>       0.26570400       0.83753200       0.50689100 </v>
   <v>       0.77930500       0.17735800       0.16667200 </v>
   <v>       0.98999000       0.68691100       0.00035100 </v>
   <v>       0.00343000       0.32888300       0.66393700 </v>
   <v>       0.76387700       0.17558800       0.48792600 </v>
   <v>       0.22705000       0.16456200       0.16802500 </v>
   <v>       0.75883200       0.18639300       0.84495400 </v>
   <v>       0.24583800       0.16742700       0.83460300 </v>
   <v>       0.02200800       0.32666800       0.98627300 </v>
   <v>       0.74014000       0.82638600       0.50037700 </v>
  </varray>
 </structure>
 <calculation>
  <scstep>
   <time name="dav">    0.93    0.98</time>
   <time name="total">    1.21    1.47</time>
   <energy>
    <i name="alphaZ">   1326.61208510 </i>
    <i name="ewald"> -15549.12688798 </i>
    <i name="hartreedc">  -6128.58464091 </i>
    <i name="XCdc">   -681.00713189 </i>
    <i name="pawpsdc">  17995.91559695 </i>
    <i name="pawaedc"> -16230.52290654 </i>
    <i name="eentropy">     -0.00826763 </i>
    <i name="bandstr">     42.16720792 </i>
    <i name="atom">  20667.72186136 </i>
    <i name="e_fr_energy">   1443.16691638 </i>
    <i name="e_wo_entrp">   1443.17518401 </i>
    <i name="e_0_energy">   1443.16967226 </i>
   </energy>
  </scstep>
  <scstep>
   <time name="dav">    1.15    1.16</time>
   <time name="total">    1.15    1.27</time>
   <energy>
    <i name="e_fr_energy">   -137.86556682 </i>
    <i name="e_wo_entrp">   -137.86917683 </i>
    <i name="e_0_energy">   -137.86677016 </i>
   </energy>
  </scstep>
  <scstep>
   <time name="dav">    1.28    1.28</time>
   <time name="total">    1.28    1.31</time>
   <energy>
    <i name="e_fr_energy">   -353.91630076 </i>
    <i name="e_wo_entrp">   -353.90906315 </i>
    <i name="e_0_energy">   -353.91388822 </i>
   </energy>
  </scstep>
  <scstep>
   <time name="dav">    1.34    1.34</time>
   <time name="total">    1.34    1.37</time>
   <energy>
    <i name="e_fr_energy">   -379.61189995 </i>
    <i name="e_wo_entrp">   -379.62889713 </i>
    <i name="e_0_energy">   -379.61756568 </i>
   </energy>
  </scstep>
  <scstep>
   <time name="dav">    1.25    1.26</time>
   <time name="total">    1.29    1.32</time>
   <energy>
    <i name="e_fr_energy">   -382.27825867 </i>
    <i name="e_wo_entrp">   -382.29571618 </i>
    <i name="e_0_energy">   -382.28407784 </i>
   </energy>
  </scstep>
  <scstep>
   <time name="diag">    0.07    0.07</time>
   <time name="diis">    0.70    0.71</time>
   <time name="orth">    0.01    0.01</time>
   <time name="total">    0.85    0.88</time>
   <energy>
    <i name="e_fr_energy">   -372.20439420 </i>
    <i name="e_wo_entrp">   -372.20813688 </i>
    <i name="e_0_energy">   -372.20564176 </i>
   </energy>
  </scstep>
  <scstep>
   <time name="diag">    0.07    0.07</time>
   <time name="diis">    0.70    0.70</time>
   <time name="orth">    0.01    0.01</time>
   <time name="total">    0.83    0.86</time>
   <energy>
    <i name="e_fr_energy">   -373.58819849 </i>
    <i name="e_wo_entrp">   -373.58950636 </i>
    <i name="e_0_energy">   -373.58863445 </i>
   </energy>
  </scstep>
  <scstep>
   <time name="diag">    0.07    0.07</time>
   <time name="diis">    0.79    0.79</time>
   <time name="orth">    0.01    0.01</time>
   <time name="total">    0.93    0.96</time>
   <energy>
    <i name="e_fr_energy">   -367.34139190 </i>
    <i name="e_wo_entrp">   -367.36883250 </i>
    <i name="e_0_energy">   -367.35053876 </i>
   </energy>
  </scstep>
  <scstep>
   <time name="diag">    0.14    0.14</time>
   <time name="diis">    0.76    0.77</time>
   <time name="orth">    0.01    0.01</time>
   <time name="total">    1.00    1.04</time>
   <energy>
    <i name="e_fr_energy">   -366.93438200 </i>
    <i name="e_wo_entrp">   -366.96450037 </i>
    <i name="e_0_energy">   -366.94442146 </i>
   </energy>
  </scstep>
  <scstep>
   <time name="diag">    0.07    0.07</time>
   <time name="diis">    0.67    0.76</time>
   <time name="orth">    0.01    0.01</time>
   <time name="total">    0.82    0.93</time>
   <energy>
    <i name="e_fr_energy">   -366.88762774 </i>
    <i name="e_wo_entrp">   -366.91907190 </i>
    <i name="e_0_energy">   -366.89810913 </i>
   </energy>
  </scstep>
  <scstep>
   <time name="diag">    0.07    0.07</time>
   <time name="diis">    0.71    0.72</time>
   <time name="orth">    0.01    0.01</time>
   <time name="total">    0.85    0.88</time>
   <energy>
    <i name="e_fr_energy">   -366.85001991 </i>
    <i name="e_wo_entrp">   -366.88188101 </i>
    <i name="e_0_energy">   -366.86064028 </i>
   </energy>
  </scstep>
  <scstep>
   <time name="diag">    0.07    0.07</time>
   <time name="diis">    0.73    0.73</time>
   <time name="orth">    0.01    0.01</time>
   <time name="total">    0.89    0.92</time>
   <energy>
    <i name="e_fr_energy">   -366.84977517 </i>
    <i name="e_wo_entrp">   -366.88213177 </i>
    <i name="e_0_energy">   -366.86056070 </i>
   </energy>
  </scstep>
  <scstep>
   <time name="diag">    0.07    0.07</time>
   <time name="diis">    0.74    0.75</time>
   <time name="orth">    0.02    0.02</time>
   <time name="total">    0.95    0.98</time>
   <energy>
    <i name="e_fr_energy">   -366.84757975 </i>
    <i name="e_wo_entrp">   -366.88000787 </i>
    <i name="e_0_energy">   -366.85838912 </i>
   </energy>
  </scstep>
  <scstep>
   <time name="diag">    0.07    0.12</time>
   <time name="diis">    0.74    0.74</time>
   <time name="orth">    0.01    0.01</time>
   <time name="total">    0.89    0.98</time>
   <energy>
    <i name="e_fr_energy">   -366.84797025 </i>
    <i name="e_wo_entrp">   -366.88022630 </i>
    <i name="e_0_energy">   -366.85872227 </i>
   </energy>
  </scstep>
  <scstep>
   <time name="diag">    0.07    0.07</time>
   <time name="diis">    0.74    0.74</time>
   <time name="orth">    0.01    0.01</time>
   <time name="total">    0.90    0.92</time>
   <energy>
    <i name="e_fr_energy">   -366.84816886 </i>
    <i name="e_wo_entrp">   -366.88044096 </i>
    <i name="e_0_energy">   -366.85892622 </i>
   </energy>
  </scstep>
  <scstep>
   <time name="diag">    0.07    0.07</time>
   <time name="diis">    0.75    0.76</time>
   <time name="orth">    0.01    0.01</time>
   <time name="total">    0.89    0.92</time>
   <energy>
    <i name="e_fr_energy">   -366.84828801 </i>
    <i name="e_wo_entrp">   -366.88065418 </i>
    <i name="e_0_energy">   -366.85907673 </i>
   </energy>
  </scstep>
  <scstep>
   <time name="diag">    0.07    0.07</time>
   <time name="diis">    0.63    0.64</time>
   <time name="orth">    0.01    0.01</time>
   <time name="total">    0.77    0.80</time>
   <energy>
    <i name="e_fr_energy">   -366.84833484 </i>
    <i name="e_wo_entrp">   -366.88068182 </i>
    <i name="e_0_energy">   -366.85911716 </i>
   </energy>
  </scstep>
  <scstep>
   <time name="diag">    0.07    0.07</time>
   <time name="diis">    0.58    0.58</time>
   <time name="orth">    0.01    0.01</time>
   <time name="total">    0.86    0.89</time>
   <energy>
    <i name="e_fr_energy">   -366.84837003 </i>
    <i name="e_wo_entrp">   -366.88073906 </i>
    <i name="e_0_energy">   -366.85915971 </i>
   </energy>
  </scstep>
  <scstep>
   <time name="diag">    0.07    0.07</time>
   <time name="diis">    0.55    0.55</time>
   <time name="orth">    0.01    0.01</time>
   <time name="total">    0.90    0.92</time>
   <energy>
    <i name="e_fr_energy">   -366.84838661 </i>
    <i name="e_wo_entrp">   -366.88074972 </i>
    <i name="e_0_energy">   -366.85917431 </i>
   </energy>
  </scstep>
  <scstep>
   <time name="diag">    0.15    0.15</time>
   <time name="diis">    0.92    0.92</time>
   <time name="orth">    0.04    0.04</time>
   <time name="total">    1.86    1.88</time>
   <energy>
    <i name="e_fr_energy">   -366.84839485 </i>
    <i name="e_wo_entrp">   -366.88076350 </i>
    <i name="e_0_energy">   -366.85918440 </i>
   </energy>
  </scstep>
  <scstep>
   <time name="diag">    0.07    0.14</time>
   <time name="diis">    0.40    0.40</time>
   <time name="orth">    0.01    0.01</time>
   <time name="total">    0.90    1.03</time>
   <energy>
    <i name="alphaZ">   1326.61208510 </i>
    <i name="ewald"> -15549.12688798 </i>
    <i name="hartreedc">  -5933.44531657 </i>
    <i name="XCdc">   -676.00373940 </i>
    <i name="pawpsdc">  29994.73633334 </i>
    <i name="pawaedc"> -28220.17800881 </i>
    <i name="eentropy">      0.03237211 </i>
    <i name="bandstr">  -1977.19709682 </i>
    <i name="atom">  20667.72186136 </i>
    <i name="e_fr_energy">   -366.84839767 </i>
    <i name="e_wo_entrp">   -366.88076978 </i>
    <i name="e_0_energy">   -366.85918837 </i>
   </energy>
  </scstep>
  <structure>
   <crystal>
    <varray name="basis" >
     <v>       6.97754826       0.01078473       0.00560686 </v>
     <v>       0.01651629      10.23488975       0.02436789 </v>
     <v>       0.00853500       0.02422822      10.27531003 </v>
    </varray>
    <i name="volume">    733.79904738 </i>
    <varray name="rec_basis" >
     <v>       0.14331727      -0.00023099      -0.00011850 </v>
     <v>      -0.00015083       0.09770580      -0.00023026 </v>
     <v>      -0.00007785      -0.00023158       0.09732128 </v>
    </varray>
   </crystal>
   <varray name="positions" >
    <v>       0.48144000       0.32347900       0.99981700 </v>
    <v>       0.76535200       0.49643700       0.16866400 </v>
    <v>       0.26922700       0.82894000       0.81865500 </v>
    <v>       0.75203300       0.49807500       0.83353000 </v>
    <v>       0.22246800       0.49590900       0.16298800 </v>
    <v>       0.01517600       0.67717900       0.33829300 </v>
    <v>       0.48381900       0.32727400       0.32981900 </v>
    <v>       0.50134100       0.67453500       0.01664700 </v>
    <v>       0.52130300       0.03344900       0.67047000 </v>
    <v>       0.98702700       0.01072300       0.66848800 </v>
    <v>       0.72644500       0.81262000       0.80411500 </v>
    <v>       0.50408800       0.00017100       0.00234800 </v>
    <v>       0.74276500       0.83272700       0.19326000 </v>
    <v>       0.24395500       0.16468600       0.49738300 </v>
    <v>       0.02084500       0.32680400       0.34716500 </v>
    <v>       0.24274900       0.49811800       0.83236100 </v>
    <v>       0.25466300       0.83739300       0.17722700 </v>
    <v>       0.49235100       0.33060300       0.66838100 </v>
    <v>       0.25353000       0.49505300       0.49967600 </v>
    <v>       0.48511400       0.66448100       0.32078800 </v>
    <v>       0.47037300       0.63351800       0.66446200 </v>
    <v>       0.02294700       0.65574200       0.66260200 </v>
    <v>       0.00653400       0.99854200       0.33695700 </v>
    <v>       0.74343200       0.50273800       0.49942300 </v>
    <v>       0.99662900       0.99185700       0.99998900 </v>
    <v>       0.49822000       0.01125500       0.32648100 </v>
    <v>       0.26570400       0.83753200       0.50689100 </v>
    <v>       0.77930500       0.17735800       0.16667200 </v>
    <v>       0.98999000       0.68691100       0.00035100 </v>
    <v>       0.00343000       0.32888300       0.66393700 </v>
    <v>       0.76387700       0.17558800       0.48792600 </v>
    <v>       0.22705000       0.16456200       0.16802500 </v>
    <v>       0.75883200       0.18639300       0.84495400 </v>
    <v>       0.24583800       0.16742700       0.83460300 </v>
    <v>       0.02200800       0.32666800       0.98627300 </v>
    <v>       0.74014000       0.82638600       0.50037700 </v>
   </varray>
  </structure>
  <varray name="forces" >
   <v>      -0.00063432       0.00768474       0.00341782 </v>
   <v>       0.01502245       0.01010999       0.00536403 </v>
   <v>      -0.03460434      -0.01603787       0.05626312 </v>
   <v>       0.01346081      -0.02387473       0.01358423 </v>
   <v>      -0.02302687       0.01118846       0.01158443 </v>
   <v>      -0.39158055       0.08948621       0.22858653 </v>
   <v>       0.00462721       0.02979063       0.00762714 </v>
   <v>      -0.02379181      -0.01386189      -0.03427905 </v>
   <v>       0.07182429      -0.22963966      -0.20933979 </v>
   <v>      -0.13792150      -0.21573486      -0.22709694 </v>
   <v>      -0.00634783      -0.00988349      -0.23908563 </v>
   <v>      -0.02534994      -0.01537214      -0.01947715 </v>
   <v>       0.02207255      -0.00264149       0.07819354 </v>
   <v>      -0.01120365      -0.02354498      -0.02697542 </v>
   <v>      -0.02729526       0.00741976      -0.00657677 </v>
   <v>       0.01158472       0.01868598      -0.01779446 </v>
   <v>      -0.02677267       0.01067321      -0.01781991 </v>
   <v>      -0.00923496      -0.00590518       0.01434851 </v>
   <v>      -0.03710113       0.01243034       0.03086114 </v>
   <v>       0.22887874       0.22364251       0.31867432 </v>
   <v>       0.19495790       0.16359695      -0.15307618 </v>
   <v>      -0.20861587       0.16010977      -0.10974838 </v>
   <v>      -0.22701327      -0.14028229       0.24720607 </v>
   <v>       0.00084506       0.01208274      -0.02935662 </v>
   <v>       0.00721282       0.00098189      -0.00963658 </v>
   <v>       0.18642796      -0.24823270       0.27449381 </v>
   <v>       0.06385542       0.04844650      -0.03601103 </v>
   <v>       0.01519768      -0.01728371      -0.02495094 </v>
   <v>       0.03454595      -0.01463508       0.00384087 </v>
   <v>      -0.00483589       0.00329635       0.02409336 </v>
   <v>       0.03144730       0.04093137      -0.01948972 </v>
   <v>       0.00232599      -0.00690910       0.01540619 </v>
   <v>       0.01127558      -0.00983567       0.02460560 </v>
   <v>       0.00526803       0.02512449       0.01421558 </v>
   <v>       0.01311061       0.00739168      -0.03726220 </v>
   <v>       0.26138876       0.11060125      -0.15438953 </v>
  </varray>
  <varray name="stress" >
   <v>      -7.02996733       0.47092923       0.37462949 </v>
   <v>       0.47092921      -6.57080926      -0.54567567 </v>
   <v>       0.37462948      -0.54567567      -7.33218780 </v>
  </varray>
  <energy>
   <i name="e_fr_energy">   -366.84839767 </i>
   <i name="e_wo_entrp">   -366.85918837 </i>
   <i name="e_0_energy">      0.03237211 </i>
  </energy>
  <time name="totalsc">   23.96   25.24</time>
 </calculation>
 <calculation>
  <scstep>
   <time name="dav">    0.96    1.06</time>
   <time name="total">    1.14    1.36</time>
   <energy>
    <i name="alphaZ">   1331.73846965 </i>
    <i name="ewald"> -15567.91151892 </i>
    <i name="hartreedc">  -5942.28635477 </i>
    <i name="XCdc">   -675.10490476 </i>
    <i name="pawpsdc">  29994.72464003 </i>
    <i name="pawaedc"> -28220.16679221 </i>
    <i name="eentropy">      0.03317088 </i>
    <i name="bandstr">  -1955.64581956 </i>
    <i name="atom">  20667.72186136 </i>
    <i name="e_fr_energy">   -366.89724829 </i>
    <i name="e_wo_entrp">   -366.93041918 </i>
    <i name="e_0_energy">   -366.90830526 </i>
   </energy>
  </scstep>
  <scstep>
   <time name="diag">    0.11    0.11</time>
   <time name="diis">    0.73    0.73</time>
   <time name="orth">    0.01    0.01</time>
   <time name="total">    0.91    0.94</time>
   <energy>
    <i name="e_fr_energy">   -366.88625718 </i>
    <i name="e_wo_entrp">   -366.91844556 </i>
    <i name="e_0_energy">   -366.89698664 </i>
   </energy>
  </scstep>
  <scstep>
   <time name="diag">    0.07    0.07</time>
   <time name="diis">    0.66    0.77</time>
   <time name="orth">    0.01    0.01</time>
   <time name="total">    0.80    0.93</time>
   <energy>
    <i name="e_fr_energy">   -366.87881716 </i>
    <i name="e_wo_entrp">   -366.91160037 </i>
    <i name="e_0_energy">   -366.88974490 </i>
   </energy>
  </scstep>
  <scstep>
   <time name="diag">    0.07    0.07</time>
   <time name="diis">    0.79    0.80</time>
   <time name="orth">    0.01    0.01</time>
   <time name="total">    0.93    0.96</time>
   <energy>
    <i name="e_fr_energy">   -366.87465576 </i>
    <i name="e_wo_entrp">   -366.90733532 </i>
    <i name="e_0_energy">   -366.88554895 </i>
   </energy>
  </scstep>
  <scstep>
   <time name="diag">    0.07    0.07</time>
   <time name="diis">    0.72    0.73</time>
   <time name="orth">    0.01    0.01</time>
   <time name="total">    0.86    0.89</time>
   <energy>
    <i name="e_fr_energy">   -366.87428053 </i>
    <i name="e_wo_entrp">   -366.90692305 </i>
    <i name="e_0_energy">   -366.88516137 </i>
   </energy>
  </scstep>
  <scstep>
   <time name="diag">    0.07    0.07</time>
   <time name="diis">    0.75    0.75</time>
   <time name="orth">    0.01    0.01</time>
   <time name="total">    0.89    0.91</time>
   <energy>
    <i name="e_fr_energy">   -366.87439013 </i>
    <i name="e_wo_entrp">   -366.90712174 </i>
    <i name="e_0_energy">   -366.88530067 </i>
   </energy>
  </scstep>
  <scstep>
   <time name="diag">    0.07    0.07</time>
   <time name="diis">    0.67    0.67</time>
   <time name="orth">    0.01    0.01</time>
   <time name="total">    0.81    0.83</time>
   <energy>
    <i name="e_fr_energy">   -366.87444194 </i>
    <i name="e_wo_entrp">   -366.90716123 </i>
    <i name="e_0_energy">   -366.88534837 </i>
   </energy>
  </scstep>
  <scstep>
   <time name="diag">    0.11    0.11</time>
   <time name="diis">    0.68    0.69</time>
   <time name="orth">    0.02    0.02</time>
   <time name="total">    0.92    0.96</time>
   <energy>
    <i name="e_fr_energy">   -366.87449501 </i>
    <i name="e_wo_entrp">   -366.90722633 </i>
    <i name="e_0_energy">   -366.88540545 </i>
   </energy>
  </scstep>
  <scstep>
   <time name="diag">    0.07    0.07</time>
   <time name="diis">    0.52    0.53</time>
   <time name="orth">    0.01    0.01</time>
   <time name="total">    0.66    0.69</time>
   <energy>
    <i name="e_fr_energy">   -366.87453551 </i>
    <i name="e_wo_entrp">   -366.90727034 </i>
    <i name="e_0_energy">   -366.88544712 </i>
   </energy>
  </scstep>
  <scstep>
   <time name="diag">    0.07    0.07</time>
   <time name="diis">    0.55    0.56</time>
   <time name="orth">    0.01    0.01</time>
   <time name="total">    0.69    0.72</time>
   <energy>
    <i name="e_fr_energy">   -366.87456530 </i>
    <i name="e_wo_entrp">   -366.90728658 </i>
    <i name="e_0_energy">   -366.88547239 </i>
   </energy>
  </scstep>
  <scstep>
   <time name="diag">    0.07    0.07</time>
   <time name="diis">    0.39    0.39</time>
   <time name="orth">    0.01    0.01</time>
   <time name="total">    0.54    0.56</time>
   <energy>
    <i name="e_fr_energy">   -366.87457634 </i>
    <i name="e_wo_entrp">   -366.90730506 </i>
    <i name="e_0_energy">   -366.88548592 </i>
   </energy>
  </scstep>
  <scstep>
   <time name="diag">    0.07    0.07</time>
   <time name="diis">    0.36    0.36</time>
   <time name="orth">    0.01    0.01</time>
   <time name="total">    0.47    0.50</time>
   <energy>
    <i name="alphaZ">   1331.73846965 </i>
    <i name="ewald"> -15567.91151892 </i>
    <i name="hartreedc">  -5930.01768763 </i>
    <i name="XCdc">   -675.60128093 </i>
    <i name="pawpsdc">  30155.42671259 </i>
    <i name="pawaedc"> -28380.67962877 </i>
    <i name="eentropy">      0.03273552 </i>
    <i name="bandstr">  -1967.58424229 </i>
    <i name="atom">  20667.72186136 </i>
    <i name="e_fr_energy">   -366.87457943 </i>
    <i name="e_wo_entrp">   -366.90731495 </i>
    <i name="e_0_energy">   -366.88549127 </i>
   </energy>
  </scstep>
  <structure>
   <crystal>
    <varray name="basis" >
     <v>       6.96851782       0.01137614       0.00607951 </v>
     <v>       0.01738407      10.22250594       0.02330780 </v>
     <v>       0.00923483       0.02316725      10.26143599 </v>
    </varray>
    <i name="volume">    730.97436657 </i>
    <varray name="rec_basis" >
     <v>       0.14350305      -0.00024374      -0.00012860 </v>
     <v>      -0.00015951       0.09782415      -0.00022071 </v>
     <v>      -0.00008466      -0.00022205       0.09745283 </v>
    </varray>
   </crystal>
   <varray name="positions" >
    <v>       0.48143865       0.32348986       0.99982179 </v>
    <v>       0.76538312       0.49645125       0.16867150 </v>
    <v>       0.26915518       0.82891721       0.81873434 </v>
    <v>       0.75206098       0.49804116       0.83354920 </v>
    <v>       0.22242018       0.49592483       0.16300431 </v>
    <v>       0.01436309       0.67730563       0.33861511 </v>
    <v>       0.48382849       0.32731609       0.32982964 </v>
    <v>       0.50129176       0.67451556       0.01659879 </v>
    <v>       0.52145310       0.03312481       0.67017583 </v>
    <v>       0.98674203       0.01041899       0.66816901 </v>
    <v>       0.72643228       0.81260683       0.80377829 </v>
    <v>       0.50403550       0.00014938       0.00232065 </v>
    <v>       0.74281066       0.83272296       0.19337012 </v>
    <v>       0.24393189       0.16465282       0.49734510 </v>
    <v>       0.02078837       0.32681457       0.34715574 </v>
    <v>       0.24277300       0.49814446       0.83233586 </v>
    <v>       0.25460746       0.83740821       0.17720189 </v>
    <v>       0.49233184       0.33059462       0.66840124 </v>
    <v>       0.25345295       0.49507056       0.49971947 </v>
    <v>       0.48558745       0.66479569       0.32123585 </v>
    <v>       0.47077710       0.63374942       0.66424562 </v>
    <v>       0.02251394       0.65596923       0.66244712 </v>
    <v>       0.00606317       0.99834330       0.33730592 </v>
    <v>       0.74343376       0.50275518       0.49938161 </v>
    <v>       0.99664397       0.99185840       0.99997542 </v>
    <v>       0.49860705       0.01090266       0.32686825 </v>
    <v>       0.26583635       0.83760049       0.50684004 </v>
    <v>       0.77933662       0.17733361       0.16663690 </v>
    <v>       0.99006170       0.68689022       0.00035642 </v>
    <v>       0.00341992       0.32888759       0.66397093 </v>
    <v>       0.76394212       0.17564588       0.48789838 </v>
    <v>       0.22705482       0.16455217       0.16804672 </v>
    <v>       0.75885538       0.18637899       0.84498868 </v>
    <v>       0.24584882       0.16746247       0.83462293 </v>
    <v>       0.02203523       0.32667855       0.98622048 </v>
    <v>       0.74068207       0.82654234       0.50015888 </v>
   </varray>
  </structure>
  <varray name="forces" >
   <v>       0.00844512       0.01576358       0.01110236 </v>
   <v>       0.00694473       0.00917090       0.00153688 </v>
   <v>      -0.03751134      -0.01520871       0.05369812 </v>
   <v>       0.00922412      -0.01811456       0.01569080 </v>
   <v>      -0.01332660       0.02604814       0.02190387 </v>
   <v>      -0.35485813       0.07008838       0.20503804 </v>
   <v>       0.00793865       0.03089986       0.00181217 </v>
   <v>      -0.02521763      -0.01812270      -0.03709504 </v>
   <v>       0.06084073      -0.21290176      -0.19561597 </v>
   <v>      -0.11657952      -0.19953500      -0.20749687 </v>
   <v>      -0.00371024      -0.00582368      -0.20272990 </v>
   <v>      -0.02104614      -0.01056819      -0.01993751 </v>
   <v>       0.02390747       0.00219013       0.04813790 </v>
   <v>      -0.00322058      -0.02796189      -0.01472334 </v>
   <v>      -0.02860193       0.01519193      -0.01859524 </v>
   <v>       0.01773239       0.03199110      -0.01919922 </v>
   <v>      -0.03068909       0.00598631      -0.00909368 </v>
   <v>      -0.00872696      -0.00909499       0.01452023 </v>
   <v>      -0.03375842       0.02208573       0.03072467 </v>
   <v>       0.21515853       0.19560402       0.29483656 </v>
   <v>       0.18432450       0.15544460      -0.14664521 </v>
   <v>      -0.19608592       0.15255322      -0.10382472 </v>
   <v>      -0.20813670      -0.12175588       0.22245679 </v>
   <v>       0.00380240       0.00105292      -0.02542136 </v>
   <v>       0.00224123      -0.00284384      -0.01450796 </v>
   <v>       0.17498246      -0.22347674       0.25753366 </v>
   <v>       0.05312949       0.04508790      -0.02297309 </v>
   <v>       0.00160990      -0.02006680      -0.02497086 </v>
   <v>       0.03271375      -0.01346655      -0.00291115 </v>
   <v>      -0.00654598       0.00407549       0.02458952 </v>
   <v>       0.01798649       0.03391385      -0.01457374 </v>
   <v>       0.01549251      -0.02112752       0.01988797 </v>
   <v>       0.00662792      -0.02846656       0.01395777 </v>
   <v>       0.00698470       0.00826559      -0.00017426 </v>
   <v>       0.00458622       0.01378515      -0.02355291 </v>
   <v>       0.23334187       0.10933658      -0.13338529 </v>
  </varray>
  <varray name="stress" >
   <v>      -2.01663589       0.35598034       0.22336916 </v>
   <v>       0.35598035      -1.61701664      -0.43387636 </v>
   <v>       0.22336913      -0.43387638      -2.16820575 </v>
  </varray>
  <energy>
   <i name="e_fr_energy">   -366.87457943 </i>
   <i name="e_wo_entrp">   -366.88549127 </i>
   <i name="e_0_energy">      0.03273552 </i>
  </energy>
  <time name="totalsc">   11.22   11.98</time>
 </calculation>
 <calculation>
  <scstep>
   <time name="dav">    0.90    0.90</time>
   <time name="total">    1.08    1.20</time>
   <energy>
    <i name="alphaZ">   1341.84222222 </i>
    <i name="ewald"> -15604.60993086 </i>
    <i name="hartreedc">  -5947.51310120 </i>
    <i name="XCdc">   -673.83678319 </i>
    <i name="pawpsdc">  30155.56287650 </i>
    <i name="pawaedc"> -28380.80126081 </i>
    <i name="eentropy">      0.03401940 </i>
    <i name="bandstr">  -1925.38188694 </i>
    <i name="atom">  20667.72186136 </i>
    <i name="e_fr_energy">   -366.98198351 </i>
    <i name="e_wo_entrp">   -367.01600291 </i>
    <i name="e_0_energy">   -366.99332331 </i>
   </energy>
  </scstep>
  <scstep>
   <time name="diag">    0.07    0.07</time>
   <time name="diis">    0.79    0.79</time>
   <time name="orth">    0.01    0.01</time>
   <time name="total">    0.94    0.96</time>
   <energy>
    <i name="e_fr_energy">   -366.93966026 </i>
    <i name="e_wo_entrp">   -366.97137400 </i>
    <i name="e_0_energy">   -366.95023151 </i>
   </energy>
  </scstep>
  <scstep>
   <time name="diag">    0.07    0.07</time>
   <time name="diis">    0.73    0.73</time>
   <time name="orth">    0.01    0.01</time>
   <time name="total">    0.87    0.90</time>
   <energy>
    <i name="e_fr_energy">   -366.91081248 </i>
    <i name="e_wo_entrp">   -366.94396209 </i>
    <i name="e_0_energy">   -366.92186235 </i>
   </energy>
  </scstep>
  <scstep>
   <time name="diag">    0.07    0.07</time>
   <time name="diis">    0.75    0.75</time>
   <time name="orth">    0.01    0.01</time>
   <time name="total">    0.89    0.93</time>
   <energy>
    <i name="e_fr_energy">   -366.89476408 </i>
    <i name="e_wo_entrp">   -366.92773447 </i>
    <i name="e_0_energy">   -366.90575421 </i>
   </energy>
  </scstep>
  <scstep>
   <time name="diag">    0.07    0.07</time>
   <time name="diis">    0.73    0.73</time>
   <time name="orth">    0.01    0.01</time>
   <time name="total">    1.07    1.11</time>
   <energy>
    <i name="e_fr_energy">   -366.89332366 </i>
    <i name="e_wo_entrp">   -366.92620789 </i>
    <i name="e_0_energy">   -366.90428507 </i>
   </energy>
  </scstep>
  <scstep>
   <time name="diag">    0.07    0.07</time>
   <time name="diis">    1.39    1.39</time>
   <time name="orth">    0.01    0.01</time>
   <time name="total">    1.54    1.57</time>
   <energy>
    <i name="e_fr_energy">   -366.89371804 </i>
    <i name="e_wo_entrp">   -366.92677401 </i>
    <i name="e_0_energy">   -366.90473670 </i>
   </energy>
  </scstep>
  <scstep>
   <time name="diag">    0.07    0.07</time>
   <time name="diis">    1.16    1.17</time>
   <time name="orth">    0.03    0.03</time>
   <time name="total">    1.87    1.91</time>
   <energy>
    <i name="e_fr_energy">   -366.89389101 </i>
    <i name="e_wo_entrp">   -366.92692418 </i>
    <i name="e_0_energy">   -366.90490207 </i>
   </energy>
  </scstep>
  <scstep>
   <time name="diag">    0.07    0.07</time>
   <time name="diis">    0.79    0.80</time>
   <time name="orth">    0.01    0.01</time>
   <time name="total">    0.94    0.97</time>
   <energy>
    <i name="e_fr_energy">   -366.89406857 </i>
    <i name="e_wo_entrp">   -366.92713327 </i>
    <i name="e_0_energy">   -366.90509014 </i>
   </energy>
  </scstep>
  <scstep>
   <time name="diag">    0.07    0.07</time>
   <time name="diis">    0.66    0.67</time>
   <time name="orth">    0.01    0.01</time>
   <time name="total">    0.80    0.84</time>
   <energy>
    <i name="e_fr_energy">   -366.89420256 </i>
    <i name="e_wo_entrp">   -366.92726310 </i>
    <i name="e_0_energy">   -366.90522274 </i>
   </energy>
  </scstep>
  <scstep>
   <time name="diag">    0.07    0.07</time>
   <time name="diis">    0.66    0.66</time>
   <time name="orth">    0.01    0.01</time>
   <time name="total">    0.80    0.83</time>
   <energy>
    <i name="e_fr_energy">   -366.89429574 </i>
    <i name="e_wo_entrp">   -366.92733413 </i>
    <i name="e_0_energy">   -366.90530853 </i>
   </energy>
  </scstep>
  <scstep>
   <time name="diag">    0.07    0.07</time>
   <time name="diis">    0.52    0.53</time>
   <time name="orth">    0.01    0.01</time>
   <time name="total">    0.69    0.72</time>
   <energy>
    <i name="e_fr_energy">   -366.89432995 </i>
    <i name="e_wo_entrp">   -366.92738502 </i>
    <i name="e_0_energy">   -366.90534831 </i>
   </energy>
  </scstep>
  <scstep>
   <time name="diag">    0.11    0.12</time>
   <time name="diis">    0.45    0.45</time>
   <time name="orth">    0.01    0.01</time>
   <time name="total">    0.64    0.67</time>
   <energy>
    <i name="e_fr_energy">   -366.89434299 </i>
    <i name="e_wo_entrp">   -366.92741352 </i>
    <i name="e_0_energy">   -366.90536650 </i>
   </energy>
  </scstep>
  <scstep>
   <time name="diag">    0.07    0.07</time>
   <time name="diis">    0.38    0.38</time>
   <time name="orth">    0.01    0.01</time>
   <time name="total">    0.49    0.52</time>
   <energy>
    <i name="alphaZ">   1341.84222222 </i>
    <i name="ewald"> -15604.60993086 </i>
    <i name="hartreedc">  -5923.67003880 </i>
    <i name="XCdc">   -674.80113778 </i>
    <i name="pawpsdc">  30479.16692638 </i>
    <i name="pawaedc"> -28703.88369680 </i>
    <i name="eentropy">      0.03306736 </i>
    <i name="bandstr">  -1948.69361878 </i>
    <i name="atom">  20667.72186136 </i>
    <i name="e_fr_energy">   -366.89434570 </i>
    <i name="e_wo_entrp">   -366.92741306 </i>
    <i name="e_0_energy">   -366.90536816 </i>
   </energy>
  </scstep>
  <structure>
   <crystal>
    <varray name="basis" >
     <v>       6.95085476       0.01253292       0.00700400 </v>
     <v>       0.01908139      10.19828390       0.02123432 </v>
     <v>       0.01060368       0.02109206      10.23429914 </v>
    </varray>
    <i name="volume">    725.47030356 </i>
    <varray name="rec_basis" >
     <v>       0.14386783      -0.00026887      -0.00014851 </v>
     <v>      -0.00017660       0.09805646      -0.00020190 </v>
     <v>      -0.00009809      -0.00020327       0.09771117 </v>
    </varray>
   </crystal>
   <varray name="positions" >
    <v>       0.48143601       0.32351112       0.99983117 </v>
    <v>       0.76544405       0.49647914       0.16868620 </v>
    <v>       0.26901451       0.82887260       0.81888974 </v>
    <v>       0.75211577       0.49797490       0.83358679 </v>
    <v>       0.22232652       0.49595585       0.16303625 </v>
    <v>       0.01277093       0.67755378       0.33924608 </v>
    <v>       0.48384705       0.32739852       0.32985048 </v>
    <v>       0.50119533       0.67447750       0.01650437 </v>
    <v>       0.52174722       0.03248988       0.66959960 </v>
    <v>       0.98618407       0.00982362       0.66754421 </v>
    <v>       0.72640743       0.81258099       0.80311880 </v>
    <v>       0.50393270       0.00010705       0.00226707 </v>
    <v>       0.74290006       0.83271505       0.19358580 </v>
    <v>       0.24388663       0.16458784       0.49727085 </v>
    <v>       0.02067746       0.32683528       0.34713762 </v>
    <v>       0.24281999       0.49819626       0.83228663 </v>
    <v>       0.25449870       0.83743800       0.17715273 </v>
    <v>       0.49229431       0.33057822       0.66844088 </v>
    <v>       0.25330204       0.49510495       0.49980462 </v>
    <v>       0.48651451       0.66541197       0.32211302 </v>
    <v>       0.47156850       0.63420253       0.66382184 </v>
    <v>       0.02166578       0.65641423       0.66214385 </v>
    <v>       0.00514105       0.99795431       0.33798931 </v>
    <v>       0.74343722       0.50278882       0.49930055 </v>
    <v>       0.99667330       0.99186115       0.99994881 </v>
    <v>       0.49936509       0.01021269       0.32762661 </v>
    <v>       0.26609554       0.83773458       0.50674024 </v>
    <v>       0.77939857       0.17728583       0.16656814 </v>
    <v>       0.99020212       0.68684951       0.00036703 </v>
    <v>       0.00340016       0.32889659       0.66403739 </v>
    <v>       0.76406966       0.17575920       0.48784428 </v>
    <v>       0.22706426       0.16453293       0.16808926 </v>
    <v>       0.75890116       0.18635154       0.84505659 </v>
    <v>       0.24586999       0.16753193       0.83466198 </v>
    <v>       0.02208858       0.32669919       0.98611760 </v>
    <v>       0.74174370       0.82684840       0.49973164 </v>
   </varray>
  </structure>
  <varray name="forces" >
   <v>       0.02548957       0.03128002       0.02757248 </v>
   <v>      -0.00965673       0.00657566      -0.00597043 </v>
   <v>      -0.04293420      -0.01305910       0.04901927 </v>
   <v>       0.00125522      -0.00637200       0.02071074 </v>
   <v>       0.00609480       0.05515694       0.04204592 </v>
   <v>      -0.28059257       0.02884356       0.15643312 </v>
   <v>       0.01416388       0.03363116      -0.00992559 </v>
   <v>      -0.02688442      -0.02660192      -0.04227921 </v>
   <v>       0.03841284      -0.17983142      -0.16781610 </v>
   <v>      -0.07251108      -0.16636384      -0.16766334 </v>
   <v>       0.00130158       0.00337334      -0.12969215 </v>
   <v>      -0.01203756      -0.00087219      -0.02062912 </v>
   <v>       0.02654747       0.01167506      -0.01519013 </v>
   <v>       0.01242128      -0.03625217       0.00997048 </v>
   <v>      -0.03146382       0.03024807      -0.04341617 </v>
   <v>       0.02997561       0.05751636      -0.02155200 </v>
   <v>      -0.03859878      -0.00282456       0.00809547 </v>
   <v>      -0.00812441      -0.01545796       0.01466327 </v>
   <v>      -0.02848321       0.04083250       0.03039622 </v>
   <v>       0.18799198       0.13939385       0.24856246 </v>
   <v>       0.16348628       0.14004824      -0.13464304 </v>
   <v>      -0.17011448       0.13635422      -0.09170397 </v>
   <v>      -0.16836969      -0.08249336       0.17082536 </v>
   <v>       0.00968896      -0.02288289      -0.01699903 </v>
   <v>      -0.00789259      -0.00883546      -0.02467754 </v>
   <v>       0.15096968      -0.17344491       0.22367378 </v>
   <v>       0.03087585       0.03781714       0.00267765 </v>
   <v>      -0.02533382      -0.02559282      -0.02533359 </v>
   <v>       0.02869429      -0.01132941      -0.01641342 </v>
   <v>      -0.00922996       0.00472437       0.02633502 </v>
   <v>      -0.00968250       0.02064573      -0.00434343 </v>
   <v>       0.04105423      -0.04894960       0.02773102 </v>
   <v>      -0.00218572      -0.06497523      -0.00709173 </v>
   <v>       0.00988932      -0.02463654      -0.02773449 </v>
   <v>      -0.01040232       0.02539616       0.00283614 </v>
   <v>       0.17618501       0.10726301      -0.08847390 </v>
  </varray>
  <varray name="stress" >
   <v>       8.15009628       0.13045769      -0.07971955 </v>
   <v>       0.13045769       8.45078867      -0.20909968 </v>
   <v>      -0.07971955      -0.20909976       8.33267573 </v>
  </varray>
  <energy>
   <i name="e_fr_energy">   -366.89434570 </i>
   <i name="e_wo_entrp">   -366.90536816 </i>
   <i name="e_0_energy">      0.03306736 </i>
  </energy>
  <time name="totalsc">   14.14   14.72</time>
 </calculation>
 <calculation>
  <scstep>
   <time name="dav">    0.82    0.82</time>
   <time name="total">    1.00    1.12</time>
   <energy>
    <i name="alphaZ">   1340.68670736 </i>
    <i name="ewald"> -15599.11572862 </i>
    <i name="hartreedc">  -5922.98189297 </i>
    <i name="XCdc">   -674.99357986 </i>
    <i name="pawpsdc">  30479.37800010 </i>
    <i name="pawaedc"> -28704.08604059 </i>
    <i name="eentropy">      0.03324818 </i>
    <i name="bandstr">  -1953.55746238 </i>
    <i name="atom">  20667.72186136 </i>
    <i name="e_fr_energy">   -366.91488742 </i>
    <i name="e_wo_entrp">   -366.94813560 </i>
    <i name="e_0_energy">   -366.92597014 </i>
   </energy>
  </scstep>
  <scstep>
   <time name="diag">    0.07    0.07</time>
   <time name="diis">    0.72    0.72</time>
   <time name="orth">    0.01    0.01</time>
   <time name="total">    0.88    0.90</time>
   <energy>
    <i name="e_fr_energy">   -366.91959236 </i>
    <i name="e_wo_entrp">   -366.95277508 </i>
    <i name="e_0_energy">   -366.93065326 </i>
   </energy>
  </scstep>
  <scstep>
   <time name="diag">    0.11    0.11</time>
   <time name="diis">    0.78    0.78</time>
   <time name="orth">    0.01    0.01</time>
   <time name="total">    0.96    0.99</time>
   <energy>
    <i name="e_fr_energy">   -366.91523707 </i>
    <i name="e_wo_entrp">   -366.94864354 </i>
    <i name="e_0_energy">   -366.92637256 </i>
   </energy>
  </scstep>
  <scstep>
   <time name="diag">    0.07    0.07</time>
   <time name="diis">    0.73    0.74</time>
   <time name="orth">    0.01    0.01</time>
   <time name="total">    0.87    0.90</time>
   <energy>
    <i name="e_fr_energy">   -366.91506050 </i>
    <i name="e_wo_entrp">   -366.94841631 </i>
    <i name="e_0_energy">   -366.92617910 </i>
   </energy>
  </scstep>
  <scstep>
   <time name="diag">    0.07    0.07</time>
   <time name="diis">    0.80    0.81</time>
   <time name="orth">    0.01    0.01</time>
   <time name="total">    0.94    0.98</time>
   <energy>
    <i name="e_fr_energy">   -366.91495559 </i>
    <i name="e_wo_entrp">   -366.94834877 </i>
    <i name="e_0_energy">   -366.92608665 </i>
   </energy>
  </scstep>
  <scstep>
   <time name="diag">    0.07    0.07</time>
   <time name="diis">    0.72    0.72</time>
   <time name="orth">    0.01    0.01</time>
   <time name="total">    0.86    0.88</time>
   <energy>
    <i name="e_fr_energy">   -366.91493789 </i>
    <i name="e_wo_entrp">   -366.94830961 </i>
    <i name="e_0_energy">   -366.92606180 </i>
   </energy>
  </scstep>
  <scstep>
   <time name="diag">    0.07    0.07</time>
   <time name="diis">    0.61    0.65</time>
   <time name="orth">    0.01    0.01</time>
   <time name="total">    0.75    0.81</time>
   <energy>
    <i name="e_fr_energy">   -366.91493151 </i>
    <i name="e_wo_entrp">   -366.94831459 </i>
    <i name="e_0_energy">   -366.92605920 </i>
   </energy>
  </scstep>
  <scstep>
   <time name="diag">    0.07    0.07</time>
   <time name="diis">    0.39    0.39</time>
   <time name="orth">    0.01    0.01</time>
   <time name="total">    0.51    0.54</time>
   <energy>
    <i name="alphaZ">   1340.68670736 </i>
    <i name="ewald"> -15599.11572862 </i>
    <i name="hartreedc">  -5926.08889158 </i>
    <i name="XCdc">   -674.87238887 </i>
    <i name="pawpsdc">  30441.11496014 </i>
    <i name="pawaedc"> -28665.68991077 </i>
    <i name="eentropy">      0.03337344 </i>
    <i name="bandstr">  -1950.70491110 </i>
    <i name="atom">  20667.72186136 </i>
    <i name="e_fr_energy">   -366.91492864 </i>
    <i name="e_wo_entrp">   -366.94830208 </i>
    <i name="e_0_energy">   -366.92605312 </i>
   </energy>
  </scstep>
  <structure>
   <crystal>
    <varray name="basis" >
     <v>       6.95263326       0.01312693       0.00728145 </v>
     <v>       0.01995304      10.20200186       0.02014771 </v>
     <v>       0.01101618       0.02000430      10.23676739 </v>
    </varray>
    <i name="volume">    726.09557397 </i>
    <varray name="rec_basis" >
     <v>       0.14383109      -0.00028100      -0.00015423 </v>
     <v>      -0.00018487       0.09802072      -0.00019135 </v>
     <v>      -0.00010194      -0.00019272       0.09768757 </v>
    </varray>
   </crystal>
   <varray name="positions" >
    <v>       0.48147882       0.32355598       0.99986700 </v>
    <v>       0.76545087       0.49649766       0.16868487 </v>
    <v>       0.26888614       0.82884004       0.81900719 </v>
    <v>       0.75213906       0.49794181       0.83362556 </v>
    <v>       0.22230066       0.49603256       0.16309770 </v>
    <v>       0.01167243       0.67768370       0.33967306 </v>
    <v>       0.48387854       0.32746984       0.32984679 </v>
    <v>       0.50111193       0.67443170       0.01641851 </v>
    <v>       0.52192789       0.03203388       0.66918106 </v>
    <v>       0.98584476       0.00939898       0.66710725 </v>
    <v>       0.72640037       0.81257525       0.80271249 </v>
    <v>       0.50387234       0.00008978       0.00222225 </v>
    <v>       0.74298031       0.83272573       0.19365110 </v>
    <v>       0.24389073       0.16452010       0.49725398 </v>
    <v>       0.02058039       0.32687902       0.34707972 </v>
    <v>       0.24288969       0.49828386       0.83224221 </v>
    <v>       0.25439015       0.83744622       0.17714332 </v>
    <v>       0.49226585       0.33055371       0.66847340 </v>
    <v>       0.25319451       0.49516623       0.49987301 </v>
    <v>       0.48719532       0.66581252       0.32274201 </v>
    <v>       0.47215551       0.63454182       0.66350010 </v>
    <v>       0.02104493       0.65674674       0.66191937 </v>
    <v>       0.00449493       0.99770737       0.33845343 </v>
    <v>       0.74345538       0.50277489       0.49924941 </v>
    <v>       0.99667107       0.99185189       0.99990966 </v>
    <v>       0.49991803       0.00974189       0.32818133 </v>
    <v>       0.26624863       0.83783066       0.50670477 </v>
    <v>       0.77937888       0.17723743       0.16651202 </v>
    <v>       0.99030584       0.68682047       0.00035187 </v>
    <v>       0.00337655       0.32890558       0.66409388 </v>
    <v>       0.76410207       0.17582719       0.48781829 </v>
    <v>       0.22713884       0.16446780       0.16813823 </v>
    <v>       0.75891526       0.18626458       0.84507463 </v>
    <v>       0.24589534       0.16752979       0.83464459 </v>
    <v>       0.02209112       0.32673702       0.98608121 </v>
    <v>       0.74245686       0.82709230       0.49946272 </v>
   </varray>
  </structure>
  <varray name="forces" >
   <v>       0.01757819       0.02695903       0.02768069 </v>
   <v>      -0.01078578       0.00556077      -0.00839021 </v>
   <v>      -0.03956031      -0.02316039       0.03416849 </v>
   <v>      -0.00290266      -0.00217589       0.00999300 </v>
   <v>       0.01226951       0.06503172       0.05491005 </v>
   <v>      -0.22382215       0.01666934       0.12120654 </v>
   <v>      -0.00050966       0.02427812      -0.01354591 </v>
   <v>      -0.02696594      -0.02027535      -0.02831900 </v>
   <v>       0.02726041      -0.13701835      -0.14496037 </v>
   <v>      -0.04964632      -0.12576197      -0.14224284 </v>
   <v>      -0.00245394      -0.00229438      -0.09065148 </v>
   <v>      -0.01172996       0.00514012      -0.01645582 </v>
   <v>       0.01979740       0.00975253      -0.03627636 </v>
   <v>       0.00864579      -0.03188556       0.01435305 </v>
   <v>      -0.01429508       0.02007763      -0.04047938 </v>
   <v>       0.03385777       0.07031569      -0.03910913 </v>
   <v>      -0.03487436      -0.01272129       0.03345052 </v>
   <v>      -0.01787335      -0.01622430       0.01853155 </v>
   <v>      -0.01822106       0.05446532       0.03970811 </v>
   <v>       0.16355315       0.11917243       0.19544326 </v>
   <v>       0.12145951       0.10567128      -0.12007547 </v>
   <v>      -0.12811724       0.11010405      -0.08136668 </v>
   <v>      -0.13246381      -0.05366757       0.12804096 </v>
   <v>       0.00499929      -0.03627559      -0.00438832 </v>
   <v>      -0.00767459      -0.00749501      -0.02471303 </v>
   <v>       0.12902293      -0.13944027       0.19223051 </v>
   <v>       0.01272994       0.02436224       0.01368630 </v>
   <v>      -0.02232836      -0.02592184      -0.01939724 </v>
   <v>       0.02462455      -0.00491152      -0.01733306 </v>
   <v>       0.00101251      -0.00124009       0.02737591 </v>
   <v>      -0.00966749       0.01988455      -0.00786131 </v>
   <v>       0.03533435      -0.05200293       0.04005813 </v>
   <v>      -0.00411144      -0.06806107      -0.01557298 </v>
   <v>       0.01063625      -0.02691471      -0.04163884 </v>
   <v>      -0.00057615       0.01769738       0.00458430 </v>
   <v>       0.13579809       0.09230588      -0.06264391 </v>
  </varray>
  <varray name="stress" >
   <v>       6.80378499      -0.00598409      -0.25267211 </v>
   <v>      -0.00598409       6.96657071      -0.08874601 </v>
   <v>      -0.25267215      -0.08874598       7.11608730 </v>
  </varray>
  <energy>
   <i name="e_fr_energy">   -366.91492864 </i>
   <i name="e_wo_entrp">   -366.92605312 </i>
   <i name="e_0_energy">      0.03337344 </i>
  </energy>
  <time name="totalsc">    8.29    8.76</time>
 </calculation>
 <calculation>
  <scstep>
   <time name="dav">    0.88    0.89</time>
   <time name="total">    1.09    1.20</time>
   <energy>
    <i name="alphaZ">   1337.22851064 </i>
    <i name="ewald"> -15581.97238735 </i>
    <i name="hartreedc">  -5924.56577109 </i>
    <i name="XCdc">   -675.44834307 </i>
    <i name="pawpsdc">  30441.30441427 </i>
    <i name="pawaedc"> -28665.90244677 </i>
    <i name="eentropy">      0.03313489 </i>
    <i name="bandstr">  -1965.34750804 </i>
    <i name="atom">  20667.72186136 </i>
    <i name="e_fr_energy">   -366.94853517 </i>
    <i name="e_wo_entrp">   -366.98167005 </i>
    <i name="e_0_energy">   -366.95958013 </i>
   </energy>
  </scstep>
  <scstep>
   <time name="diag">    0.07    0.07</time>
   <time name="diis">    0.76    0.76</time>
   <time name="orth">    0.01    0.01</time>
   <time name="total">    0.93    0.97</time>
   <energy>
    <i name="e_fr_energy">   -366.98788147 </i>
    <i name="e_wo_entrp">   -367.02080774 </i>
    <i name="e_0_energy">   -366.99885689 </i>
   </energy>
  </scstep>
  <scstep>
   <time name="diag">    0.08    0.08</time>
   <time name="diis">    0.74    0.74</time>
   <time name="orth">    0.01    0.01</time>
   <time name="total">    0.88    0.92</time>
   <energy>
    <i name="e_fr_energy">   -366.95291836 </i>
    <i name="e_wo_entrp">   -366.98662711 </i>
    <i name="e_0_energy">   -366.96415461 </i>
   </energy>
  </scstep>
  <scstep>
   <time name="diag">    0.07    0.07</time>
   <time name="diis">    0.82    0.83</time>
   <time name="orth">    0.01    0.01</time>
   <time name="total">    0.96    0.99</time>
   <energy>
    <i name="e_fr_energy">   -366.95112000 </i>
    <i name="e_wo_entrp">   -366.98466009 </i>
    <i name="e_0_energy">   -366.96230003 </i>
   </energy>
  </scstep>
  <scstep>
   <time name="diag">    0.07    0.07</time>
   <time name="diis">    0.74    0.74</time>
   <time name="orth">    0.01    0.01</time>
   <time name="total">    0.88    0.92</time>
   <energy>
    <i name="e_fr_energy">   -366.95024663 </i>
    <i name="e_wo_entrp">   -366.98389745 </i>
    <i name="e_0_energy">   -366.96146357 </i>
   </energy>
  </scstep>
  <scstep>
   <time name="diag">    0.07    0.07</time>
   <time name="diis">    0.84    0.84</time>
   <time name="orth">    0.01    0.01</time>
   <time name="total">    0.98    1.01</time>
   <energy>
    <i name="e_fr_energy">   -366.95012785 </i>
    <i name="e_wo_entrp">   -366.98372421 </i>
    <i name="e_0_energy">   -366.96132664 </i>
   </energy>
  </scstep>
  <scstep>
   <time name="diag">    0.07    0.07</time>
   <time name="diis">    0.82    0.82</time>
   <time name="orth">    0.01    0.01</time>
   <time name="total">    0.96    0.99</time>
   <energy>
    <i name="e_fr_energy">   -366.95010929 </i>
    <i name="e_wo_entrp">   -366.98372956 </i>
    <i name="e_0_energy">   -366.96131605 </i>
   </energy>
  </scstep>
  <scstep>
   <time name="diag">    0.07    0.07</time>
   <time name="diis">    0.64    0.65</time>
   <time name="orth">    0.01    0.01</time>
   <time name="total">    0.78    0.81</time>
   <energy>
    <i name="e_fr_energy">   -366.95012556 </i>
    <i name="e_wo_entrp">   -366.98371803 </i>
    <i name="e_0_energy">   -366.96132305 </i>
   </energy>
  </scstep>
  <scstep>
   <time name="diag">    0.07    0.07</time>
   <time name="diis">    0.71    0.71</time>
   <time name="orth">    0.01    0.01</time>
   <time name="total">    0.86    0.89</time>
   <energy>
    <i name="e_fr_energy">   -366.95013111 </i>
    <i name="e_wo_entrp">   -366.98372359 </i>
    <i name="e_0_energy">   -366.96132860 </i>
   </energy>
  </scstep>
  <scstep>
   <time name="diag">    0.07    0.07</time>
   <time name="diis">    0.49    0.49</time>
   <time name="orth">    0.01    0.01</time>
   <time name="total">    0.60    0.63</time>
   <energy>
    <i name="alphaZ">   1337.22851064 </i>
    <i name="ewald"> -15581.97238735 </i>
    <i name="hartreedc">  -5933.65453920 </i>
    <i name="XCdc">   -675.09574355 </i>
    <i name="pawpsdc">  30327.65691051 </i>
    <i name="pawaedc"> -28552.24734562 </i>
    <i name="eentropy">      0.03360775 </i>
    <i name="bandstr">  -1956.62100551 </i>
    <i name="atom">  20667.72186136 </i>
    <i name="e_fr_energy">   -366.95013097 </i>
    <i name="e_wo_entrp">   -366.98373872 </i>
    <i name="e_0_energy">   -366.96133355 </i>
   </energy>
  </scstep>
  <structure>
   <crystal>
    <varray name="basis" >
     <v>       6.95796875       0.01490896       0.00811379 </v>
     <v>       0.02256800      10.21315576       0.01688788 </v>
     <v>       0.01225367       0.01674101      10.24417215 </v>
    </varray>
    <i name="volume">    727.97332434 </i>
    <varray name="rec_basis" >
     <v>       0.14372098      -0.00031730      -0.00017139 </v>
     <v>      -0.00020962       0.09791366      -0.00015976 </v>
     <v>      -0.00011349      -0.00016116       0.09761688 </v>
    </varray>
   </crystal>
   <varray name="positions" >
    <v>       0.48160719       0.32369052       0.99997445 </v>
    <v>       0.76547132       0.49655320       0.16868088 </v>
    <v>       0.26850112       0.82874244       0.81935946 </v>
    <v>       0.75220889       0.49784259       0.83374185 </v>
    <v>       0.22222307       0.49626264       0.16328205 </v>
    <v>       0.00837766       0.67807365       0.34095380 </v>
    <v>       0.48397298       0.32768372       0.32983576 </v>
    <v>       0.50086184       0.67429433       0.01616099 </v>
    <v>       0.52247001       0.03066623       0.66792561 </v>
    <v>       0.98482732       0.00812546       0.66579660 </v>
    <v>       0.72637926       0.81255792       0.80149386 </v>
    <v>       0.50369132       0.00003799       0.00208783 </v>
    <v>       0.74322098       0.83275775       0.19384697 </v>
    <v>       0.24390304       0.16431695       0.49720334 </v>
    <v>       0.02028924       0.32701016       0.34690609 </v>
    <v>       0.24309869       0.49854651       0.83210902 </v>
    <v>       0.25406461       0.83747091       0.17711510 </v>
    <v>       0.49218048       0.33048020       0.66857092 </v>
    <v>       0.25287196       0.49535004       0.50007818 </v>
    <v>       0.48923696       0.66701380       0.32462861 </v>
    <v>       0.47391603       0.63555912       0.66253520 </v>
    <v>       0.01918276       0.65774394       0.66124624 </v>
    <v>       0.00255708       0.99696708       0.33984543 </v>
    <v>       0.74350985       0.50273311       0.49909604 </v>
    <v>       0.99666438       0.99182412       0.99979224 </v>
    <v>       0.50157651       0.00833007       0.32984490 </v>
    <v>       0.26670773       0.83811875       0.50659838 </v>
    <v>       0.77931986       0.17709224       0.16634370 </v>
    <v>       0.99061695       0.68673334       0.00030638 </v>
    <v>       0.00330572       0.32893255       0.66426331 </v>
    <v>       0.76419923       0.17603108       0.48774037 </v>
    <v>       0.22736255       0.16427248       0.16828508 </v>
    <v>       0.75895759       0.18600378       0.84512869 </v>
    <v>       0.24597137       0.16752334       0.83459243 </v>
    <v>       0.02209872       0.32685045       0.98597205 </v>
    <v>       0.74459575       0.82782351       0.49865619 </v>
   </varray>
  </structure>
  <varray name="forces" >
   <v>      -0.00538993       0.01634095       0.02869799 </v>
   <v>      -0.01552145       0.00183116      -0.01567867 </v>
   <v>      -0.02872212      -0.05262443      -0.00989470 </v>
   <v>      -0.01682221       0.00991855      -0.02008344 </v>
   <v>       0.03139255       0.09051769       0.09250196 </v>
   <v>      -0.05664645      -0.02810381       0.01276255 </v>
   <v>      -0.04383904       0.00052804      -0.02673646 </v>
   <v>      -0.02789979      -0.00382994       0.01015065 </v>
   <v>      -0.00401126      -0.01159272      -0.07675229 </v>
   <v>       0.01904937      -0.00602610      -0.06603275 </v>
   <v>      -0.01429218      -0.01744569       0.02770566 </v>
   <v>      -0.00997049       0.02423866      -0.00472301 </v>
   <v>       0.00066333       0.00481919      -0.10134292 </v>
   <v>      -0.00215275      -0.01813769       0.02865351 </v>
   <v>       0.03631643      -0.00707874      -0.03462570 </v>
   <v>       0.04731878       0.10310587      -0.08808783 </v>
   <v>      -0.02517131      -0.04026089       0.10684122 </v>
   <v>      -0.04856608      -0.01617890       0.02993503 </v>
   <v>       0.00969681       0.09368213       0.06771445 </v>
   <v>       0.09822253       0.05703777       0.04485004 </v>
   <v>      -0.00021084       0.00575346      -0.08043257 </v>
   <v>      -0.00603234       0.03147876      -0.05175273 </v>
   <v>      -0.02320600       0.03592469      -0.00122310 </v>
   <v>      -0.00801790      -0.07898733       0.03548577 </v>
   <v>      -0.00629338      -0.00449823      -0.02561628 </v>
   <v>       0.06079083      -0.03725667       0.09729340 </v>
   <v>      -0.04474476      -0.01492639       0.04621150 </v>
   <v>      -0.01662996      -0.02844597      -0.00202672 </v>
   <v>       0.01330518       0.01554464      -0.02094981 </v>
   <v>       0.03175541      -0.01918546       0.03110114 </v>
   <v>      -0.01101249       0.01611867      -0.01490879 </v>
   <v>       0.02105124      -0.06003255       0.07371352 </v>
   <v>      -0.00913109      -0.07656720      -0.04132273 </v>
   <v>       0.01290167      -0.03265793      -0.08213884 </v>
   <v>       0.02780138      -0.00446532       0.00992551 </v>
   <v>       0.01401834       0.05146170       0.02078544 </v>
  </varray>
  <varray name="stress" >
   <v>       2.50999024      -0.44589912      -0.78530724 </v>
   <v>      -0.44589913       2.31089990       0.26359365 </v>
   <v>      -0.78530725       0.26359364       3.23664912 </v>
  </varray>
  <energy>
   <i name="e_fr_energy">   -366.95013097 </i>
   <i name="e_wo_entrp">   -366.96133355 </i>
   <i name="e_0_energy">      0.03360775 </i>
  </energy>
  <time name="totalsc">   10.45   10.95</time>
 </calculation>
 <calculation>
  <scstep>
   <time name="dav">    0.88    0.95</time>
   <time name="total">    1.08    1.26</time>
   <energy>
    <i name="alphaZ">   1335.90544859 </i>
    <i name="ewald"> -15575.13459711 </i>
    <i name="hartreedc">  -5933.26839901 </i>
    <i name="XCdc">   -675.31586227 </i>
    <i name="pawpsdc">  30326.61008313 </i>
    <i name="pawaedc"> -28551.24894995 </i>
    <i name="eentropy">      0.03325899 </i>
    <i name="bandstr">  -1962.25578520 </i>
    <i name="atom">  20667.72186136 </i>
    <i name="e_fr_energy">   -366.95294146 </i>
    <i name="e_wo_entrp">   -366.98620045 </i>
    <i name="e_0_energy">   -366.96402779 </i>
   </energy>
  </scstep>
  <scstep>
   <time name="diag">    0.09    0.09</time>
   <time name="diis">    0.75    0.89</time>
   <time name="orth">    0.01    0.01</time>
   <time name="total">    0.93    1.14</time>
   <energy>
    <i name="e_fr_energy">   -366.95875191 </i>
    <i name="e_wo_entrp">   -366.99196926 </i>
    <i name="e_0_energy">   -366.96982436 </i>
   </energy>
  </scstep>
  <scstep>
   <time name="diag">    0.12    0.12</time>
   <time name="diis">    0.74    0.75</time>
   <time name="orth">    0.01    0.01</time>
   <time name="total">    0.97    1.00</time>
   <energy>
    <i name="e_fr_energy">   -366.95351605 </i>
    <i name="e_wo_entrp">   -366.98696241 </i>
    <i name="e_0_energy">   -366.96466484 </i>
   </energy>
  </scstep>
  <scstep>
   <time name="diag">    0.07    0.07</time>
   <time name="diis">    0.74    0.74</time>
   <time name="orth">    0.01    0.01</time>
   <time name="total">    0.88    0.91</time>
   <energy>
    <i name="e_fr_energy">   -366.95329866 </i>
    <i name="e_wo_entrp">   -366.98667387 </i>
    <i name="e_0_energy">   -366.96442373 </i>
   </energy>
  </scstep>
  <scstep>
   <time name="diag">    0.07    0.07</time>
   <time name="diis">    0.80    0.81</time>
   <time name="orth">    0.01    0.01</time>
   <time name="total">    0.96    0.99</time>
   <energy>
    <i name="e_fr_energy">   -366.95317377 </i>
    <i name="e_wo_entrp">   -366.98659690 </i>
    <i name="e_0_energy">   -366.96431481 </i>
   </energy>
  </scstep>
  <scstep>
   <time name="diag">    0.07    0.07</time>
   <time name="diis">    0.72    0.73</time>
   <time name="orth">    0.01    0.01</time>
   <time name="total">    0.86    0.91</time>
   <energy>
    <i name="e_fr_energy">   -366.95315985 </i>
    <i name="e_wo_entrp">   -366.98656202 </i>
    <i name="e_0_energy">   -366.96429391 </i>
   </energy>
  </scstep>
  <scstep>
   <time name="diag">    0.07    0.07</time>
   <time name="diis">    0.65    0.65</time>
   <time name="orth">    0.01    0.01</time>
   <time name="total">    0.79    0.82</time>
   <energy>
    <i name="e_fr_energy">   -366.95315430 </i>
    <i name="e_wo_entrp">   -366.98656286 </i>
    <i name="e_0_energy">   -366.96429049 </i>
   </energy>
  </scstep>
  <scstep>
   <time name="diag">    0.07    0.07</time>
   <time name="diis">    0.56    0.56</time>
   <time name="orth">    0.01    0.01</time>
   <time name="total">    0.67    0.70</time>
   <energy>
    <i name="alphaZ">   1335.90544859 </i>
    <i name="ewald"> -15575.13459711 </i>
    <i name="hartreedc">  -5936.73400750 </i>
    <i name="XCdc">   -675.18173808 </i>
    <i name="pawpsdc">  30284.40784940 </i>
[...]
       <r>    6.2071    1.0000 </r>
       <r>    6.2714    1.0000 </r>
       <r>    6.3031    1.0000 </r>
       <r>    6.3153    1.0000 </r>
       <r>    6.3812    1.0000 </r>
       <r>    6.4259    1.0000 </r>
       <r>    6.4621    1.0000 </r>
       <r>    6.5033    1.0000 </r>
       <r>    6.5495    1.0000 </r>
       <r>    6.5891    1.0002 </r>
       <r>    6.6203    1.0006 </r>
       <r>    6.6673    1.0023 </r>
       <r>    6.6965    1.0048 </r>
       <r>    6.7021    1.0055 </r>
       <r>    6.7071    1.0062 </r>
       <r>    6.7596    1.0174 </r>
       <r>    6.8021    1.0301 </r>
       <r>    6.8312    1.0354 </r>
       <r>    6.8762    1.0189 </r>
       <r>    6.8998    0.9878 </r>
       <r>    6.9345    0.9009 </r>
       <r>    6.9624    0.7931 </r>
       <r>    6.9819    0.6997 </r>
       <r>    7.0702    0.2264 </r>
       <r>    7.1135    0.0655 </r>
       <r>    7.1403    0.0068 </r>
       <r>    7.1596   -0.0179 </r>
       <r>    7.2145   -0.0345 </r>
       <r>    7.2510   -0.0253 </r>
       <r>    7.2687   -0.0199 </r>
       <r>    7.3202   -0.0077 </r>
       <r>    7.3311   -0.0060 </r>
       <r>    7.3695   -0.0023 </r>
       <r>    7.3946   -0.0011 </r>
       <r>    7.4403   -0.0003 </r>
       <r>    7.4778   -0.0001 </r>
       <r>    7.5441   -0.0000 </r>
       <r>    7.5879   -0.0000 </r>
       <r>    7.6241   -0.0000 </r>
       <r>    7.6790   -0.0000 </r>
       <r>    7.7648   -0.0000 </r>
       <r>    7.8004   -0.0000 </r>
       <r>    7.8210   -0.0000 </r>
       <r>    7.9290   -0.0000 </r>
       <r>    7.9972   -0.0000 </r>
       <r>    8.1407   -0.0000 </r>
       <r>    8.2593   -0.0000 </r>
       <r>    8.3796   -0.0000 </r>
       <r>    8.8653   -0.0000 </r>
      </set>
     </set>
    </set>
   </array>
  </eigenvalues>
  <separator name="orbital magnetization" >
   <v name="MAGDIPOLOUT">      0.00000000      0.00000000      0.00000000</v>
  </separator>
  <dos>
   <i name="efermi">      7.01845273 </i>
   <total>
    <array>
     <dimension dim="1">gridpoints</dimension>
     <dimension dim="2">spin</dimension>
     <field>energy</field>
     <field>total</field>
     <field>integrated</field>
     <set>
      <set comment="spin 1">
       <r>   -50.1331     0.0000     0.0000 </r>
       <r>   -49.9269     0.0000     0.0000 </r>
       <r>   -49.7207     0.0000     0.0000 </r>
       <r>   -49.5145     0.0000     0.0000 </r>
       <r>   -49.3083     0.0000     0.0000 </r>
       <r>   -49.1021     0.0000     0.0000 </r>
       <r>   -48.8959     0.0000     0.0000 </r>
       <r>   -48.6898    -0.0000    -0.0000 </r>
       <r>   -48.4836    -0.0000    -0.0000 </r>
       <r>   -48.2774    -0.0000    -0.0000 </r>
       <r>   -48.0712    -0.0000    -0.0000 </r>
       <r>   -47.8650    -0.0000    -0.0000 </r>
       <r>   -47.6588    -0.0349    -0.0072 </r>
       <r>   -47.4526    -0.5731    -0.1254 </r>
       <r>   -47.2464    15.4552     3.0614 </r>
       <r>   -47.0402    34.3915    10.1528 </r>
       <r>   -46.8340     9.5417    12.1202 </r>
       <r>   -46.6278    -0.5702    12.0026 </r>
       <r>   -46.4216    -0.0128    12.0000 </r>
       <r>   -46.2154    -0.0000    12.0000 </r>
       <r>   -46.0092    -0.0000    12.0000 </r>
       <r>   -45.8030     0.0000    12.0000 </r>
       <r>   -45.5968     0.0000    12.0000 </r>
       <r>   -45.3906     0.0000    12.0000 </r>
       <r>   -45.1844     0.0000    12.0000 </r>
       <r>   -44.9782     0.0000    12.0000 </r>
       <r>   -44.7720     0.0000    12.0000 </r>
       <r>   -44.5659     0.0000    12.0000 </r>
       <r>   -44.3597     0.0000    12.0000 </r>
       <r>   -44.1535     0.0000    12.0000 </r>
       <r>   -43.9473     0.0000    12.0000 </r>
       <r>   -43.7411     0.0000    12.0000 </r>
       <r>   -43.5349     0.0000    12.0000 </r>
       <r>   -43.3287     0.0000    12.0000 </r>
       <r>   -43.1225     0.0000    12.0000 </r>
       <r>   -42.9163     0.0000    12.0000 </r>
       <r>   -42.7101     0.0000    12.0000 </r>
       <r>   -42.5039    -0.0000    12.0000 </r>
       <r>   -42.2977    -0.0000    12.0000 </r>
       <r>   -42.0915    -0.0000    12.0000 </r>
       <r>   -41.8853    -0.0000    12.0000 </r>
       <r>   -41.6791    -0.0032    11.9993 </r>
       <r>   -41.4729    -0.4616    11.9042 </r>
       <r>   -41.2667     5.3693    13.0113 </r>
       <r>   -41.0605    37.1893    20.6795 </r>
       <r>   -40.8543    24.4747    25.7261 </r>
       <r>   -40.6481     1.5222    26.0400 </r>
       <r>   -40.4419    -0.1935    26.0001 </r>
       <r>   -40.2358    -0.0004    26.0000 </r>
       <r>   -40.0296    -0.0000    26.0000 </r>
       <r>   -39.8234    -0.0000    26.0000 </r>
       <r>   -39.6172     0.0000    26.0000 </r>
       <r>   -39.4110     0.0000    26.0000 </r>
       <r>   -39.2048     0.0000    26.0000 </r>
       <r>   -38.9986     0.0000    26.0000 </r>
       <r>   -38.7924     0.0000    26.0000 </r>
       <r>   -38.5862     0.0000    26.0000 </r>
       <r>   -38.3800     0.0000    26.0000 </r>
       <r>   -38.1738     0.0000    26.0000 </r>
       <r>   -37.9676     0.0000    26.0000 </r>
       <r>   -37.7614     0.0000    26.0000 </r>
       <r>   -37.5552     0.0000    26.0000 </r>
       <r>   -37.3490     0.0000    26.0000 </r>
       <r>   -37.1428     0.0000    26.0000 </r>
       <r>   -36.9366     0.0000    26.0000 </r>
       <r>   -36.7304     0.0000    26.0000 </r>
       <r>   -36.5242     0.0000    26.0000 </r>
       <r>   -36.3180     0.0000    26.0000 </r>
       <r>   -36.1119     0.0000    26.0000 </r>
       <r>   -35.9057     0.0000    26.0000 </r>
       <r>   -35.6995     0.0000    26.0000 </r>
       <r>   -35.4933     0.0000    26.0000 </r>
       <r>   -35.2871     0.0000    26.0000 </r>
       <r>   -35.0809     0.0000    26.0000 </r>
       <r>   -34.8747     0.0000    26.0000 </r>
       <r>   -34.6685     0.0000    26.0000 </r>
       <r>   -34.4623     0.0000    26.0000 </r>
       <r>   -34.2561     0.0000    26.0000 </r>
       <r>   -34.0499     0.0000    26.0000 </r>
       <r>   -33.8437     0.0000    26.0000 </r>
       <r>   -33.6375     0.0000    26.0000 </r>
       <r>   -33.4313     0.0000    26.0000 </r>
       <r>   -33.2251     0.0000    26.0000 </r>
       <r>   -33.0189     0.0000    26.0000 </r>
       <r>   -32.8127     0.0000    26.0000 </r>
       <r>   -32.6065     0.0000    26.0000 </r>
       <r>   -32.4003     0.0000    26.0000 </r>
       <r>   -32.1941     0.0000    26.0000 </r>
       <r>   -31.9879     0.0000    26.0000 </r>
       <r>   -31.7818     0.0000    26.0000 </r>
       <r>   -31.5756     0.0000    26.0000 </r>
       <r>   -31.3694     0.0000    26.0000 </r>
       <r>   -31.1632     0.0000    26.0000 </r>
       <r>   -30.9570     0.0000    26.0000 </r>
       <r>   -30.7508     0.0000    26.0000 </r>
       <r>   -30.5446     0.0000    26.0000 </r>
       <r>   -30.3384     0.0000    26.0000 </r>
       <r>   -30.1322     0.0000    26.0000 </r>
       <r>   -29.9260     0.0000    26.0000 </r>
       <r>   -29.7198     0.0000    26.0000 </r>
       <r>   -29.5136     0.0000    26.0000 </r>
       <r>   -29.3074     0.0000    26.0000 </r>
       <r>   -29.1012     0.0000    26.0000 </r>
       <r>   -28.8950     0.0000    26.0000 </r>
       <r>   -28.6888     0.0000    26.0000 </r>
       <r>   -28.4826     0.0000    26.0000 </r>
       <r>   -28.2764     0.0000    26.0000 </r>
       <r>   -28.0702     0.0000    26.0000 </r>
       <r>   -27.8640     0.0000    26.0000 </r>
       <r>   -27.6578     0.0000    26.0000 </r>
       <r>   -27.4517     0.0000    26.0000 </r>
       <r>   -27.2455     0.0000    26.0000 </r>
       <r>   -27.0393     0.0000    26.0000 </r>
       <r>   -26.8331     0.0000    26.0000 </r>
       <r>   -26.6269     0.0000    26.0000 </r>
       <r>   -26.4207     0.0000    26.0000 </r>
       <r>   -26.2145     0.0000    26.0000 </r>
       <r>   -26.0083     0.0000    26.0000 </r>
       <r>   -25.8021     0.0000    26.0000 </r>
       <r>   -25.5959     0.0000    26.0000 </r>
       <r>   -25.3897     0.0000    26.0000 </r>
       <r>   -25.1835     0.0000    26.0000 </r>
       <r>   -24.9773    -0.0000    26.0000 </r>
       <r>   -24.7711    -0.0000    26.0000 </r>
       <r>   -24.5649    -0.0000    26.0000 </r>
       <r>   -24.3587    -0.0000    26.0000 </r>
       <r>   -24.1525    -0.0000    26.0000 </r>
       <r>   -23.9463    -0.0341    25.9930 </r>
       <r>   -23.7401    -0.8212    25.8236 </r>
       <r>   -23.5339    16.4087    29.2070 </r>
       <r>   -23.3278    67.4748    43.1200 </r>
       <r>   -23.1216    60.2983    55.5532 </r>
       <r>   -22.9154    22.6658    60.2268 </r>
       <r>   -22.7092     9.0478    62.0924 </r>
       <r>   -22.5030    -0.4310    62.0035 </r>
       <r>   -22.2968    -0.0172    62.0000 </r>
       <r>   -22.0906    -0.0000    62.0000 </r>
       <r>   -21.8844    -0.0000    62.0000 </r>
       <r>   -21.6782     0.0000    62.0000 </r>
       <r>   -21.4720     0.0000    62.0000 </r>
       <r>   -21.2658     0.0000    62.0000 </r>
       <r>   -21.0596     0.0000    62.0000 </r>
       <r>   -20.8534    -0.0000    62.0000 </r>
       <r>   -20.6472    -0.0000    62.0000 </r>
       <r>   -20.4410    -0.0000    62.0000 </r>
       <r>   -20.2348    -0.0000    62.0000 </r>
       <r>   -20.0286    -0.0038    61.9992 </r>
       <r>   -19.8224    -0.3660    61.9238 </r>
       <r>   -19.6162     4.6451    62.8815 </r>
       <r>   -19.4100    22.4536    67.5114 </r>
       <r>   -19.2038    77.3307    83.4566 </r>
       <r>   -18.9977    73.8526    98.6846 </r>
       <r>   -18.7915    25.7205   103.9881 </r>
       <r>   -18.5853     0.1877   104.0268 </r>
       <r>   -18.3791    -0.1296   104.0000 </r>
       <r>   -18.1729    -0.0002   104.0000 </r>
       <r>   -17.9667    -0.0000   104.0000 </r>
       <r>   -17.7605    -0.0000   104.0000 </r>
       <r>   -17.5543     0.0000   104.0000 </r>
       <r>   -17.3481     0.0000   104.0000 </r>
       <r>   -17.1419     0.0000   104.0000 </r>
       <r>   -16.9357     0.0000   104.0000 </r>
       <r>   -16.7295     0.0000   104.0000 </r>
       <r>   -16.5233     0.0000   104.0000 </r>
       <r>   -16.3171     0.0000   104.0000 </r>
       <r>   -16.1109     0.0000   104.0000 </r>
       <r>   -15.9047     0.0000   104.0000 </r>
       <r>   -15.6985     0.0000   104.0000 </r>
       <r>   -15.4923     0.0000   104.0000 </r>
       <r>   -15.2861     0.0000   104.0000 </r>
       <r>   -15.0799     0.0000   104.0000 </r>
       <r>   -14.8738     0.0000   104.0000 </r>
       <r>   -14.6676     0.0000   104.0000 </r>
       <r>   -14.4614     0.0000   104.0000 </r>
       <r>   -14.2552     0.0000   104.0000 </r>
       <r>   -14.0490     0.0000   104.0000 </r>
       <r>   -13.8428     0.0000   104.0000 </r>
       <r>   -13.6366     0.0000   104.0000 </r>
       <r>   -13.4304     0.0000   104.0000 </r>
       <r>   -13.2242     0.0000   104.0000 </r>
       <r>   -13.0180     0.0000   104.0000 </r>
       <r>   -12.8118     0.0000   104.0000 </r>
       <r>   -12.6056     0.0000   104.0000 </r>
       <r>   -12.3994     0.0000   104.0000 </r>
       <r>   -12.1932     0.0000   104.0000 </r>
       <r>   -11.9870     0.0000   104.0000 </r>
       <r>   -11.7808     0.0000   104.0000 </r>
       <r>   -11.5746     0.0000   104.0000 </r>
       <r>   -11.3684     0.0000   104.0000 </r>
       <r>   -11.1622     0.0000   104.0000 </r>
       <r>   -10.9560     0.0000   104.0000 </r>
       <r>   -10.7498     0.0000   104.0000 </r>
       <r>   -10.5437     0.0000   104.0000 </r>
       <r>   -10.3375     0.0000   104.0000 </r>
       <r>   -10.1313     0.0000   104.0000 </r>
       <r>    -9.9251     0.0000   104.0000 </r>
       <r>    -9.7189     0.0000   104.0000 </r>
       <r>    -9.5127     0.0000   104.0000 </r>
       <r>    -9.3065     0.0000   104.0000 </r>
       <r>    -9.1003     0.0000   104.0000 </r>
       <r>    -8.8941     0.0000   104.0000 </r>
       <r>    -8.6879     0.0000   104.0000 </r>
       <r>    -8.4817     0.0000   104.0000 </r>
       <r>    -8.2755     0.0000   104.0000 </r>
       <r>    -8.0693     0.0000   104.0000 </r>
       <r>    -7.8631     0.0000   104.0000 </r>
       <r>    -7.6569     0.0000   104.0000 </r>
       <r>    -7.4507     0.0000   104.0000 </r>
       <r>    -7.2445     0.0000   104.0000 </r>
       <r>    -7.0383     0.0000   104.0000 </r>
       <r>    -6.8321     0.0000   104.0000 </r>
       <r>    -6.6259     0.0000   104.0000 </r>
       <r>    -6.4197     0.0000   104.0000 </r>
       <r>    -6.2136     0.0000   104.0000 </r>
       <r>    -6.0074     0.0000   104.0000 </r>
       <r>    -5.8012     0.0000   104.0000 </r>
       <r>    -5.5950     0.0000   104.0000 </r>
       <r>    -5.3888     0.0000   104.0000 </r>
       <r>    -5.1826     0.0000   104.0000 </r>
       <r>    -4.9764     0.0000   104.0000 </r>
       <r>    -4.7702     0.0000   104.0000 </r>
       <r>    -4.5640     0.0000   104.0000 </r>
       <r>    -4.3578     0.0000   104.0000 </r>
       <r>    -4.1516     0.0000   104.0000 </r>
       <r>    -3.9454     0.0000   104.0000 </r>
       <r>    -3.7392     0.0000   104.0000 </r>
       <r>    -3.5330     0.0000   104.0000 </r>
       <r>    -3.3268     0.0000   104.0000 </r>
       <r>    -3.1206     0.0000   104.0000 </r>
       <r>    -2.9144     0.0000   104.0000 </r>
       <r>    -2.7082     0.0000   104.0000 </r>
       <r>    -2.5020     0.0000   104.0000 </r>
       <r>    -2.2958     0.0000   104.0000 </r>
       <r>    -2.0897     0.0000   104.0000 </r>
       <r>    -1.8835     0.0000   104.0000 </r>
       <r>    -1.6773     0.0000   104.0000 </r>
       <r>    -1.4711     0.0000   104.0000 </r>
       <r>    -1.2649    -0.0000   104.0000 </r>
       <r>    -1.0587    -0.0000   104.0000 </r>
       <r>    -0.8525    -0.0000   104.0000 </r>
       <r>    -0.6463    -0.0000   104.0000 </r>
       <r>    -0.4401    -0.0000   104.0000 </r>
       <r>    -0.2339    -0.0009   103.9998 </r>
       <r>    -0.0277    -0.0076   103.9982 </r>
       <r>     0.1785     0.2588   104.0516 </r>
       <r>     0.3847     1.0869   104.2757 </r>
       <r>     0.5909     1.6152   104.6088 </r>
       <r>     0.7971     1.9971   105.0206 </r>
       <r>     1.0033     3.3054   105.7021 </r>
       <r>     1.2095     3.8770   106.5015 </r>
       <r>     1.4157     2.3643   106.9890 </r>
       <r>     1.6219     4.4820   107.9132 </r>
       <r>     1.8281     3.8373   108.7044 </r>
       <r>     2.0343     3.2300   109.3704 </r>
       <r>     2.2404     6.3494   110.6796 </r>
       <r>     2.4466     9.0943   112.5548 </r>
       <r>     2.6528     7.2661   114.0531 </r>
       <r>     2.8590     8.1113   115.7256 </r>
       <r>     3.0652     7.3724   117.2458 </r>
       <r>     3.2714    12.6317   119.8504 </r>
       <r>     3.4776    19.3911   123.8487 </r>
       <r>     3.6838    23.2154   128.6356 </r>
       <r>     3.8900    24.7401   133.7369 </r>
       <r>     4.0962    30.2525   139.9748 </r>
       <r>     4.3024    31.3823   146.4457 </r>
       <r>     4.5086    39.6356   154.6184 </r>
       <r>     4.7148    38.1969   162.4944 </r>
       <r>     4.9210    34.8197   169.6740 </r>
       <r>     5.1272    30.8177   176.0285 </r>
       <r>     5.3334    31.6599   182.5566 </r>
       <r>     5.5396    13.9982   185.4430 </r>
       <r>     5.7458    36.5829   192.9862 </r>
       <r>     5.9520    64.1468   206.2129 </r>
       <r>     6.1582    59.3330   218.4471 </r>
       <r>     6.3643    53.6680   229.5132 </r>
       <r>     6.5705    54.1878   240.6864 </r>
       <r>     6.7767    57.4037   252.5228 </r>
       <r>     6.9829    52.9064   263.4318 </r>
       <r>     7.1891    43.6417   272.4306 </r>
       <r>     7.3953    52.2279   283.1997 </r>
       <r>     7.6015    46.2089   292.7278 </r>
       <r>     7.8077    33.9165   299.7212 </r>
       <r>     8.0139    29.3245   305.7677 </r>
       <r>     8.2201    23.8557   310.6867 </r>
       <r>     8.4263    19.3400   314.6745 </r>
       <r>     8.6325    10.3914   316.8171 </r>
       <r>     8.8387    11.8465   319.2598 </r>
       <r>     9.0449     3.7755   320.0383 </r>
       <r>     9.2511    -0.1784   320.0015 </r>
       <r>     9.4573    -0.0075   320.0000 </r>
       <r>     9.6635    -0.0000   320.0000 </r>
       <r>     9.8697    -0.0000   320.0000 </r>
       <r>    10.0759     0.0000   320.0000 </r>
       <r>    10.2821     0.0000   320.0000 </r>
       <r>    10.4883     0.0000   320.0000 </r>
       <r>    10.6944     0.0000   320.0000 </r>
       <r>    10.9006     0.0000   320.0000 </r>
       <r>    11.1068     0.0000   320.0000 </r>
       <r>    11.3130     0.0000   320.0000 </r>
       <r>    11.5192     0.0000   320.0000 </r>
       <r>    11.7254     0.0000   320.0000 </r>
      </set>
     </set>
    </array>
   </total>
  </dos>
 </calculation>
 <structure name="finalpos" >
  <crystal>
   <varray name="basis" >
    <v>       6.95660345       0.00403066      -0.01075669 </v>
    <v>       0.00658857      10.20351092       0.03081033 </v>
    <v>      -0.01563150       0.03071626      10.27500280 </v>
   </varray>
   <i name="volume">    729.32940460 </i>
   <varray name="rec_basis" >
    <v>       0.14374870      -0.00009348       0.00021897 </v>
    <v>      -0.00005724       0.09800640      -0.00029307 </v>
    <v>       0.00015066      -0.00029398       0.09732468 </v>
   </varray>
  </crystal>
  <varray name="positions" >
   <v>       0.47648622       0.32795503      -0.00008764 </v>
   <v>       0.76665223       0.49383293       0.16518932 </v>
   <v>       0.26883443       0.82253521       0.81460392 </v>
   <v>       0.75243195       0.49835766       0.83462058 </v>
   <v>       0.22523657       0.50194067       0.17204857 </v>
   <v>      -0.00962925       0.67876575       0.34136127 </v>
   <v>       0.48101752       0.32471745       0.32962664 </v>
   <v>       0.49693346       0.67481443       0.01756440 </v>
   <v>       0.52027313       0.02854620       0.66826712 </v>
   <v>       0.98424767       0.00897011       0.66667524 </v>
   <v>       0.72919910       0.81385916       0.80704059 </v>
   <v>       0.49575822       0.00054921       0.00118464 </v>
   <v>       0.74479388       0.83835715       0.18382705 </v>
   <v>       0.24333967       0.16264788       0.49882445 </v>
   <v>       0.02281358       0.32481636       0.34496569 </v>
   <v>       0.24796525       0.50494953       0.82539908 </v>
   <v>       0.25410488       0.83428240       0.18512094 </v>
   <v>       0.49033405       0.32986781       0.67021251 </v>
   <v>       0.25387272       0.49690497       0.50018414 </v>
   <v>       0.50425232       0.67008027       0.32688515 </v>
   <v>       0.48530015       0.63880404       0.65581682 </v>
   <v>       0.01261708       0.65674191       0.65687733 </v>
   <v>      -0.00263220       0.99608302       0.33951707 </v>
   <v>       0.74435757       0.49491022       0.49736377 </v>
   <v>       0.00209300       0.99207375       0.99891701 </v>
   <v>       0.50436339       0.00617130       0.33321896 </v>
   <v>       0.25984144       0.83631249       0.50335975 </v>
   <v>       0.77505747       0.17398922       0.16274880 </v>
   <v>       0.00075688       0.68681537       0.00029028 </v>
   <v>       0.00610376       0.32809509       0.66650845 </v>
   <v>       0.76249876       0.17760251       0.48940139 </v>
   <v>       0.22587104       0.16367683       0.17030683 </v>
   <v>       0.75706665       0.18555871       0.84716896 </v>
   <v>       0.24530256       0.16949556       0.83320658 </v>
   <v>       0.02758669       0.32919214       0.98726141 </v>
   <v>       0.74489819       0.82774369       0.50452092 </v>
  </varray>
 </structure>
</modeling>
