       N       E                     dE             d eps       ncg     rms          rms(c)
DAV:   1     0.225231495299E+04    0.22523E+04   -0.12391E+05  5864   0.109E+03
DAV:   2    -0.448141869011E+02   -0.22971E+04   -0.22216E+04  6072   0.416E+02
DAV:   3    -0.332826644621E+03   -0.28801E+03   -0.27393E+03  9088   0.100E+02
DAV:   4    -0.367106612990E+03   -0.34280E+02   -0.32665E+02  9000   0.322E+01
DAV:   5    -0.370774337451E+03   -0.36677E+01   -0.35866E+01  8704   0.105E+01    0.616E+01
RMM:   6    -0.360164489100E+03    0.10610E+02   -0.23327E+01  7260   0.104E+01    0.287E+01
RMM:   7    -0.358375708209E+03    0.17888E+01   -0.19995E+01  7300   0.811E+00    0.724E+00
RMM:   8    -0.356456107774E+03    0.19196E+01   -0.34484E+00  8154   0.296E+00    0.405E+00
RMM:   9    -0.356443082736E+03    0.13025E-01   -0.12745E+00  8007   0.151E+00    0.286E+00
RMM:  10    -0.356346485600E+03    0.96597E-01   -0.31905E-01  7884   0.116E+00    0.105E+00
RMM:  11    -0.356336331108E+03    0.10154E-01   -0.11685E-01  7988   0.517E-01    0.573E-01
RMM:  12    -0.356333679887E+03    0.26512E-02   -0.34248E-02  8065   0.257E-01    0.339E-01
RMM:  13    -0.356333579185E+03    0.10070E-03   -0.14347E-02  8518   0.129E-01    0.220E-01
RMM:  14    -0.356333839735E+03   -0.26055E-03   -0.61910E-03  8618   0.822E-02    0.105E-01
RMM:  15    -0.356333985699E+03   -0.14596E-03   -0.28456E-03  8054   0.589E-02    0.411E-02
RMM:  16    -0.356334057755E+03   -0.72056E-04   -0.12579E-03  6669   0.316E-02    0.246E-02
RMM:  17    -0.356334083567E+03   -0.25812E-04   -0.54415E-04  5939   0.227E-02    0.123E-02
RMM:  18    -0.356334107789E+03   -0.24221E-04   -0.31062E-04  5765   0.170E-02    0.801E-03
RMM:  19    -0.356334115238E+03   -0.74493E-05   -0.11718E-04  5015   0.129E-02    0.413E-03
RMM:  20    -0.356334118983E+03   -0.37447E-05   -0.67098E-05  4345   0.105E-02
   1 F= -.35633412E+03 E0= -.35633784E+03  d E =-.356334E+03
       N       E                     dE             d eps       ncg     rms          rms(c)
DAV:   1    -0.356335118605E+03   -0.10034E-02   -0.45978E-02  6000   0.582E-01    0.538E-02
RMM:   2    -0.356335237275E+03   -0.11867E-03   -0.18622E-03  7338   0.121E-01    0.293E-02
RMM:   3    -0.356335235242E+03    0.20332E-05   -0.24883E-04  6868   0.357E-02    0.217E-02
RMM:   4    -0.356335230488E+03    0.47537E-05   -0.79875E-05  5181   0.131E-02
   2 F= -.35633523E+03 E0= -.35633896E+03  d E =-.111151E-02
       N       E                     dE             d eps       ncg     rms          rms(c)
DAV:   1    -0.356337113223E+03   -0.18780E-02   -0.41275E-01  5680   0.174E+00    0.162E-01
RMM:   2    -0.356338052191E+03   -0.93897E-03   -0.15471E-02  7341   0.357E-01    0.882E-02
RMM:   3    -0.356338061400E+03   -0.92092E-05   -0.23161E-03  7879   0.969E-02    0.663E-02
RMM:   4    -0.356338003296E+03    0.58104E-04   -0.58995E-04  8458   0.352E-02    0.367E-02
RMM:   5    -0.356338002740E+03    0.55626E-06   -0.23969E-04  6904   0.249E-02    0.199E-02
RMM:   6    -0.356338001549E+03    0.11903E-05   -0.97219E-05  5300   0.158E-02
   3 F= -.35633800E+03 E0= -.35634176E+03  d E =-.388257E-02
       N       E                     dE             d eps       ncg     rms          rms(c)
DAV:   1    -0.356337597477E+03    0.40526E-03   -0.16546E+00  5600   0.350E+00    0.323E-01
RMM:   2    -0.356341332352E+03   -0.37349E-02   -0.61651E-02  7315   0.714E-01    0.175E-01
RMM:   3    -0.356341306733E+03    0.25619E-04   -0.89224E-03  7917   0.194E-01    0.130E-01
RMM:   4    -0.356341098364E+03    0.20837E-03   -0.22681E-03  8927   0.689E-02    0.730E-02
RMM:   5    -0.356341099793E+03   -0.14290E-05   -0.98724E-04  8250   0.477E-02    0.409E-02
RMM:   6    -0.356341090806E+03    0.89865E-05   -0.36397E-04  7247   0.279E-02    0.193E-02
RMM:   7    -0.356341093826E+03   -0.30201E-05   -0.11622E-04  5336   0.159E-02    0.129E-02
RMM:   8    -0.356341097332E+03   -0.35057E-05   -0.66159E-05  4664   0.131E-02
   4 F= -.35634110E+03 E0= -.35634491E+03  d E =-.697835E-02
       N       E                     dE             d eps       ncg     rms          rms(c)
DAV:   1    -0.356340821382E+03    0.27244E-03   -0.27931E-01  5600   0.143E+00    0.133E-01
RMM:   2    -0.356341466744E+03   -0.64536E-03   -0.10539E-02  7396   0.294E-01    0.724E-02
RMM:   3    -0.356341469255E+03   -0.25108E-05   -0.15833E-03  7850   0.795E-02    0.533E-02
RMM:   4    -0.356341438716E+03    0.30539E-04   -0.43508E-04  7944   0.294E-02    0.300E-02
RMM:   5    -0.356341437970E+03    0.74551E-06   -0.16189E-04  6231   0.205E-02    0.165E-02
RMM:   6    -0.356341437786E+03    0.18434E-06   -0.76296E-05  4741   0.139E-02
   5 F= -.35634144E+03 E0= -.35634528E+03  d E =-.731880E-02
       N       E                     dE             d eps       ncg     rms          rms(c)
DAV:   1    -0.356343129612E+03   -0.16916E-02   -0.29421E-01  5584   0.156E+00    0.283E-01
RMM:   2    -0.356343176555E+03   -0.46943E-04   -0.15804E-02  7852   0.337E-01    0.123E-01
RMM:   3    -0.356342954633E+03    0.22192E-03   -0.21364E-03  7929   0.902E-02    0.884E-02
RMM:   4    -0.356342803715E+03    0.15092E-03   -0.69413E-04  7869   0.451E-02    0.512E-02
RMM:   5    -0.356342774251E+03    0.29464E-04   -0.28228E-04  7507   0.287E-02    0.345E-02
RMM:   6    -0.356342780426E+03   -0.61745E-05   -0.11466E-04  6312   0.174E-02    0.213E-02
RMM:   7    -0.356342783998E+03   -0.35718E-05   -0.46728E-05  4402   0.131E-02
   6 F= -.35634278E+03 E0= -.35634660E+03  d E =-.134621E-02
       N       E                     dE             d eps       ncg     rms          rms(c)
DAV:   1    -0.356345021184E+03   -0.22408E-02   -0.11567E+00  5424   0.310E+00    0.559E-01
RMM:   2    -0.356345224234E+03   -0.20305E-03   -0.61860E-02  7856   0.666E-01    0.241E-01
RMM:   3    -0.356344353814E+03    0.87042E-03   -0.83120E-03  7924   0.177E-01    0.172E-01
RMM:   4    -0.356343782557E+03    0.57126E-03   -0.27359E-03  7877   0.889E-02    0.998E-02
RMM:   5    -0.356343674128E+03    0.10843E-03   -0.11383E-03  8079   0.569E-02    0.675E-02
RMM:   6    -0.356343694919E+03   -0.20792E-04   -0.46688E-04  7700   0.336E-02    0.419E-02
RMM:   7    -0.356343705870E+03   -0.10951E-04   -0.19354E-04  6287   0.225E-02    0.218E-02
RMM:   8    -0.356343719325E+03   -0.13456E-04   -0.84769E-05  5709   0.159E-02    0.141E-02
RMM:   9    -0.356343726613E+03   -0.72877E-05   -0.37995E-05  4479   0.132E-02
   7 F= -.35634373E+03 E0= -.35634749E+03  d E =-.228883E-02
       N       E                     dE             d eps       ncg     rms          rms(c)
DAV:   1    -0.356344653007E+03   -0.93368E-03   -0.89474E-02  5752   0.882E-01    0.203E-01
RMM:   2    -0.356344622845E+03    0.30162E-04   -0.59775E-03  7779   0.207E-01    0.806E-02
RMM:   3    -0.356344489725E+03    0.13312E-03   -0.94208E-04  7899   0.625E-02    0.589E-02
RMM:   4    -0.356344418858E+03    0.70867E-04   -0.28398E-04  7897   0.304E-02    0.344E-02
RMM:   5    -0.356344402871E+03    0.15987E-04   -0.10894E-04  6838   0.181E-02    0.248E-02
RMM:   6    -0.356344397832E+03    0.50387E-05   -0.40560E-05  4226   0.116E-02
   8 F= -.35634440E+03 E0= -.35634816E+03  d E =-.671219E-03
       N       E                     dE             d eps       ncg     rms          rms(c)
DAV:   1    -0.356347353343E+03   -0.29505E-02   -0.80125E-01  5536   0.264E+00    0.591E-01
RMM:   2    -0.356346991255E+03    0.36209E-03   -0.51429E-02  7650   0.608E-01    0.230E-01
RMM:   3    -0.356345783217E+03    0.12080E-02   -0.74961E-03  7895   0.184E-01    0.164E-01
RMM:   4    -0.356345216564E+03    0.56665E-03   -0.22057E-03  8082   0.862E-02    0.967E-02
RMM:   5    -0.356345105148E+03    0.11142E-03   -0.86746E-04  8198   0.499E-02    0.714E-02
RMM:   6    -0.356345096196E+03    0.89525E-05   -0.36056E-04  7527   0.302E-02    0.463E-02
RMM:   7    -0.356345078609E+03    0.17587E-04   -0.16514E-04  6687   0.213E-02    0.217E-02
RMM:   8    -0.356345077577E+03    0.10315E-05   -0.69888E-05  5030   0.153E-02
   9 F= -.35634508E+03 E0= -.35634884E+03  d E =-.135096E-02
       N       E                     dE             d eps       ncg     rms          rms(c)
DAV:   1    -0.356345385428E+03   -0.30682E-03   -0.23905E-02  5664   0.445E-01    0.589E-02
RMM:   2    -0.356345398961E+03   -0.13533E-04   -0.11019E-03  7745   0.926E-02    0.318E-02
RMM:   3    -0.356345390783E+03    0.81783E-05   -0.18836E-04  7132   0.277E-02    0.230E-02
RMM:   4    -0.356345378680E+03    0.12103E-04   -0.66669E-05  5718   0.140E-02    0.110E-02
RMM:   5    -0.356345376615E+03    0.20653E-05   -0.21583E-05  3542   0.932E-03
  10 F= -.35634538E+03 E0= -.35634913E+03  d E =-.299037E-03
       N       E                     dE             d eps       ncg     rms          rms(c)
DAV:   1    -0.356346094042E+03   -0.71536E-03   -0.21397E-01  5472   0.133E+00    0.176E-01
RMM:   2    -0.356346208073E+03   -0.11403E-03   -0.97400E-03  7646   0.275E-01    0.920E-02
RMM:   3    -0.356346145719E+03    0.62355E-04   -0.16370E-03  7891   0.825E-02    0.640E-02
RMM:   4    -0.356346051007E+03    0.94712E-04   -0.54947E-04  8062   0.385E-02    0.275E-02
RMM:   5    -0.356346049089E+03    0.19177E-05   -0.19051E-04  5877   0.220E-02    0.159E-02
RMM:   6    -0.356346050193E+03   -0.11041E-05   -0.90927E-05  5051   0.146E-02
  11 F= -.35634605E+03 E0= -.35634977E+03  d E =-.972616E-03
       N       E                     dE             d eps       ncg     rms          rms(c)
DAV:   1    -0.356346404425E+03   -0.35534E-03   -0.85643E-01  5376   0.267E+00    0.352E-01
RMM:   2    -0.356346847393E+03   -0.44297E-03   -0.38869E-02  7651   0.551E-01    0.184E-01
RMM:   3    -0.356346599241E+03    0.24815E-03   -0.65000E-03  7914   0.164E-01    0.129E-01
RMM:   4    -0.356346219883E+03    0.37936E-03   -0.21694E-03  8088   0.765E-02    0.558E-02
RMM:   5    -0.356346221505E+03   -0.16221E-05   -0.88638E-04  7625   0.443E-02    0.331E-02
RMM:   6    -0.356346220538E+03    0.96711E-06   -0.31299E-04  6513   0.253E-02    0.169E-02
RMM:   7    -0.356346225419E+03   -0.48803E-05   -0.11357E-04  5595   0.159E-02    0.109E-02
RMM:   8    -0.356346228487E+03   -0.30680E-05   -0.48354E-05  4682   0.118E-02
  12 F= -.35634623E+03 E0= -.35634986E+03  d E =-.115091E-02
       N       E                     dE             d eps       ncg     rms          rms(c)
DAV:   1    -0.356346422382E+03   -0.19696E-03   -0.14536E-01  5424   0.110E+00    0.145E-01
RMM:   2    -0.356346473177E+03   -0.50795E-04   -0.63645E-03  7371   0.226E-01    0.747E-02
RMM:   3    -0.356346414565E+03    0.58611E-04   -0.96033E-04  7826   0.673E-02    0.520E-02
RMM:   4    -0.356346345091E+03    0.69474E-04   -0.30352E-04  7841   0.300E-02    0.222E-02
RMM:   5    -0.356346341437E+03    0.36538E-05   -0.10130E-04  5685   0.171E-02    0.125E-02
RMM:   6    -0.356346341355E+03    0.81905E-07   -0.41976E-05  4233   0.108E-02
  13 F= -.35634634E+03 E0= -.35635001E+03  d E =-.126378E-02
       N       E                     dE             d eps       ncg     rms          rms(c)
DAV:   1    -0.356348738065E+03   -0.23966E-02   -0.13767E-01  6688   0.123E+00    0.426E-01
RMM:   2    -0.356347576676E+03    0.11614E-02   -0.16057E-02  7880   0.333E-01    0.158E-01
RMM:   3    -0.356346822933E+03    0.75374E-03   -0.28762E-03  8141   0.954E-02    0.106E-01
RMM:   4    -0.356346560585E+03    0.26235E-03   -0.87185E-04  8074   0.594E-02    0.614E-02
RMM:   5    -0.356346503138E+03    0.57446E-04   -0.27645E-04  7580   0.349E-02    0.443E-02
RMM:   6    -0.356346518427E+03   -0.15289E-04   -0.11337E-04  6587   0.190E-02    0.310E-02
RMM:   7    -0.356346534100E+03   -0.15673E-04   -0.42035E-05  4140   0.134E-02    0.152E-02
RMM:   8    -0.356346542554E+03   -0.84541E-05   -0.27960E-05  3655   0.118E-02
  14 F= -.35634654E+03 E0= -.35635015E+03  d E =-.201199E-03
       N       E                     dE             d eps       ncg     rms          rms(c)
DAV:   1    -0.356346569075E+03   -0.34975E-04   -0.62964E-04  7712   0.807E-02    0.338E-02
RMM:   2    -0.356346571799E+03   -0.27242E-05   -0.97459E-05  6770   0.235E-02
  15 F= -.35634657E+03 E0= -.35635018E+03  d E =-.230444E-03
       N       E                     dE             d eps       ncg     rms          rms(c)
DAV:   1    -0.356346645107E+03   -0.76033E-04   -0.10261E-01  5504   0.934E-01    0.857E-02
RMM:   2    -0.356346869423E+03   -0.22432E-03   -0.40369E-03  7314   0.189E-01    0.444E-02
RMM:   3    -0.356346861297E+03    0.81256E-05   -0.48741E-04  7605   0.527E-02    0.327E-02
RMM:   4    -0.356346842278E+03    0.19019E-04   -0.14428E-04  6620   0.193E-02    0.160E-02
RMM:   5    -0.356346842382E+03   -0.10416E-06   -0.45506E-05  4186   0.112E-02
  16 F= -.35634684E+03 E0= -.35635041E+03  d E =-.270584E-03
       N       E                     dE             d eps       ncg     rms          rms(c)
DAV:   1    -0.356346560584E+03    0.28169E-03   -0.24252E-01  5376   0.143E+00    0.132E-01
RMM:   2    -0.356347117412E+03   -0.55683E-03   -0.97534E-03  7451   0.291E-01    0.706E-02
RMM:   3    -0.356347103844E+03    0.13569E-04   -0.12854E-03  7834   0.808E-02    0.539E-02
RMM:   4    -0.356347052420E+03    0.51423E-04   -0.36693E-04  8469   0.307E-02    0.267E-02
RMM:   5    -0.356347054801E+03   -0.23802E-05   -0.13641E-04  5840   0.207E-02    0.152E-02
RMM:   6    -0.356347054587E+03    0.21348E-06   -0.69352E-05  4815   0.140E-02
  17 F= -.35634705E+03 E0= -.35635055E+03  d E =-.482788E-03
       N       E                     dE             d eps       ncg     rms          rms(c)
DAV:   1    -0.356349544502E+03   -0.24897E-02   -0.11131E-01  7192   0.115E+00    0.430E-01
RMM:   2    -0.356348319044E+03    0.12255E-02   -0.16125E-02  7948   0.319E-01    0.163E-01
RMM:   3    -0.356347498697E+03    0.82035E-03   -0.29352E-03  8171   0.905E-02    0.105E-01
RMM:   4    -0.356347234515E+03    0.26418E-03   -0.87511E-04  8036   0.603E-02    0.617E-02
RMM:   5    -0.356347159261E+03    0.75253E-04   -0.28343E-04  7815   0.346E-02    0.448E-02
RMM:   6    -0.356347154470E+03    0.47907E-05   -0.10694E-04  6866   0.183E-02    0.318E-02
RMM:   7    -0.356347144292E+03    0.10178E-04   -0.47988E-05  4286   0.130E-02    0.147E-02
RMM:   8    -0.356347141598E+03    0.26939E-05   -0.27347E-05  3586   0.118E-02
  18 F= -.35634714E+03 E0= -.35635065E+03  d E =-.870110E-04
       N       E                     dE             d eps       ncg     rms          rms(c)
DAV:   1    -0.356347401654E+03   -0.25736E-03   -0.10237E-02  7264   0.347E-01    0.134E-01
RMM:   2    -0.356347278821E+03    0.12283E-03   -0.15514E-03  7830   0.973E-02    0.526E-02
RMM:   3    -0.356347203363E+03    0.75458E-04   -0.30151E-04  7312   0.290E-02    0.355E-02
RMM:   4    -0.356347175957E+03    0.27406E-04   -0.84489E-05  6299   0.204E-02    0.207E-02
RMM:   5    -0.356347167704E+03    0.82529E-05   -0.21735E-05  3041   0.135E-02
  19 F= -.35634717E+03 E0= -.35635067E+03  d E =-.113117E-03
       N       E                     dE             d eps       ncg     rms          rms(c)
DAV:   1    -0.356347202493E+03   -0.26536E-04   -0.17000E-03  6952   0.146E-01    0.493E-02
RMM:   2    -0.356347182048E+03    0.20445E-04   -0.22617E-04  7439   0.389E-02    0.193E-02
RMM:   3    -0.356347170154E+03    0.11894E-04   -0.31931E-05  4607   0.112E-02    0.142E-02
RMM:   4    -0.356347168289E+03    0.18656E-05   -0.80968E-06  2802   0.975E-03
  20 F= -.35634717E+03 E0= -.35635067E+03  d E =-.113702E-03
       N       E                     dE             d eps       ncg     rms          rms(c)
DAV:   1    -0.356347202730E+03   -0.32576E-04   -0.21760E-03  7096   0.162E-01    0.572E-02
RMM:   2    -0.356347175868E+03    0.26863E-04   -0.32030E-04  7642   0.465E-02    0.222E-02
RMM:   3    -0.356347159984E+03    0.15883E-04   -0.46026E-05  5760   0.128E-02    0.156E-02
RMM:   4    -0.356347156305E+03    0.36791E-05   -0.11455E-05  2784   0.106E-02
  21 F= -.35634716E+03 E0= -.35635066E+03  d E =-.101718E-03
       N       E                     dE             d eps       ncg     rms          rms(c)
DAV:   1    -0.356347211477E+03   -0.51492E-04   -0.33118E-02  5424   0.540E-01    0.566E-02
RMM:   2    -0.356347279821E+03   -0.68344E-04   -0.14326E-03  7268   0.109E-01    0.269E-02
RMM:   3    -0.356347274563E+03    0.52577E-05   -0.15413E-04  6892   0.307E-02    0.200E-02
RMM:   4    -0.356347268897E+03    0.56658E-05   -0.42055E-05  4488   0.124E-02
  22 F= -.35634727E+03 E0= -.35635076E+03  d E =-.112592E-03
