 vasp.5.4.1 05Feb16 (build Jan 29 2020 16:04:39) complex                        
  
 executed on           IFC91_ompi date 2020.06.15  12:24:33
 running on  160 total cores
 distrk:  each k-point on   20 cores,    8 groups
 distr:  one band on NCORES_PER_BAND=   5 cores,    4 groups


--------------------------------------------------------------------------------------------------------


 INCAR:
 POTCAR:    PAW_PBE Nb_sv 25May2007               
 POTCAR:    PAW_PBE Ta 17Jan2003                  
 POTCAR:    PAW_PBE Hf 20Jan2003                  
 POTCAR:    PAW_PBE Zr_sv 04Jan2005               

 ----------------------------------------------------------------------------- 
|                                                                             |
|           W    W    AA    RRRRR   N    N  II  N    N   GGGG   !!!           |
|           W    W   A  A   R    R  NN   N  II  NN   N  G    G  !!!           |
|           W    W  A    A  R    R  N N  N  II  N N  N  G       !!!           |
|           W WW W  AAAAAA  RRRRR   N  N N  II  N  N N  G  GGG   !            |
|           WW  WW  A    A  R   R   N   NN  II  N   NN  G    G                |
|           W    W  A    A  R    R  N    N  II  N    N   GGGG   !!!           |
|                                                                             |
|      For optimal performance we recommend to set                            |
|        NCORE= 4 - approx SQRT( number of cores)                             |
|      NCORE specifies how many cores store one orbital (NPAR=cpu/NCORE).     |
|      This setting can  greatly improve the performance of VASP for DFT.     |
|      The default, NPAR=number of cores might be grossly inefficient         |
|      on modern multi-core architectures or massively parallel machines.     |
|      Do your own testing !!!!                                               |
|      Unfortunately you need to use the default for GW and RPA calculations. |
|      (for HF NCORE is supported but not extensively tested yet)             |
|                                                                             |
 ----------------------------------------------------------------------------- 


 ----------------------------------------------------------------------------- 
|                                                                             |
|           W    W    AA    RRRRR   N    N  II  N    N   GGGG   !!!           |
|           W    W   A  A   R    R  NN   N  II  NN   N  G    G  !!!           |
|           W    W  A    A  R    R  N N  N  II  N N  N  G       !!!           |
|           W WW W  AAAAAA  RRRRR   N  N N  II  N  N N  G  GGG   !            |
|           WW  WW  A    A  R   R   N   NN  II  N   NN  G    G                |
|           W    W  A    A  R    R  N    N  II  N    N   GGGG   !!!           |
|                                                                             |
|      You have enabled k-point parallelism (KPAR>1).                         |
|      This developmental code was originally  written by Paul Kent at ORNL,  |
|      and carefully double checked in Vienna.                                |
|      GW as well as linear response parallelism added by Martijn Marsman     |
|      and Georg Kresse.                                                      |
|      Carefully verify results versus KPAR=1.                                |
|      Report problems to Paul Kent and Vienna.                               |
|                                                                             |
 ----------------------------------------------------------------------------- 

 POTCAR:    PAW_PBE Nb_sv 25May2007               
   VRHFIN =Nb: 4p5s4d                                                           
   LEXCH  = PE                                                                  
   EATOM  =  1555.1913 eV,  114.3033 Ry                                         
                                                                                
   TITEL  = PAW_PBE Nb_sv 25May2007                                             
   LULTRA =        F    use ultrasoft PP ?                                      
   IUNSCR =        1    unscreen: 0-lin 1-nonlin 2-no                           
   RPACOR =    1.800    partial core radius                                     
   POMASS =   92.910; ZVAL   =   13.000    mass and valenz                      
   RCORE  =    2.400    outmost cutoff radius                                   
   RWIGS  =    2.400; RWIGS  =    1.270    wigner-seitz radius (au A)           
   ENMAX  =  293.235; ENMIN  =  219.927 eV                                      
   ICORE  =        3    local potential                                         
   LCOR   =        T    correct aug charges                                     
   LPAW   =        T    paw PP                                                  
   EAUG   =  455.659                                                            
   DEXC   =    0.000                                                            
   RMAX   =    2.456    core radius for proj-oper                               
   RAUG   =    1.300    factor for augmentation sphere                          
   RDEP   =    2.451    radius for radial grids                                 
   RDEPT  =    1.956    core radius for aug-charge                              
                                                                                
   Atomic configuration                                                         
   11 entries                                                                   
     n  l   j            E        occ.                                          
     1  0  0.50    -18805.2457   2.0000                                         
     2  0  0.50     -2630.2869   2.0000                                         
     2  1  1.50     -2348.4046   6.0000                                         
     3  0  0.50      -438.8757   2.0000                                         
     3  1  1.50      -346.7588   6.0000                                         
     3  2  2.50      -196.2560  10.0000                                         
     4  0  0.50       -58.3859   2.0000                                         
     5  0  0.50        -3.9816   1.0000                                         
     4  1  1.50       -34.5141   6.0000                                         
     4  2  2.50        -3.0408   4.0000                                         
     4  3  2.50        -1.3606   0.0000                                         
   Description                                                                  
     l       E           TYP  RCUT    TYP  RCUT                                 
     0    -58.3859094     23  2.200                                             
     0     -3.9816262     23  2.200                                             
     1    -34.5140738     23  2.200                                             
     1     13.6058260     23  2.200                                             
     2     -3.0408010     23  2.200                                             
     2     -0.1283038     23  2.200                                             
     3     -1.3605826     23  2.400                                             
  local pseudopotential read in
  partial core-charges read in
  partial kinetic energy density read in
  atomic valenz-charges read in
  non local Contribution for L=           0  read in
    real space projection operators read in
  non local Contribution for L=           0  read in
    real space projection operators read in
  non local Contribution for L=           1  read in
    real space projection operators read in
  non local Contribution for L=           1  read in
    real space projection operators read in
  non local Contribution for L=           2  read in
    real space projection operators read in
  non local Contribution for L=           2  read in
    real space projection operators read in
    PAW grid and wavefunctions read in
 
   number of l-projection  operators is LMAX  =           6
   number of lm-projection operators is LMMAX =          18
 
 POTCAR:    PAW_PBE Ta 17Jan2003                  
   VRHFIN =Ta:  6s5d                                                            
   LEXCH  = PE                                                                  
   EATOM  =   130.6506 eV,    9.6025 Ry                                         
                                                                                
   TITEL  = PAW_PBE Ta 17Jan2003                                                
   LULTRA =        F    use ultrasoft PP ?                                      
   IUNSCR =        1    unscreen: 0-lin 1-nonlin 2-no                           
   RPACOR =    2.330    partial core radius                                     
   POMASS =  180.948; ZVAL   =    5.000    mass and valenz                      
   RCORE  =    2.900    outmost cutoff radius                                   
   RWIGS  =    2.840; RWIGS  =    1.503    wigner-seitz radius (au A)           
   ENMAX  =  223.667; ENMIN  =  167.750 eV                                      
   RCLOC  =    2.205    cutoff for local pot                                    
   LCOR   =        T    correct aug charges                                     
   LPAW   =        T    paw PP                                                  
   EAUG   =  332.075                                                            
   DEXC   =    0.000                                                            
   RMAX   =    2.970    core radius for proj-oper                               
   RAUG   =    1.300    factor for augmentation sphere                          
   RDEP   =    3.060    radius for radial grids                                 
   RDEPT  =    2.354    core radius for aug-charge                              
                                                                                
   Atomic configuration                                                         
   16 entries                                                                   
     n  l   j            E        occ.                                          
     1  0  0.50    -67341.2807   2.0000                                         
     2  0  0.50    -11566.9376   2.0000                                         
     2  1  1.50    -10134.1182   6.0000                                         
     3  0  0.50     -2648.5620   2.0000                                         
     3  1  1.50     -2222.6012   6.0000                                         
     3  2  2.50     -1726.3120  10.0000                                         
     4  0  0.50      -538.6961   2.0000                                         
     4  1  1.50      -399.0129   6.0000                                         
     4  2  2.50      -220.3959  10.0000                                         
     4  3  3.50       -23.0374  14.0000                                         
     5  0  0.50       -71.2901   2.0000                                         
     5  1  1.50       -37.8225   6.0000                                         
     5  2  2.50        -2.6455   4.0000                                         
     6  0  0.50        -4.9623   1.0000                                         
     6  1  1.50        -1.3606   0.0000                                         
     5  3  2.50        -1.3606   0.0000                                         
   Description                                                                  
     l       E           TYP  RCUT    TYP  RCUT                                 
     2     -2.6455043     23  2.500                                             
     2     -0.6258895     23  2.500                                             
     0     -4.9622780     23  2.500                                             
     0      4.7531321     23  2.500                                             
     1     -1.3605826     23  2.900                                             
     1     27.2116520     23  2.900                                             
  local pseudopotential read in
  partial core-charges read in
  partial kinetic energy density read in
  atomic valenz-charges read in
  non local Contribution for L=           2  read in
    real space projection operators read in
  non local Contribution for L=           2  read in
    real space projection operators read in
  non local Contribution for L=           0  read in
    real space projection operators read in
  non local Contribution for L=           0  read in
    real space projection operators read in
  non local Contribution for L=           1  read in
    real space projection operators read in
  non local Contribution for L=           1  read in
    real space projection operators read in
    PAW grid and wavefunctions read in
 
   number of l-projection  operators is LMAX  =           6
   number of lm-projection operators is LMMAX =          18
 
 POTCAR:    PAW_PBE Hf 20Jan2003                  
   VRHFIN =Hf: 6s5d                                                             
   LEXCH  = PE                                                                  
   EATOM  =    75.9011 eV,    5.5786 Ry                                         
                                                                                
   TITEL  = PAW_PBE Hf 20Jan2003                                                
   LULTRA =        F    use ultrasoft PP ?                                      
   IUNSCR =        1    unscreen: 0-lin 1-nonlin 2-no                           
   RPACOR =    2.500    partial core radius                                     
   POMASS =  178.490; ZVAL   =    4.000    mass and valenz                      
   RCORE  =    3.000    outmost cutoff radius                                   
   RWIGS  =    3.050; RWIGS  =    1.614    wigner-seitz radius (au A)           
   ENMAX  =  220.334; ENMIN  =  165.250 eV                                      
   RCLOC  =    2.212    cutoff for local pot                                    
   LCOR   =        T    correct aug charges                                     
   LPAW   =        T    paw PP                                                  
   EAUG   =  335.116                                                            
   DEXC   =    0.000                                                            
   RMAX   =    3.077    core radius for proj-oper                               
   RAUG   =    1.300    factor for augmentation sphere                          
   RDEP   =    3.047    radius for radial grids                                 
   RDEPT  =    2.344    core radius for aug-charge                              
                                                                                
   Atomic configuration                                                         
   16 entries                                                                   
     n  l   j            E        occ.                                          
     1  0  0.50    -65259.4397   2.0000                                         
     2  0  0.50    -11157.9882   2.0000                                         
     2  1  1.50     -9795.2113   6.0000                                         
     3  0  0.50     -2541.4058   2.0000                                         
     3  1  1.50     -2134.4770   6.0000                                         
     3  2  2.50     -1653.5418  10.0000                                         
     4  0  0.50      -510.9575   2.0000                                         
     4  1  1.50      -377.5023   6.0000                                         
     4  2  2.50      -205.2085  10.0000                                         
     4  3  3.50       -15.4905  14.0000                                         
     5  0  0.50       -65.6020   2.0000                                         
     5  1  1.50       -34.2798   6.0000                                         
     5  2  2.50        -1.9877   3.0000                                         
     6  0  0.50        -4.7357   1.0000                                         
     6  1  1.50        -1.3606   0.0000                                         
     5  3  2.50        -1.3606   0.0000                                         
   Description                                                                  
     l       E           TYP  RCUT    TYP  RCUT                                 
     2     -1.9876627     23  2.500                                             
     2      0.0744703     23  2.500                                             
     0     -4.7356889     23  2.600                                             
     0      3.2364747     23  2.600                                             
     1     -1.3605826     23  3.000                                             
     1     27.2116520     23  3.000                                             
  local pseudopotential read in
  partial core-charges read in
  partial kinetic energy density read in
  atomic valenz-charges read in
  non local Contribution for L=           2  read in
    real space projection operators read in
  non local Contribution for L=           2  read in
    real space projection operators read in
  non local Contribution for L=           0  read in
    real space projection operators read in
  non local Contribution for L=           0  read in
    real space projection operators read in
  non local Contribution for L=           1  read in
    real space projection operators read in
  non local Contribution for L=           1  read in
    real space projection operators read in
    PAW grid and wavefunctions read in
 
   number of l-projection  operators is LMAX  =           6
   number of lm-projection operators is LMMAX =          18
 
 POTCAR:    PAW_PBE Zr_sv 04Jan2005               
   VRHFIN =Zr: 4s4p5s4d                                                         
   LEXCH  = PE                                                                  
   EATOM  =  1284.2219 eV,   94.3876 Ry                                         
                                                                                
   TITEL  = PAW_PBE Zr_sv 04Jan2005                                             
   LULTRA =        F    use ultrasoft PP ?                                      
   IUNSCR =        1    unscreen: 0-lin 1-nonlin 2-no                           
   RPACOR =    2.200    partial core radius                                     
   POMASS =   91.224; ZVAL   =   12.000    mass and valenz                      
   RCORE  =    2.500    outmost cutoff radius                                   
   RWIGS  =    3.070; RWIGS  =    1.625    wigner-seitz radius (au A)           
   ENMAX  =  229.898; ENMIN  =  172.424 eV                                      
   ICORE  =        3    local potential                                         
   LCOR   =        T    correct aug charges                                     
   LPAW   =        T    paw PP                                                  
   EAUG   =  461.257                                                            
   DEXC   =    0.000                                                            
   RMAX   =    2.561    core radius for proj-oper                               
   RAUG   =    1.300    factor for augmentation sphere                          
   RDEP   =    2.597    radius for radial grids                                 
   RDEPT  =    2.007    core radius for aug-charge                              
                                                                                
   Atomic configuration                                                         
   11 entries                                                                   
     n  l   j            E        occ.                                          
     1  0  0.50    -17820.0161   2.0000                                         
     2  0  0.50     -2467.0882   2.0000                                         
     2  1  1.50     -2199.6095   6.0000                                         
     3  0  0.50      -402.4863   2.0000                                         
     3  1  1.50      -315.3675   6.0000                                         
     3  2  2.50      -172.4472  10.0000                                         
     4  0  0.50       -52.4146   2.0000                                         
     5  0  0.50        -3.8421   1.0000                                         
     4  1  1.50       -30.5054   6.0000                                         
     4  2  2.50        -2.3341   3.0000                                         
     4  3  2.50        -1.3606   0.0000                                         
   Description                                                                  
     l       E           TYP  RCUT    TYP  RCUT                                 
     0    -52.4145962     23  2.200                                             
     0     -3.8421270     23  2.500                                             
     1    -30.5053914     23  2.200                                             
     1     20.4087390     23  2.200                                             
     2     -2.3340816     23  2.500                                             
     2     -0.6120942     23  2.500                                             
     3     -4.0817478     23  2.500                                             
  local pseudopotential read in
  partial core-charges read in
  partial kinetic energy density read in
  atomic valenz-charges read in
  non local Contribution for L=           0  read in
    real space projection operators read in
  non local Contribution for L=           0  read in
    real space projection operators read in
  non local Contribution for L=           1  read in
    real space projection operators read in
  non local Contribution for L=           1  read in
    real space projection operators read in
  non local Contribution for L=           2  read in
    real space projection operators read in
  non local Contribution for L=           2  read in
    real space projection operators read in
    PAW grid and wavefunctions read in
 
   number of l-projection  operators is LMAX  =           6
   number of lm-projection operators is LMMAX =          18
 
 Optimization of the real space projectors (new method)

 maximal supplied QI-value         = 15.68
 optimisation between [QCUT,QGAM] = [  8.78, 17.72] = [ 21.60, 87.97] Ry 
 Optimized for a Real-space Cutoff    1.96 Angstroem

   l    n(q)    QCUT    max X(q) W(low)/X(q) W(high)/X(q)  e(spline) 
   0     10     8.783    10.201    0.29E-04    0.25E-05    0.69E-07
   0     10     8.783     8.174    0.45E-04    0.57E-05    0.14E-06
   1     10     8.783     3.488    0.76E-05    0.24E-04    0.95E-07
   1     10     8.783     4.917    0.78E-04    0.14E-03    0.46E-06
   2      9     8.783   153.744    0.22E-03    0.34E-04    0.15E-05
   2      9     8.783   126.342    0.22E-03    0.35E-04    0.15E-05
 Optimization of the real space projectors (new method)

 maximal supplied QI-value         = 12.85
 optimisation between [QCUT,QGAM] = [  8.87, 17.73] = [ 22.01, 88.06] Ry 
 Optimized for a Real-space Cutoff    1.90 Angstroem

   l    n(q)    QCUT    max X(q) W(low)/X(q) W(high)/X(q)  e(spline) 
   2      9     8.867    62.315    0.23E-03    0.62E-04    0.11E-05
   2      9     8.867    52.185    0.23E-03    0.62E-04    0.11E-05
   0     10     8.867   103.837    0.15E-04    0.23E-04    0.98E-07
   0     10     8.867    59.728    0.12E-04    0.21E-04    0.89E-07
   1     10     8.867    13.958    0.50E-04    0.22E-04    0.14E-06
   1     10     8.867     8.441    0.36E-04    0.19E-04    0.98E-07
 Optimization of the real space projectors (new method)

 maximal supplied QI-value         = 12.47
 optimisation between [QCUT,QGAM] = [  8.86, 17.71] = [ 21.96, 87.83] Ry 
 Optimized for a Real-space Cutoff    1.90 Angstroem

   l    n(q)    QCUT    max X(q) W(low)/X(q) W(high)/X(q)  e(spline) 
   2      9     8.855    48.111    0.22E-03    0.80E-04    0.10E-05
   2      9     8.855    40.545    0.21E-03    0.76E-04    0.95E-06
   0     10     8.855   121.658    0.27E-04    0.12E-04    0.11E-06
   0     10     8.855    71.177    0.22E-04    0.11E-04    0.99E-07
   1     10     8.855    14.183    0.65E-04    0.10E-03    0.98E-07
   1     10     8.855     8.257    0.43E-04    0.73E-04    0.72E-07
 Optimization of the real space projectors (new method)

 maximal supplied QI-value         = 15.12
 optimisation between [QCUT,QGAM] = [  8.77, 17.69] = [ 21.53, 87.61] Ry 
 Optimized for a Real-space Cutoff    1.74 Angstroem

   l    n(q)    QCUT    max X(q) W(low)/X(q) W(high)/X(q)  e(spline) 
   0      9     8.768    12.107    0.28E-04    0.53E-06    0.29E-07
   0      9     8.768     9.948    0.36E-04    0.50E-05    0.64E-07
   1      9     8.768     3.563    0.14E-04    0.16E-04    0.88E-07
   1      9     8.768     4.524    0.21E-03    0.33E-03    0.19E-06
   2      8     8.768    87.261    0.19E-03    0.25E-03    0.24E-06
   2      8     8.768    70.950    0.19E-03    0.24E-03    0.24E-06
  PAW_PBE Nb_sv 25May2007               :
 energy of atom  1       EATOM=-1555.1913
 kinetic energy error for atom=    0.0655 (will be added to EATOM!!)
  PAW_PBE Ta 17Jan2003                  :
 energy of atom  2       EATOM= -130.6506
 kinetic energy error for atom=    0.0121 (will be added to EATOM!!)
  PAW_PBE Hf 20Jan2003                  :
 energy of atom  3       EATOM=  -75.9011
 kinetic energy error for atom=    0.0071 (will be added to EATOM!!)
  PAW_PBE Zr_sv 04Jan2005               :
 energy of atom  4       EATOM=-1284.2219
 kinetic energy error for atom=    0.0483 (will be added to EATOM!!)
 
 
 POSCAR: generated by pypospack                  
  positions in direct lattice
  No initial velocities read in
 exchange correlation table for  LEXCH =        8
   RHO(1)=    0.500       N(1)  =     2000
   RHO(2)=  100.500       N(2)  =     4000
 


--------------------------------------------------------------------------------------------------------


 ion  position               nearest neighbor table
   1  0.262  0.171  0.175-  17 2.81   9 2.83  11 2.96  28 2.97  22 2.98   6 2.98   5 2.99  29 3.02
                            21 3.18  32 3.24  18 3.42
   2  0.020  0.671  0.657-   8 2.79  35 2.86  26 2.92  15 2.97  27 3.00  34 3.04  36 3.04  20 3.05
                            19 3.31
   3  0.541  0.664  0.006-   4 2.76  12 2.81  24 2.91  36 2.94  34 2.99  23 3.00  18 3.00  27 3.03
                            20 3.03
   4  0.721  0.832  0.177-   3 2.76  14 2.80  11 2.82  23 2.89  28 2.90  16 2.91  17 3.08  24 3.13
                            29 3.20  26 3.35
   5  0.507  0.343  0.342-  12 2.76  32 2.90  35 2.91  15 2.92  18 2.96  21 2.98   1 2.99  30 3.03
                            33 3.23
   6  0.985  0.343  0.316-  12 2.76  15 2.87  35 2.91  32 2.93  18 2.97   1 2.98  21 3.00  30 3.03
                            22 3.17
   7  0.014  0.328  0.683-  10 2.81  36 2.86  31 2.92  21 2.95  35 2.99  20 3.02  30 3.05  15 3.15
                            22 3.27  33 3.36
   8  0.237  0.830  0.490-   2 2.79  11 2.87  13 2.89  25 2.92  14 2.92  28 2.95  16 2.96  19 2.96
                            26 3.30  24 3.36  35 3.44
   9  0.486  0.321  0.998-   1 2.83  10 2.84  32 2.87  20 2.96  18 2.97  31 2.98  12 3.10  17 3.16
                            36 3.17  22 3.35  33 3.44
  10  0.249  0.168  0.834-   7 2.81  13 2.82   9 2.84  17 2.86  29 2.93  22 2.93  25 2.93  33 3.00

  11  0.490  0.992  0.339-   4 2.82   8 2.87  24 2.95   1 2.96  32 3.00  21 3.01  26 3.03  30 3.10
                            25 3.23  28 3.45
  12  0.730  0.496  0.179-   5 2.76   6 2.76   3 2.81  14 2.88  23 2.90  16 2.92   9 3.10  22 3.12
                            15 3.22  18 3.24  32 3.31  36 3.62
  13  0.038  0.999  0.672-  10 2.82   8 2.89  21 2.92  34 2.98  27 2.99  25 3.02  26 3.05  31 3.06
                            30 3.12  29 3.39  28 3.65
  14  0.512  0.668  0.346-   4 2.80  12 2.88  15 2.90   8 2.92  24 2.97  26 2.97  18 3.02  35 3.04
                            19 3.08  16 3.29
  15  0.769  0.504  0.494-  16 2.83   6 2.87  14 2.90   5 2.92  19 2.96   2 2.97  33 3.08   7 3.15
                            35 3.20  12 3.22  36 3.35  26 3.43  30 3.47
  16  0.983  0.669  0.326-  15 2.83   4 2.91  12 2.92  26 2.93   8 2.96  35 2.99  24 3.05  18 3.06
                            23 3.10  14 3.29  28 3.30
  17  0.479  0.014  0.005-   1 2.81  10 2.86  24 2.91  32 2.93  27 2.97  31 2.99   4 3.08   9 3.16
                            34 3.20  29 3.28  25 3.56  29 3.72
  18  0.267  0.504  0.168-   5 2.96   9 2.97   6 2.97   3 3.00  14 3.02  22 3.04  16 3.06  23 3.08
                            12 3.24  24 3.25  20 3.29  35 3.29   1 3.42
  19  0.493  0.663  0.648-   8 2.96  15 2.96  26 2.99  35 3.01  20 3.02  27 3.04  14 3.08  36 3.10
                            34 3.14   2 3.31  33 3.36  25 3.46
  20  0.258  0.509  0.845-   9 2.96  22 3.00   7 3.02  19 3.02   3 3.03   2 3.05  33 3.06  23 3.14
                            27 3.22  18 3.29  36 3.49  36 3.52  35 3.62
  21  0.229  0.174  0.487-  13 2.92   7 2.95   5 2.98   6 3.00  25 3.00  11 3.01  33 3.05  28 3.05
                             1 3.18  30 3.26  35 3.29  30 3.74
  22  0.008  0.330  0.005-  10 2.93   1 2.98  20 3.00  32 3.04  18 3.04  36 3.08  31 3.08  12 3.12
                             6 3.17   7 3.27   9 3.35  29 3.35  23 3.47
  23  0.968  0.667  0.021-   4 2.89  12 2.90   3 3.00  24 3.02  36 3.03  18 3.08  34 3.08  16 3.10
                            20 3.14  27 3.15  29 3.47  22 3.47
  24  0.274  0.820  0.161-   3 2.91  17 2.91  11 2.95  14 2.97  28 3.02  23 3.02  16 3.05  29 3.09
                             4 3.13  27 3.22  18 3.25   8 3.36
  25  0.469  0.999  0.655-   8 2.92  10 2.93  21 3.00  27 3.01  13 3.02  26 3.06  30 3.10  34 3.11
                            31 3.13  11 3.23  33 3.46  19 3.46  17 3.56
  26  0.766  0.838  0.505-   2 2.92  16 2.93  28 2.96  14 2.97  19 2.99  11 3.03  13 3.05  25 3.06
                            34 3.24   8 3.30   4 3.35  30 3.38  15 3.43
  27  0.262  0.822  0.845-  17 2.97  13 2.99   2 3.00  25 3.01  29 3.03   3 3.03  19 3.04  23 3.15
                            24 3.22  20 3.22  34 3.45  34 3.56
  28  0.999  0.990  0.315-   4 2.90   8 2.95  26 2.96   1 2.97  24 3.02  21 3.05  32 3.06  30 3.09
                            29 3.16  16 3.30  11 3.45  13 3.65
  29  0.011  0.003  0.005-  10 2.93   1 3.02  27 3.03  31 3.04  34 3.08  24 3.09  32 3.13  28 3.16
                             4 3.20  17 3.28  22 3.35  13 3.39  23 3.47  17 3.72
  30  0.763  0.167  0.501-  33 3.02   6 3.03   5 3.03   7 3.05  28 3.09  25 3.10  11 3.10  13 3.12
                            21 3.26  31 3.35  32 3.37  26 3.38  15 3.47  21 3.74
  31  0.749  0.161  0.830-   7 2.92   9 2.98  17 2.99  29 3.04  13 3.06  33 3.07  22 3.08  25 3.13
                            34 3.31  30 3.35  36 3.46  32 3.47
  32  0.726  0.173  0.171-   9 2.87   5 2.90  17 2.93   6 2.93  11 3.00  22 3.04  28 3.06  29 3.13
                             1 3.24  12 3.31  30 3.37  31 3.47
  33  0.494  0.335  0.660-  10 3.00  36 3.02  30 3.02  35 3.04  21 3.05  20 3.06  31 3.07  15 3.08
                             5 3.23  19 3.36   7 3.36   9 3.44  25 3.46
  34  0.755  0.839  0.823-  13 2.98   3 2.99   2 3.04  23 3.08  29 3.08  25 3.11  19 3.14  17 3.20
                            26 3.24  31 3.31  27 3.45  36 3.50  27 3.56
  35  0.227  0.495  0.490-   2 2.86   6 2.91   5 2.91  16 2.99   7 2.99  19 3.01  33 3.04  14 3.04
                            15 3.20  18 3.29  21 3.29   8 3.44  20 3.62
  36  0.760  0.498  0.824-   7 2.86   3 2.94  33 3.02  23 3.03   2 3.04  22 3.08  19 3.10   9 3.17
                            15 3.35  31 3.46  20 3.49  34 3.50  20 3.52  12 3.62
 
  LATTYP: Found a triclinic cell.
 ALAT       =    14.4589880909
 B/A-ratio  =     0.7100401545
 C/A-ratio  =     1.4838240546
 COS(alpha) =     0.0003430368
 COS(beta)  =     0.6654908611
 COS(gamma) =     0.7105097589
  
  Lattice vectors:
  
 A1 = (  -0.0533200456,  10.2704164941, -10.1773296412)
 A2 = (  -0.0044894790,  10.2664607642,  -0.0028383484)
 A3 = (   6.8965630489,   0.0047588477, -20.3159300435)


Analysis of symmetry for initial positions (statically):
=====================================================================
 Subroutine PRICEL returns:
 Original cell was already a primitive cell.
 

 Routine SETGRP: Setting up the symmetry group for a 
 triclinic supercell.


 Subroutine GETGRP returns: Found  1 space group operations
 (whereof  1 operations were pure point group operations)
 out of a pool of  2 trial point group operations.


The static configuration has the point symmetry C_1 .


Analysis of symmetry for dynamics (positions and initial velocities):
=====================================================================
 Subroutine PRICEL returns:
 Original cell was already a primitive cell.
 

 Routine SETGRP: Setting up the symmetry group for a 
 triclinic supercell.


 Subroutine GETGRP returns: Found  1 space group operations
 (whereof  1 operations were pure point group operations)
 out of a pool of  2 trial point group operations.


The dynamic configuration has the point symmetry C_1 .


 Subroutine INISYM returns: Found  1 space group operations
 (whereof  1 operations are pure point group operations),
 and found     1 'primitive' translations

 
 
 KPOINTS: k-points                                

Automatic generation of k-mesh.
Space group operators:
 irot       det(A)        alpha          n_x          n_y          n_z        tau_x        tau_y        tau_z
    1     1.000000     0.000000     1.000000     0.000000     0.000000     0.000000     0.000000     0.000000
 
 Subroutine IBZKPT returns following result:
 ===========================================
 
 Found     14 irreducible k-points:
 
 Following reciprocal coordinates:
            Coordinates               Weight
  0.000000  0.000000  0.000000      1.000000
  0.333333 -0.000000  0.000000      2.000000
  0.000000  0.333333  0.000000      2.000000
  0.333333  0.333333  0.000000      2.000000
 -0.333333  0.333333  0.000000      2.000000
 -0.000000  0.000000  0.333333      2.000000
  0.333333  0.000000  0.333333      2.000000
 -0.333333  0.000000  0.333333      2.000000
 -0.000000  0.333333  0.333333      2.000000
  0.333333  0.333333  0.333333      2.000000
 -0.333333  0.333333  0.333333      2.000000
 -0.000000 -0.333333  0.333333      2.000000
  0.333333 -0.333333  0.333333      2.000000
 -0.333333 -0.333333  0.333333      2.000000
 
 Following cartesian coordinates:
            Coordinates               Weight
  0.000000  0.000000  0.000000      1.000000
  0.237740  0.000104 -0.001141      2.000000
  0.000073  0.161961  0.000063      2.000000
  0.237813  0.162065 -0.001078      2.000000
 -0.237667  0.161858  0.001204      2.000000
 -0.000772  0.000045  0.163429      2.000000
  0.236968  0.000148  0.162288      2.000000
 -0.238512 -0.000059  0.164570      2.000000
 -0.000700  0.162006  0.163492      2.000000
  0.237041  0.162110  0.162351      2.000000
 -0.238440  0.161903  0.164633      2.000000
 -0.000845 -0.161917  0.163366      2.000000
  0.236895 -0.161813  0.162226      2.000000
 -0.238585 -0.162020  0.164507      2.000000
 


--------------------------------------------------------------------------------------------------------




 Dimension of arrays:
   k-points           NKPTS =     14   k-points in BZ     NKDIM =     14   number of bands    NBANDS=    192
   number of dos      NEDOS =    301   number of ions     NIONS =     36
   non local maximal  LDIM  =      6   non local SUM 2l+1 LMDIM =     18
   total plane-waves  NPLWV = 144000
   max r-space proj   IRMAX =   6271   max aug-charges    IRDMAX=  13615
   dimension x,y,z NGX =    40 NGY =   60 NGZ =   60
   dimension x,y,z NGXF=    80 NGYF=  120 NGZF=  120
   support grid    NGXF=    80 NGYF=  120 NGZF=  120
   ions per type =              11   6  10   9
 NGX,Y,Z   is equivalent  to a cutoff of   9.51,  9.72,  9.80 a.u.
 NGXF,Y,Z  is equivalent  to a cutoff of  19.02, 19.43, 19.61 a.u.


 I would recommend the setting:
   dimension x,y,z NGX =    40 NGY =   58 NGZ =   57
 SYSTEM =  automatically generated by mexm         
 POSCAR =  generated by pypospack                  

 Startparameter for this run:
   NWRITE =      2    write-flag & timer
   PREC   = accura    normal or accurate (medium, high low for compatibility)
   ISTART =      0    job   : 0-new  1-cont  2-samecut
   ICHARG =      2    charge: 1-file 2-atom 10-const
   ISPIN  =      1    spin polarized calculation?
   LNONCOLLINEAR =      F non collinear calculations
   LSORBIT =      F    spin-orbit coupling
   INIWAV =      1    electr: 0-lowe 1-rand  2-diag
   LASPH  =      F    aspherical Exc in radial PAW
   METAGGA=      F    non-selfconsistent MetaGGA calc.

 Electronic Relaxation 1
   ENCUT  =  300.0 eV  22.05 Ry    4.70 a.u.   9.88 14.50 14.37*2*pi/ulx,y,z
   ENINI  =  300.0     initial cutoff
   ENAUG  =  461.3 eV  augmentation charge cutoff
   NELM   =     70;   NELMIN=  2; NELMDL= -5     # of ELM steps 
   EDIFF  = 0.1E-04   stopping-criterion for ELM
   LREAL  =      T    real-space projection
   NLSPLINE    = F    spline interpolate recip. space projectors
   LCOMPAT=      F    compatible to vasp.4.4
   GGA_COMPAT  = T    GGA compatible to vasp.4.4-vasp.4.6
   LMAXPAW     = -100 max onsite density
   LMAXMIX     =    2 max onsite mixed and CHGCAR
   VOSKOWN=      0    Vosko Wilk Nusair interpolation
   ROPT   =   -0.00025  -0.00025  -0.00025  -0.00025
 Ionic relaxation
   EDIFFG = -.1E-01   stopping-criterion for IOM
   NSW    =    300    number of steps for IOM
   NBLOCK =      1;   KBLOCK =    300    inner block; outer block 
   IBRION =      2    ionic relax: 0-MD 1-quasi-New 2-CG
   NFREE  =      1    steps in history (QN), initial steepest desc. (CG)
   ISIF   =      3    stress and relaxation
   IWAVPR =     11    prediction:  0-non 1-charg 2-wave 3-comb
   ISYM   =      1    0-nonsym 1-usesym 2-fastsym
   LCORR  =      T    Harris-Foulkes like correction to forces

   POTIM  = 0.1500    time-step for ionic-motion
   TEIN   =    0.0    initial temperature
   TEBEG  =    0.0;   TEEND  =   0.0 temperature during run
   SMASS  =  -3.00    Nose mass-parameter (am)
   estimated Nose-frequenzy (Omega)   =  0.10E-29 period in steps =****** mass=  -0.112E-26a.u.
   SCALEE = 1.0000    scale energy and forces
   NPACO  =    256;   APACO  = 16.0  distance and # of slots for P.C.
   PSTRESS=    0.0 pullay stress

  Mass of Ions in am
   POMASS =  92.91180.95178.49 91.22
  Ionic Valenz
   ZVAL   =  13.00  5.00  4.00 12.00
  Atomic Wigner-Seitz radii
   RWIGS  =  -1.00 -1.00 -1.00 -1.00
  virtual crystal weights 
   VCA    =   1.00  1.00  1.00  1.00
   NELECT =     321.0000    total number of electrons
   NUPDOWN=      -1.0000    fix difference up-down

 DOS related values:
   EMIN   =  10.00;   EMAX   =-10.00  energy-range for DOS
   EFERMI =   0.00
   ISMEAR =     1;   SIGMA  =   0.15  broadening in eV -4-tet -1-fermi 0-gaus

 Electronic relaxation 2 (details)
   IALGO  =     68    algorithm
   LDIAG  =      T    sub-space diagonalisation (order eigenvalues)
   LSUBROT=      F    optimize rotation matrix (better conditioning)
   TURBO    =      0    0=normal 1=particle mesh
   IRESTART =      0    0=no restart 2=restart with 2 vectors
   NREBOOT  =      0    no. of reboots
   NMIN     =      0    reboot dimension
   EREF     =   0.00    reference energy to select bands
   IMIX   =      4    mixing-type and parameters
     AMIX     =   0.40;   BMIX     =  1.00
     AMIX_MAG =   1.60;   BMIX_MAG =  1.00
     AMIN     =   0.10
     WC   =   100.;   INIMIX=   1;  MIXPRE=   1;  MAXMIX= -45

 Intra band minimization:
   WEIMIN = 0.0010     energy-eigenvalue tresh-hold
   EBREAK =  0.13E-07  absolut break condition
   DEPER  =   0.30     relativ break condition  

   TIME   =   0.40     timestep for ELM

  volume/ion in A,a.u.               =      20.29       136.95
  Fermi-wavevector in a.u.,A,eV,Ry     =   1.244578  2.351912 21.075081  1.548975
  Thomas-Fermi vector in A             =   2.378839
 
 Write flags
   LWAVE  =      F    write WAVECAR
   LCHARG =      F    write CHGCAR
   LVTOT  =      F    write LOCPOT, total local potential
   LVHAR  =      F    write LOCPOT, Hartree potential only
   LELF   =      F    write electronic localiz. function (ELF)
   LORBIT =      0    0 simple, 1 ext, 2 COOP (PROOUT)


 Dipole corrections
   LMONO  =      F    monopole corrections only (constant potential shift)
   LDIPOL =      F    correct potential (dipole corrections)
   IDIPOL =      0    1-x, 2-y, 3-z, 4-all directions 
   EPSILON=  1.0000000 bulk dielectric constant

 Exchange correlation treatment:
   GGA     =    --    GGA type
   LEXCH   =     8    internal setting for exchange type
   VOSKOWN=      0    Vosko Wilk Nusair interpolation
   LHFCALC =     F    Hartree Fock is set to
   LHFONE  =     F    Hartree Fock one center treatment
   AEXX    =    0.0000 exact exchange contribution

 Linear response parameters
   LEPSILON=     F    determine dielectric tensor
   LRPA    =     F    only Hartree local field effects (RPA)
   LNABLA  =     F    use nabla operator in PAW spheres
   LVEL    =     F    velocity operator in full k-point grid
   LINTERFAST=   F  fast interpolation
   KINTER  =     0    interpolate to denser k-point grid
   CSHIFT  =0.1000    complex shift for real part using Kramers Kronig
   OMEGAMAX=  -1.0    maximum frequency
   DEG_THRESHOLD= 0.2000000E-02 threshold for treating states as degnerate
   RTIME   =    0.100 relaxation time in fs

 Orbital magnetization related:
   ORBITALMAG=     F  switch on orbital magnetization
   LCHIMAG   =     F  perturbation theory with respect to B field
   DQ        =  0.001000  dq finite difference perturbation B field



--------------------------------------------------------------------------------------------------------


 conjugate gradient relaxation of ions
 charge density and potential will be updated during run
 non-spin polarized calculation
 RMM-DIIS sequential band-by-band and
  variant of blocked Davidson during initial phase
 perform sub-space diagonalisation
    before iterative eigenvector-optimisation
 modified Broyden-mixing scheme, WC =      100.0
 initial mixing is a Kerker type mixing with AMIX =  0.4000 and BMIX =      1.0000
 Hartree-type preconditioning will be used
 using additional bands           31
 real space projection scheme for non local part
 use partial core corrections
 calculate Harris-corrections to forces 
   (improved forces if not selfconsistent)
 use gradient corrections 
 use of overlap-Matrix (Vanderbilt PP)
 Methfessel and Paxton  Order N= 1 SIGMA  =   0.15


--------------------------------------------------------------------------------------------------------


  energy-cutoff  :      300.00
  volume of cell :      730.57
      direct lattice vectors                 reciprocal lattice vectors
     6.994224182 -0.003152612  0.033052542     0.142978385  0.000062334 -0.000686174
    -0.004489479 10.266460764 -0.002838348     0.000043727  0.097404580  0.000037660
     0.048830567 -0.003955730 10.174491293    -0.000464463  0.000026970  0.098287252

  length of vectors
     6.994302990 10.266462138 10.174609238     0.142980045  0.097404598  0.098288353


 
 k-points in units of 2pi/SCALE and weight: k-points                                
   0.00000000  0.00000000  0.00000000       0.037
   0.23774017  0.00010365 -0.00114095       0.074
   0.00007271  0.16196141  0.00006262       0.074
   0.23781288  0.16206506 -0.00107833       0.074
  -0.23766746  0.16185777  0.00120357       0.074
  -0.00077230  0.00004485  0.16342909       0.074
   0.23696787  0.00014849  0.16228814       0.074
  -0.23851246 -0.00005880  0.16457004       0.074
  -0.00069959  0.16200626  0.16349171       0.074
   0.23704058  0.16210991  0.16235076       0.074
  -0.23843976  0.16190261  0.16463266       0.074
  -0.00084500 -0.16191657  0.16336647       0.074
   0.23689517 -0.16181292  0.16222552       0.074
  -0.23858517 -0.16202022  0.16450742       0.074
 
 k-points in reciprocal lattice and weights: k-points                                
   0.00000000  0.00000000  0.00000000       0.037
   0.33333333 -0.00000000  0.00000000       0.074
   0.00000000  0.33333333  0.00000000       0.074
   0.33333333  0.33333333  0.00000000       0.074
  -0.33333333  0.33333333  0.00000000       0.074
  -0.00000000  0.00000000  0.33333333       0.074
   0.33333333  0.00000000  0.33333333       0.074
  -0.33333333  0.00000000  0.33333333       0.074
  -0.00000000  0.33333333  0.33333333       0.074
   0.33333333  0.33333333  0.33333333       0.074
  -0.33333333  0.33333333  0.33333333       0.074
  -0.00000000 -0.33333333  0.33333333       0.074
   0.33333333 -0.33333333  0.33333333       0.074
  -0.33333333 -0.33333333  0.33333333       0.074
 
 position of ions in fractional coordinates (direct lattice) 
   0.26243300  0.17142100  0.17542400
   0.01970800  0.67103800  0.65683000
   0.54051800  0.66393300  0.00611600
   0.72094300  0.83174900  0.17747000
   0.50654400  0.34301000  0.34228400
   0.98491300  0.34335100  0.31638100
   0.01363300  0.32847400  0.68318000
   0.23697800  0.82963300  0.49014600
   0.48647200  0.32080200  0.99799300
   0.24943000  0.16750400  0.83425300
   0.49034100  0.99210400  0.33855400
   0.72989900  0.49569900  0.17941300
   0.03754600  0.99862200  0.67204200
   0.51215700  0.66820300  0.34589500
   0.76901000  0.50394800  0.49439600
   0.98251500  0.66854700  0.32569100
   0.47946600  0.01354800  0.00484000
   0.26706300  0.50404000  0.16771700
   0.49272300  0.66278600  0.64831400
   0.25783500  0.50882100  0.84494300
   0.22944000  0.17427100  0.48708800
   0.00802400  0.32990300  0.00506300
   0.96818900  0.66691500  0.02116400
   0.27398200  0.82016500  0.16118300
   0.46876500  0.99922400  0.65537500
   0.76608600  0.83754300  0.50500100
   0.26247300  0.82209600  0.84536000
   0.99896300  0.98980500  0.31457800
   0.01051500  0.00342200  0.00482600
   0.76333300  0.16650400  0.50109400
   0.74880800  0.16137600  0.82998800
   0.72599700  0.17319100  0.17094000
   0.49369200  0.33543400  0.65972600
   0.75503400  0.83947600  0.82293800
   0.22660000  0.49499300  0.48983500
   0.75996800  0.49845800  0.82395500
 
 position of ions in cartesian coordinates  (Angst):
   1.84331170  1.75836569  1.79303749
   0.16690294  6.88652492  6.68165788
   3.77782200  6.81451386  0.07820821
   5.04736881  8.53614360  1.82713518
   3.55805628  3.51854779  3.49833456
   6.90260992  3.52064300  3.25059506
   0.12723765  3.36951998  6.95052724
   1.67768675  8.51470866  4.99246415
   3.44978656  3.28801970 10.16923968
   1.78455438  1.71558681  8.49586875
   3.44163263 10.18251171  3.45800580
   5.11161264  5.08606354  1.84815406
   0.29093804 10.24953680  6.83609203
   3.59603124  6.85709698  3.53433716
   5.40050751  5.16938228  5.05421515
   6.88483242  6.85922571  3.34431729
   3.35366821  0.13755929  0.06505365
   1.87382533  5.17320149  1.71383163
   3.47489710  6.80034854  6.61066968
   1.84233050  5.21963561  8.60394309
   1.62775719  1.78649626  4.96296155
   0.05488779  3.38689088  0.05084228
   6.76977027  6.84372064  0.24544110
   1.92048007  8.41869044  1.64668292
   3.30616384 10.25442367  6.68076496
   5.37907658  8.59418953  5.16107213
   1.87338363  8.43584484  8.60744996
   6.99788848 10.15740047  3.23087998
   0.07376456  0.03507959  0.04943993
   5.36264332  1.70501810  5.12313404
   5.27713531  1.65111646  8.46899765
   5.08535533  1.77509363  1.76273201
   3.48370140  3.43955388  6.72774214
   5.31729278  8.61281177  8.39554858
   1.60658786  5.07917418  4.98990669
   5.35338294  5.11174427  8.40702705
 


--------------------------------------------------------------------------------------------------------


 k-point  1 :   0.0000 0.0000 0.0000  plane waves:    8639
 k-point  2 :   0.3333-0.0000 0.0000  plane waves:    8620
 k-point  3 :   0.0000 0.3333 0.0000  plane waves:    8611
 k-point  4 :   0.3333 0.3333 0.0000  plane waves:    8620
 k-point  5 :  -0.3333 0.3333 0.0000  plane waves:    8620
 k-point  6 :  -0.0000 0.0000 0.3333  plane waves:    8610
 k-point  7 :   0.3333 0.0000 0.3333  plane waves:    8632
 k-point  8 :  -0.3333 0.0000 0.3333  plane waves:    8627
 k-point  9 :  -0.0000 0.3333 0.3333  plane waves:    8600
 k-point 10 :   0.3333 0.3333 0.3333  plane waves:    8634
 k-point 11 :  -0.3333 0.3333 0.3333  plane waves:    8635
 k-point 12 :  -0.0000-0.3333 0.3333  plane waves:    8595
 k-point 13 :   0.3333-0.3333 0.3333  plane waves:    8630
 k-point 14 :  -0.3333-0.3333 0.3333  plane waves:    8637

 maximum and minimum number of plane-waves per node :      1743     1700

 maximum number of plane-waves:      8639
 maximum index in each direction: 
   IXMAX=   10   IYMAX=   14   IZMAX=   14
   IXMIN=  -10   IYMIN=  -14   IZMIN=  -14

 WARNING: aliasing errors must be expected set NGX to  42 to avoid them
 NGY is ok and might be reduce to  58
 NGZ is ok and might be reduce to  58
 aliasing errors are usually negligible using standard VASP settings
 and one can safely disregard these warnings

 real space projection operators:
  total allocation   :      27127.12 KBytes
  max/ min on nodes  :       5476.50       5353.88


 parallel 3D FFT for wavefunctions:
    minimum data exchange during FFTs selected (reduces bandwidth)
 parallel 3D FFT for charge:
    minimum data exchange during FFTs selected (reduces bandwidth)


 total amount of memory used by VASP on root node    68962. kBytes
========================================================================

   base      :      30000. kBytes
   nonlr-proj:      10408. kBytes
   fftplans  :       2814. kBytes
   grid      :       5360. kBytes
   one-center:        124. kBytes
   wavefun   :      20256. kBytes
 
     INWAV:  cpu time    0.0000: real time    0.0000
 Broyden mixing: mesh for mixing (old mesh)
   NGX = 19   NGY = 29   NGZ = 29
  (NGX  = 80   NGY  =120   NGZ  =120)
  gives a total of  15979 points

 initial charge density was supplied:
 charge density of overlapping atoms calculated
 number of electron     321.0000000 magnetization 
 keeping initial charge density in first step


--------------------------------------------------------------------------------------------------------


 Maximum index for non-local projection operator         1213
 Maximum index for augmentation-charges          679 (set IRDMAX)


--------------------------------------------------------------------------------------------------------


 First call to EWALD:  gamma=   0.197
 Maximum number of real-space cells 3x 2x 2
 Maximum number of reciprocal cells 2x 3x 3

 FEWALD executed in parallel
    FEWALD:  cpu time    0.1144: real time    0.1156


----------------------------------------- Iteration    1(   1)  ---------------------------------------


    POTLOK:  cpu time    0.0505: real time    0.0807
    SETDIJ:  cpu time    0.0648: real time    0.0979
     EDDAV:  cpu time    1.1052: real time    1.2047
       DOS:  cpu time    0.0025: real time    0.0025
    --------------------------------------------
      LOOP:  cpu time    1.2317: real time    1.6813

 eigenvalue-minimisations  :  5864
 total energy-change (2. order) : 0.2252315E+04  (-0.1239054E+05)
 number of electron     321.0000000 magnetization 
 augmentation part      321.0000000 magnetization 

 Free energy of the ion-electron system (eV)
  ---------------------------------------------------
  alpha Z        PSCENC =      1647.04928703
  Ewald energy   TEWEN  =    -22938.04520823
  -Hartree energ DENC   =     -7903.40735326
  -exchange      EXHF   =         0.00000000
  -V(xc)+E(xc)   XCENC  =       143.57321441
  PAW double counting   =     24979.52546999   -23569.12801991
  entropy T*S    EENTRO =        -0.00285158
  eigenvalues    EBANDS =      -313.96675713
  atomic energy  EATOM  =     30206.71717168
  Solvation  Ediel_sol  =         0.00000000
  ---------------------------------------------------
  free energy    TOTEN  =      2252.31495299 eV

  energy without entropy =     2252.31780458  energy(sigma->0) =     2252.31590352


--------------------------------------------------------------------------------------------------------




----------------------------------------- Iteration    1(   2)  ---------------------------------------


     EDDAV:  cpu time    1.0512: real time    1.1058
       DOS:  cpu time    0.0017: real time    0.0017
    --------------------------------------------
      LOOP:  cpu time    1.0536: real time    1.3236

 eigenvalue-minimisations  :  6072
 total energy-change (2. order) :-0.2297129E+04  (-0.2221601E+04)
 number of electron     321.0000000 magnetization 
 augmentation part      321.0000000 magnetization 

 Free energy of the ion-electron system (eV)
  ---------------------------------------------------
  alpha Z        PSCENC =      1647.04928703
  Ewald energy   TEWEN  =    -22938.04520823
  -Hartree energ DENC   =     -7903.40735326
  -exchange      EXHF   =         0.00000000
  -V(xc)+E(xc)   XCENC  =       143.57321441
  PAW double counting   =     24979.52546999   -23569.12801991
  entropy T*S    EENTRO =         0.00537195
  eigenvalues    EBANDS =     -2611.10412056
  atomic energy  EATOM  =     30206.71717168
  Solvation  Ediel_sol  =         0.00000000
  ---------------------------------------------------
  free energy    TOTEN  =       -44.81418690 eV

  energy without entropy =      -44.81955885  energy(sigma->0) =      -44.81597755


--------------------------------------------------------------------------------------------------------




----------------------------------------- Iteration    1(   3)  ---------------------------------------


     EDDAV:  cpu time    1.7695: real time    1.8475
       DOS:  cpu time    0.0017: real time    0.0018
    --------------------------------------------
      LOOP:  cpu time    1.7717: real time    1.8812

 eigenvalue-minimisations  :  9088
 total energy-change (2. order) :-0.2880125E+03  (-0.2739307E+03)
 number of electron     321.0000000 magnetization 
 augmentation part      321.0000000 magnetization 

 Free energy of the ion-electron system (eV)
  ---------------------------------------------------
  alpha Z        PSCENC =      1647.04928703
  Ewald energy   TEWEN  =    -22938.04520823
  -Hartree energ DENC   =     -7903.40735326
  -exchange      EXHF   =         0.00000000
  -V(xc)+E(xc)   XCENC  =       143.57321441
  PAW double counting   =     24979.52546999   -23569.12801991
  entropy T*S    EENTRO =        -0.01244917
  eigenvalues    EBANDS =     -2899.09875715
  atomic energy  EATOM  =     30206.71717168
  Solvation  Ediel_sol  =         0.00000000
  ---------------------------------------------------
  free energy    TOTEN  =      -332.82664462 eV

  energy without entropy =     -332.81419545  energy(sigma->0) =     -332.82249490


--------------------------------------------------------------------------------------------------------




----------------------------------------- Iteration    1(   4)  ---------------------------------------


     EDDAV:  cpu time    1.5953: real time    1.6824
       DOS:  cpu time    0.0024: real time    0.0024
    --------------------------------------------
      LOOP:  cpu time    1.5980: real time    1.7186

 eigenvalue-minimisations  :  9000
 total energy-change (2. order) :-0.3427997E+02  (-0.3266469E+02)
 number of electron     321.0000000 magnetization 
 augmentation part      321.0000000 magnetization 

 Free energy of the ion-electron system (eV)
  ---------------------------------------------------
  alpha Z        PSCENC =      1647.04928703
  Ewald energy   TEWEN  =    -22938.04520823
  -Hartree energ DENC   =     -7903.40735326
  -exchange      EXHF   =         0.00000000
  -V(xc)+E(xc)   XCENC  =       143.57321441
  PAW double counting   =     24979.52546999   -23569.12801991
  entropy T*S    EENTRO =         0.00224746
  eigenvalues    EBANDS =     -2933.39342215
  atomic energy  EATOM  =     30206.71717168
  Solvation  Ediel_sol  =         0.00000000
  ---------------------------------------------------
  free energy    TOTEN  =      -367.10661299 eV

  energy without entropy =     -367.10886045  energy(sigma->0) =     -367.10736214


--------------------------------------------------------------------------------------------------------




----------------------------------------- Iteration    1(   5)  ---------------------------------------


     EDDAV:  cpu time    1.5879: real time    1.6675
       DOS:  cpu time    0.0012: real time    0.0013
    CHARGE:  cpu time    0.0358: real time    0.0365
    MIXING:  cpu time    0.0013: real time    0.0014
    --------------------------------------------
      LOOP:  cpu time    1.6267: real time    1.7363

 eigenvalue-minimisations  :  8704
 total energy-change (2. order) :-0.3667724E+01  (-0.3586641E+01)
 number of electron     321.0000007 magnetization 
 augmentation part       18.7919731 magnetization 

 Broyden mixing:
  rms(total) = 0.61576E+01    rms(broyden)= 0.61571E+01
  rms(prec ) = 0.64212E+01
  weight for this iteration     100.00

 Free energy of the ion-electron system (eV)
  ---------------------------------------------------
  alpha Z        PSCENC =      1647.04928703
  Ewald energy   TEWEN  =    -22938.04520823
  -Hartree energ DENC   =     -7903.40735326
  -exchange      EXHF   =         0.00000000
  -V(xc)+E(xc)   XCENC  =       143.57321441
  PAW double counting   =     24979.52546999   -23569.12801991
  entropy T*S    EENTRO =         0.00302785
  eigenvalues    EBANDS =     -2937.06192701
  atomic energy  EATOM  =     30206.71717168
  Solvation  Ediel_sol  =         0.00000000
  ---------------------------------------------------
  free energy    TOTEN  =      -370.77433745 eV

  energy without entropy =     -370.77736530  energy(sigma->0) =     -370.77534673


--------------------------------------------------------------------------------------------------------




----------------------------------------- Iteration    1(   6)  ---------------------------------------


    POTLOK:  cpu time    0.0293: real time    0.0304
    SETDIJ:  cpu time    0.0036: real time    0.0036
    EDDIAG:  cpu time    0.1464: real time    0.1499
  RMM-DIIS:  cpu time    1.0853: real time    1.1159
    ORTHCH:  cpu time    0.0140: real time    0.0146
       DOS:  cpu time    0.0036: real time    0.0036
    CHARGE:  cpu time    0.0332: real time    0.0338
    MIXING:  cpu time    0.0016: real time    0.0022
    --------------------------------------------
      LOOP:  cpu time    1.3175: real time    1.3869

 eigenvalue-minimisations  :  7260
 total energy-change (2. order) : 0.1060985E+02  (-0.2332700E+01)
 number of electron     321.0000007 magnetization 
 augmentation part       19.5776898 magnetization 

 Broyden mixing:
  rms(total) = 0.28661E+01    rms(broyden)= 0.28660E+01
  rms(prec ) = 0.30471E+01
  weight for this iteration     100.00

 eigenvalues of (default mixing * dielectric matrix)
  average eigenvalue GAMMA=   1.7981
  1.7981

 Free energy of the ion-electron system (eV)
  ---------------------------------------------------
  alpha Z        PSCENC =      1647.04928703
  Ewald energy   TEWEN  =    -22938.04520823
  -Hartree energ DENC   =     -7701.67399277
  -exchange      EXHF   =         0.00000000
  -V(xc)+E(xc)   XCENC  =       137.33365340
  PAW double counting   =     30528.78610547   -29124.48805656
  entropy T*S    EENTRO =         0.00605920
  eigenvalues    EBANDS =     -3115.84950833
  atomic energy  EATOM  =     30206.71717168
  Solvation  Ediel_sol  =         0.00000000
  ---------------------------------------------------
  free energy    TOTEN  =      -360.16448910 eV

  energy without entropy =     -360.17054830  energy(sigma->0) =     -360.16650883


--------------------------------------------------------------------------------------------------------




----------------------------------------- Iteration    1(   7)  ---------------------------------------


    POTLOK:  cpu time    0.0427: real time    0.0440
    SETDIJ:  cpu time    0.0049: real time    0.0050
    EDDIAG:  cpu time    0.1614: real time    0.1819
  RMM-DIIS:  cpu time    0.9383: real time    1.0395
    ORTHCH:  cpu time    0.0142: real time    0.0143
       DOS:  cpu time    0.0036: real time    0.0036
    CHARGE:  cpu time    0.0341: real time    0.0342
    MIXING:  cpu time    0.0013: real time    0.0013
    --------------------------------------------
      LOOP:  cpu time    1.2015: real time    1.3979

 eigenvalue-minimisations  :  7300
 total energy-change (2. order) : 0.1788781E+01  (-0.1999514E+01)
 number of electron     321.0000007 magnetization 
 augmentation part       20.0019083 magnetization 

 Broyden mixing:
  rms(total) = 0.72412E+00    rms(broyden)= 0.72389E+00
  rms(prec ) = 0.15270E+01
  weight for this iteration     100.00

 eigenvalues of (default mixing * dielectric matrix)
  average eigenvalue GAMMA=   1.2718
  0.7350  1.8086

 Free energy of the ion-electron system (eV)
  ---------------------------------------------------
  alpha Z        PSCENC =      1647.04928703
  Ewald energy   TEWEN  =    -22938.04520823
  -Hartree energ DENC   =     -7617.41357020
  -exchange      EXHF   =         0.00000000
  -V(xc)+E(xc)   XCENC  =       136.47770517
  PAW double counting   =     36098.19703326   -34683.61029474
  entropy T*S    EENTRO =         0.01042364
  eigenvalues    EBANDS =     -3207.75825581
  atomic energy  EATOM  =     30206.71717168
  Solvation  Ediel_sol  =         0.00000000
  ---------------------------------------------------
  free energy    TOTEN  =      -358.37570821 eV

  energy without entropy =     -358.38613185  energy(sigma->0) =     -358.37918276


--------------------------------------------------------------------------------------------------------




----------------------------------------- Iteration    1(   8)  ---------------------------------------


    POTLOK:  cpu time    0.0277: real time    0.0324
    SETDIJ:  cpu time    0.0036: real time    0.0041
    EDDIAG:  cpu time    0.0972: real time    0.1043
  RMM-DIIS:  cpu time    0.9264: real time    0.9653
    ORTHCH:  cpu time    0.0139: real time    0.0144
       DOS:  cpu time    0.0022: real time    0.0022
    CHARGE:  cpu time    0.0323: real time    0.0330
    MIXING:  cpu time    0.0012: real time    0.0013
    --------------------------------------------
      LOOP:  cpu time    1.1051: real time    1.1898

 eigenvalue-minimisations  :  8154
 total energy-change (2. order) : 0.1919600E+01  (-0.3448355E+00)
 number of electron     321.0000006 magnetization 
 augmentation part       19.7746603 magnetization 

 Broyden mixing:
  rms(total) = 0.40504E+00    rms(broyden)= 0.40483E+00
  rms(prec ) = 0.61637E+00
  weight for this iteration     100.00

 eigenvalues of (default mixing * dielectric matrix)
  average eigenvalue GAMMA=   1.3250
  1.7452  1.7452  0.4846

 Free energy of the ion-electron system (eV)
  ---------------------------------------------------
  alpha Z        PSCENC =      1647.04928703
  Ewald energy   TEWEN  =    -22938.04520823
  -Hartree energ DENC   =     -7595.62178647
  -exchange      EXHF   =         0.00000000
  -V(xc)+E(xc)   XCENC  =       136.38103429
  PAW double counting   =     36595.82587767   -35178.02897374
  entropy T*S    EENTRO =         0.00989081
  eigenvalues    EBANDS =     -3230.74340081
  atomic energy  EATOM  =     30206.71717168
  Solvation  Ediel_sol  =         0.00000000
  ---------------------------------------------------
  free energy    TOTEN  =      -356.45610777 eV

  energy without entropy =     -356.46599859  energy(sigma->0) =     -356.45940471


--------------------------------------------------------------------------------------------------------




----------------------------------------- Iteration    1(   9)  ---------------------------------------


    POTLOK:  cpu time    0.0278: real time    0.0290
    SETDIJ:  cpu time    0.0035: real time    0.0036
    EDDIAG:  cpu time    0.0952: real time    0.0983
  RMM-DIIS:  cpu time    0.8569: real time    0.8985
    ORTHCH:  cpu time    0.0136: real time    0.0141
       DOS:  cpu time    0.0026: real time    0.0027
    CHARGE:  cpu time    0.0339: real time    0.0344
    MIXING:  cpu time    0.0013: real time    0.0013
    --------------------------------------------
      LOOP:  cpu time    1.0355: real time    1.1190

 eigenvalue-minimisations  :  8007
 total energy-change (2. order) : 0.1302504E-01  (-0.1274492E+00)
 number of electron     321.0000006 magnetization 
 augmentation part       19.6249706 magnetization 

 Broyden mixing:
  rms(total) = 0.28603E+00    rms(broyden)= 0.28591E+00
  rms(prec ) = 0.45902E+00
  weight for this iteration     100.00

 eigenvalues of (default mixing * dielectric matrix)
  average eigenvalue GAMMA=   1.1997
  1.9511  1.9511  0.4800  0.4168

 Free energy of the ion-electron system (eV)
  ---------------------------------------------------
  alpha Z        PSCENC =      1647.04928703
  Ewald energy   TEWEN  =    -22938.04520823
  -Hartree energ DENC   =     -7608.20868367
  -exchange      EXHF   =         0.00000000
  -V(xc)+E(xc)   XCENC  =       137.19067710
  PAW double counting   =     36698.78202647   -35275.03969437
  entropy T*S    EENTRO =         0.01167909
  eigenvalues    EBANDS =     -3224.90033783
  atomic energy  EATOM  =     30206.71717168
  Solvation  Ediel_sol  =         0.00000000
  ---------------------------------------------------
  free energy    TOTEN  =      -356.44308274 eV

  energy without entropy =     -356.45476183  energy(sigma->0) =     -356.44697577


--------------------------------------------------------------------------------------------------------




----------------------------------------- Iteration    1(  10)  ---------------------------------------


    POTLOK:  cpu time    0.0279: real time    0.0290
    SETDIJ:  cpu time    0.0162: real time    0.0165
    EDDIAG:  cpu time    0.0887: real time    0.0920
  RMM-DIIS:  cpu time    0.8380: real time    0.8800
    ORTHCH:  cpu time    0.0137: real time    0.0142
       DOS:  cpu time    0.0034: real time    0.0035
    CHARGE:  cpu time    0.0343: real time    0.0351
    MIXING:  cpu time    0.0013: real time    0.0014
    --------------------------------------------
      LOOP:  cpu time    1.0241: real time    1.1139

 eigenvalue-minimisations  :  7884
 total energy-change (2. order) : 0.9659714E-01  (-0.3190514E-01)
 number of electron     321.0000006 magnetization 
 augmentation part       19.5140422 magnetization 

 Broyden mixing:
  rms(total) = 0.10493E+00    rms(broyden)= 0.10481E+00
  rms(prec ) = 0.16681E+00
  weight for this iteration     100.00

 eigenvalues of (default mixing * dielectric matrix)
  average eigenvalue GAMMA=   1.1501
  2.1272  1.8551  0.8854  0.5163  0.3664

 Free energy of the ion-electron system (eV)
  ---------------------------------------------------
  alpha Z        PSCENC =      1647.04928703
  Ewald energy   TEWEN  =    -22938.04520823
  -Hartree energ DENC   =     -7626.10634913
  -exchange      EXHF   =         0.00000000
  -V(xc)+E(xc)   XCENC  =       138.43043010
  PAW double counting   =     36902.47856697   -35468.84017723
  entropy T*S    EENTRO =         0.01083094
  eigenvalues    EBANDS =     -3218.04103772
  atomic energy  EATOM  =     30206.71717168
  Solvation  Ediel_sol  =         0.00000000
  ---------------------------------------------------
  free energy    TOTEN  =      -356.34648560 eV

  energy without entropy =     -356.35731654  energy(sigma->0) =     -356.35009591


--------------------------------------------------------------------------------------------------------




----------------------------------------- Iteration    1(  11)  ---------------------------------------


    POTLOK:  cpu time    0.0283: real time    0.0299
    SETDIJ:  cpu time    0.0035: real time    0.0036
    EDDIAG:  cpu time    0.0927: real time    0.0958
  RMM-DIIS:  cpu time    0.8918: real time    0.9353
    ORTHCH:  cpu time    0.0161: real time    0.0166
       DOS:  cpu time    0.0009: real time    0.0010
    CHARGE:  cpu time    0.0328: real time    0.0338
    MIXING:  cpu time    0.0014: real time    0.0014
    --------------------------------------------
      LOOP:  cpu time    1.0682: real time    1.1515

 eigenvalue-minimisations  :  7988
 total energy-change (2. order) : 0.1015449E-01  (-0.1168465E-01)
 number of electron     321.0000006 magnetization 
 augmentation part       19.4920736 magnetization 

 Broyden mixing:
  rms(total) = 0.57252E-01    rms(broyden)= 0.57200E-01
  rms(prec ) = 0.93750E-01
  weight for this iteration     100.00

 eigenvalues of (default mixing * dielectric matrix)
  average eigenvalue GAMMA=   1.1170
  2.2913  1.6841  1.3483  0.5388  0.4696  0.3699

 Free energy of the ion-electron system (eV)
  ---------------------------------------------------
  alpha Z        PSCENC =      1647.04928703
  Ewald energy   TEWEN  =    -22938.04520823
  -Hartree energ DENC   =     -7627.91118085
  -exchange      EXHF   =         0.00000000
  -V(xc)+E(xc)   XCENC  =       138.65677769
  PAW double counting   =     37061.81911762   -35625.14319257
  entropy T*S    EENTRO =         0.01083827
  eigenvalues    EBANDS =     -3219.48994173
  atomic energy  EATOM  =     30206.71717168
  Solvation  Ediel_sol  =         0.00000000
  ---------------------------------------------------
  free energy    TOTEN  =      -356.33633111 eV

  energy without entropy =     -356.34716937  energy(sigma->0) =     -356.33994386


--------------------------------------------------------------------------------------------------------




----------------------------------------- Iteration    1(  12)  ---------------------------------------


    POTLOK:  cpu time    0.0282: real time    0.0293
    SETDIJ:  cpu time    0.0035: real time    0.0037
    EDDIAG:  cpu time    0.1008: real time    0.1045
  RMM-DIIS:  cpu time    0.8367: real time    0.8826
    ORTHCH:  cpu time    0.0139: real time    0.0144
       DOS:  cpu time    0.0035: real time    0.0036
    CHARGE:  cpu time    0.0324: real time    0.0331
    MIXING:  cpu time    0.0015: real time    0.0015
    --------------------------------------------
      LOOP:  cpu time    1.0211: real time    1.1248

 eigenvalue-minimisations  :  8065
 total energy-change (2. order) : 0.2651221E-02  (-0.3424843E-02)
 number of electron     321.0000006 magnetization 
 augmentation part       19.4898654 magnetization 

 Broyden mixing:
  rms(total) = 0.33885E-01    rms(broyden)= 0.33866E-01
  rms(prec ) = 0.57377E-01
  weight for this iteration     100.00

 eigenvalues of (default mixing * dielectric matrix)
  average eigenvalue GAMMA=   1.1223
  2.3447  1.7117  1.7117  0.7658  0.4993  0.4704  0.3525

 Free energy of the ion-electron system (eV)
  ---------------------------------------------------
  alpha Z        PSCENC =      1647.04928703
  Ewald energy   TEWEN  =    -22938.04520823
  -Hartree energ DENC   =     -7628.48997227
  -exchange      EXHF   =         0.00000000
  -V(xc)+E(xc)   XCENC  =       138.70610297
  PAW double counting   =     37165.54192096   -35727.54968277
  entropy T*S    EENTRO =         0.01143328
  eigenvalues    EBANDS =     -3220.27473254
  atomic energy  EATOM  =     30206.71717168
  Solvation  Ediel_sol  =         0.00000000
  ---------------------------------------------------
  free energy    TOTEN  =      -356.33367989 eV

  energy without entropy =     -356.34511316  energy(sigma->0) =     -356.33749098


--------------------------------------------------------------------------------------------------------




----------------------------------------- Iteration    1(  13)  ---------------------------------------


    POTLOK:  cpu time    0.0283: real time    0.0293
    SETDIJ:  cpu time    0.0038: real time    0.0039
    EDDIAG:  cpu time    0.0996: real time    0.1026
  RMM-DIIS:  cpu time    0.9842: real time    1.0283
    ORTHCH:  cpu time    0.0138: real time    0.0142
       DOS:  cpu time    0.0036: real time    0.0036
    CHARGE:  cpu time    0.0445: real time    0.0454
    MIXING:  cpu time    0.0015: real time    0.0015
    --------------------------------------------
      LOOP:  cpu time    1.1796: real time    1.2798

 eigenvalue-minimisations  :  8518
 total energy-change (2. order) : 0.1007013E-03  (-0.1434688E-02)
 number of electron     321.0000006 magnetization 
 augmentation part       19.4880190 magnetization 

 Broyden mixing:
  rms(total) = 0.21962E-01    rms(broyden)= 0.21956E-01
  rms(prec ) = 0.32044E-01
  weight for this iteration     100.00

 eigenvalues of (default mixing * dielectric matrix)
  average eigenvalue GAMMA=   1.1223
  2.5089  2.0142  1.6172  1.0306  0.5272  0.5272  0.3569  0.3962

 Free energy of the ion-electron system (eV)
  ---------------------------------------------------
  alpha Z        PSCENC =      1647.04928703
  Ewald energy   TEWEN  =    -22938.04520823
  -Hartree energ DENC   =     -7628.70250797
  -exchange      EXHF   =         0.00000000
  -V(xc)+E(xc)   XCENC  =       138.70610917
  PAW double counting   =     37209.86810289   -35771.19309382
  entropy T*S    EENTRO =         0.01093620
  eigenvalues    EBANDS =     -3220.74437614
  atomic energy  EATOM  =     30206.71717168
  Solvation  Ediel_sol  =         0.00000000
  ---------------------------------------------------
  free energy    TOTEN  =      -356.33357919 eV

  energy without entropy =     -356.34451539  energy(sigma->0) =     -356.33722459


--------------------------------------------------------------------------------------------------------




----------------------------------------- Iteration    1(  14)  ---------------------------------------


    POTLOK:  cpu time    0.0282: real time    0.0292
    SETDIJ:  cpu time    0.0036: real time    0.0038
    EDDIAG:  cpu time    0.1667: real time    0.1699
  RMM-DIIS:  cpu time    0.9121: real time    0.9835
    ORTHCH:  cpu time    0.0148: real time    0.0163
       DOS:  cpu time    0.0059: real time    0.0060
    CHARGE:  cpu time    0.0319: real time    0.0343
    MIXING:  cpu time    0.0019: real time    0.0019
    --------------------------------------------
      LOOP:  cpu time    1.1657: real time    1.2739

 eigenvalue-minimisations  :  8618
 total energy-change (2. order) :-0.2605495E-03  (-0.6190978E-03)
 number of electron     321.0000006 magnetization 
 augmentation part       19.4859001 magnetization 

 Broyden mixing:
  rms(total) = 0.10523E-01    rms(broyden)= 0.10520E-01
  rms(prec ) = 0.14866E-01
  weight for this iteration     100.00

 eigenvalues of (default mixing * dielectric matrix)
  average eigenvalue GAMMA=   1.1085
  2.6556  2.1187  1.4958  1.2796  0.6897  0.5577  0.4636  0.3668  0.3489

 Free energy of the ion-electron system (eV)
  ---------------------------------------------------
  alpha Z        PSCENC =      1647.04928703
  Ewald energy   TEWEN  =    -22938.04520823
  -Hartree energ DENC   =     -7628.91010267
  -exchange      EXHF   =         0.00000000
  -V(xc)+E(xc)   XCENC  =       138.71093018
  PAW double counting   =     37238.61080526   -35799.21791300
  entropy T*S    EENTRO =         0.01116757
  eigenvalues    EBANDS =     -3221.25997755
  atomic energy  EATOM  =     30206.71717168
  Solvation  Ediel_sol  =         0.00000000
  ---------------------------------------------------
  free energy    TOTEN  =      -356.33383973 eV

  energy without entropy =     -356.34500730  energy(sigma->0) =     -356.33756226


--------------------------------------------------------------------------------------------------------




----------------------------------------- Iteration    1(  15)  ---------------------------------------


    POTLOK:  cpu time    0.0297: real time    0.0336
    SETDIJ:  cpu time    0.0040: real time    0.0067
    EDDIAG:  cpu time    0.1295: real time    0.1469
  RMM-DIIS:  cpu time    0.9233: real time    0.9465
    ORTHCH:  cpu time    0.0153: real time    0.0154
       DOS:  cpu time    0.0094: real time    0.0094
    CHARGE:  cpu time    0.0423: real time    0.0425
    MIXING:  cpu time    0.0021: real time    0.0021
    --------------------------------------------
      LOOP:  cpu time    1.1562: real time    1.2375

 eigenvalue-minimisations  :  8054
 total energy-change (2. order) :-0.1459640E-03  (-0.2845630E-03)
 number of electron     321.0000006 magnetization 
 augmentation part       19.4837758 magnetization 

 Broyden mixing:
  rms(total) = 0.41128E-02    rms(broyden)= 0.41096E-02
  rms(prec ) = 0.84218E-02
  weight for this iteration     100.00

 eigenvalues of (default mixing * dielectric matrix)
  average eigenvalue GAMMA=   1.0786
  2.6310  2.0993  1.6634  1.1705  0.9595  0.5656  0.5065  0.4758  0.3639  0.3503

 Free energy of the ion-electron system (eV)
  ---------------------------------------------------
  alpha Z        PSCENC =      1647.04928703
  Ewald energy   TEWEN  =    -22938.04520823
  -Hartree energ DENC   =     -7629.80259479
  -exchange      EXHF   =         0.00000000
  -V(xc)+E(xc)   XCENC  =       138.74071021
  PAW double counting   =     37250.57410312   -35810.76760867
  entropy T*S    EENTRO =         0.01111891
  eigenvalues    EBANDS =     -3220.81096496
  atomic energy  EATOM  =     30206.71717168
  Solvation  Ediel_sol  =         0.00000000
  ---------------------------------------------------
  free energy    TOTEN  =      -356.33398570 eV

  energy without entropy =     -356.34510461  energy(sigma->0) =     -356.33769200


--------------------------------------------------------------------------------------------------------




----------------------------------------- Iteration    1(  16)  ---------------------------------------


    POTLOK:  cpu time    0.0283: real time    0.0323
    SETDIJ:  cpu time    0.2562: real time    0.2770
    EDDIAG:  cpu time    0.1426: real time    0.1528
  RMM-DIIS:  cpu time    0.7091: real time    0.7669
    ORTHCH:  cpu time    0.0144: real time    0.0155
       DOS:  cpu time    0.0011: real time    0.0011
    CHARGE:  cpu time    0.0329: real time    0.0351
    MIXING:  cpu time    0.0020: real time    0.0020
    --------------------------------------------
      LOOP:  cpu time    1.1873: real time    1.3372

 eigenvalue-minimisations  :  6669
 total energy-change (2. order) :-0.7205646E-04  (-0.1257936E-03)
 number of electron     321.0000006 magnetization 
 augmentation part       19.4838583 magnetization 

 Broyden mixing:
  rms(total) = 0.24554E-02    rms(broyden)= 0.24538E-02
  rms(prec ) = 0.55381E-02
  weight for this iteration     100.00

 eigenvalues of (default mixing * dielectric matrix)
  average eigenvalue GAMMA=   1.0409
  2.6587  2.0949  1.6951  1.1262  1.1262  0.5501  0.5501  0.4911  0.4456  0.3638
  0.3479

 Free energy of the ion-electron system (eV)
  ---------------------------------------------------
  alpha Z        PSCENC =      1647.04928703
  Ewald energy   TEWEN  =    -22938.04520823
  -Hartree energ DENC   =     -7629.75861673
  -exchange      EXHF   =         0.00000000
  -V(xc)+E(xc)   XCENC  =       138.73801982
  PAW double counting   =     37256.45726652   -35816.57673991
  entropy T*S    EENTRO =         0.01113527
  eigenvalues    EBANDS =     -3220.92637320
  atomic energy  EATOM  =     30206.71717168
  Solvation  Ediel_sol  =         0.00000000
[...]
    114       5.9362      2.00000
    115       5.9911      2.00000
    116       6.0539      2.00000
    117       6.0813      2.00000
    118       6.1284      2.00000
    119       6.1681      2.00000
    120       6.2369      2.00000
    121       6.3165      2.00000
    122       6.4237      2.00000
    123       6.5171      2.00000
    124       6.5389      2.00000
    125       6.5838      2.00000
    126       6.6133      2.00000
    127       6.6282      2.00000
    128       6.6765      2.00000
    129       6.7301      2.00000
    130       6.8035      2.00000
    131       6.8264      2.00000
    132       6.8461      2.00000
    133       6.8834      2.00000
    134       6.9091      2.00000
    135       6.9561      2.00000
    136       6.9860      2.00000
    137       7.0006      2.00000
    138       7.0351      2.00000
    139       7.0664      2.00000
    140       7.1321      2.00000
    141       7.1692      2.00000
    142       7.1928      2.00000
    143       7.2302      2.00000
    144       7.2524      2.00000
    145       7.3303      2.00000
    146       7.3394      2.00000
    147       7.4110      2.00000
    148       7.4482      2.00002
    149       7.4730      2.00005
    150       7.5268      2.00038
    151       7.5527      2.00091
    152       7.5950      2.00333
    153       7.6305      2.00856
    154       7.6602      2.01694
    155       7.6790      2.02471
    156       7.7135      2.04371
    157       7.7481      2.06385
    158       7.7717      2.07086
    159       7.8349      1.98871
    160       7.8767      1.78103
    161       7.9329      1.27395
    162       7.9516      1.06694
    163       8.0106      0.44066
    164       8.0317      0.26572
    165       8.0708      0.04460
    166       8.0873     -0.00973
    167       8.1357     -0.07048
    168       8.1499     -0.06995
    169       8.2189     -0.03345
    170       8.2445     -0.02095
    171       8.2964     -0.00634
    172       8.3240     -0.00297
    173       8.3747     -0.00060
    174       8.4071     -0.00019
    175       8.4568     -0.00003
    176       8.4716     -0.00001
    177       8.5065     -0.00000
    178       8.5489     -0.00000
    179       8.6147     -0.00000
    180       8.6859     -0.00000
    181       8.7451     -0.00000
    182       8.7822     -0.00000
    183       8.8364     -0.00000
    184       8.9030     -0.00000
    185       9.0691     -0.00000
    186       9.1974     -0.00000
    187       9.3163     -0.00000
    188       9.7326     -0.00000
    189       9.8013     -0.00000
    190       9.8705     -0.00000
    191       9.9212     -0.00000
    192      10.0124     -0.00000


--------------------------------------------------------------------------------------------------------


 soft charge-density along one line, spin component           1
         0         1         2         3         4         5         6         7         8         9
 total charge-density along one line
 
 pseudopotential strength for first ion, spin component:           1
  5.786 -20.815   0.000   0.001   0.000  -0.001  -0.004  -0.001
-20.815   9.685   0.000   0.003   0.001  -0.000  -0.000  -0.000
  0.000   0.000 -10.151  -0.002  -0.000   6.465   0.002   0.000
  0.001   0.003  -0.002 -10.153  -0.002   0.002   6.469   0.002
  0.000   0.001  -0.000  -0.002 -10.152   0.000   0.002   6.467
 -0.001  -0.000   6.465   0.002   0.000   7.649  -0.001  -0.000
 -0.004  -0.000   0.002   6.469   0.002  -0.001   7.647  -0.001
 -0.001  -0.000   0.000   0.002   6.467  -0.000  -0.001   7.648
 -0.000  -0.000   0.001   0.000   0.000  -0.001   0.000  -0.000
 -0.001  -0.001   0.002   0.000   0.000  -0.002  -0.000   0.000
 -0.001  -0.001   0.000   0.001  -0.001   0.000  -0.001   0.001
 -0.002  -0.001   0.000  -0.001   0.002   0.000  -0.001  -0.002
 -0.000  -0.000  -0.000   0.000   0.000   0.000  -0.000  -0.001
 -0.000  -0.000   0.001   0.000   0.000  -0.002   0.000  -0.000
 -0.002  -0.001   0.002   0.001   0.000  -0.003  -0.000   0.000
 -0.001  -0.001   0.000   0.001  -0.001   0.000  -0.001   0.001
 -0.002  -0.001   0.000  -0.001   0.003   0.000  -0.001  -0.003
 -0.001  -0.000  -0.000   0.000   0.000   0.000  -0.000  -0.001
 total augmentation occupancy for first ion, spin component:           1
  1.998  -0.032  -0.000   0.000  -0.001  -0.000  -0.000  -0.001   0.002  -0.005  -0.001  -0.007   0.001  -0.002   0.004   0.001
 -0.032   1.392  -0.001  -0.001  -0.008   0.000  -0.003   0.015  -0.007  -0.023   0.041  -0.064   0.033   0.009   0.006  -0.019
 -0.000  -0.001   1.997   0.000  -0.000  -0.025  -0.001   0.001  -0.011  -0.006   0.004   0.005   0.004   0.008   0.005  -0.002
  0.000  -0.001   0.000   1.997   0.000  -0.001  -0.025  -0.001   0.006   0.000   0.006  -0.019  -0.001  -0.003   0.001  -0.004
 -0.001  -0.008  -0.000   0.000   1.996   0.001  -0.001  -0.024  -0.005   0.005   0.004  -0.006  -0.013   0.003  -0.003  -0.004
 -0.000   0.000  -0.025  -0.001   0.001   0.056   0.001  -0.001   0.006  -0.013  -0.005  -0.004  -0.002  -0.003   0.005   0.002
 -0.000  -0.003  -0.001  -0.025  -0.001   0.001   0.057   0.001  -0.007  -0.007  -0.007   0.034   0.003   0.001   0.003   0.006
 -0.001   0.015   0.001  -0.001  -0.024  -0.001   0.001   0.055   0.004  -0.004   0.004  -0.017   0.017  -0.002   0.001   0.000
  0.002  -0.007  -0.011   0.006  -0.005   0.006  -0.007   0.004   2.502  -0.110  -0.022  -0.009   0.009  -0.887   0.040   0.003
 -0.005  -0.023  -0.006   0.000   0.005  -0.013  -0.007  -0.004  -0.110   2.431  -0.028  -0.042   0.029   0.039  -0.866   0.011
 -0.001   0.041   0.004   0.006   0.004  -0.005  -0.007   0.004  -0.022  -0.028   2.082  -0.034  -0.025   0.003   0.010  -0.813
 -0.007  -0.064   0.005  -0.019  -0.006  -0.004   0.034  -0.017  -0.009  -0.042  -0.034   2.407  -0.033  -0.002   0.019   0.018
  0.001   0.033   0.004  -0.001  -0.013  -0.002   0.003   0.017   0.009   0.029  -0.025  -0.033   1.984  -0.002  -0.013   0.007
 -0.002   0.009   0.008  -0.003   0.003  -0.003   0.001  -0.002  -0.887   0.039   0.003  -0.002  -0.002   0.327  -0.015  -0.000
  0.004   0.006   0.005   0.001  -0.003   0.005   0.003   0.001   0.040  -0.866   0.010   0.019  -0.013  -0.015   0.321  -0.004
  0.001  -0.019  -0.002  -0.004  -0.004   0.002   0.006   0.000   0.003   0.011  -0.813   0.018   0.007  -0.000  -0.004   0.326
  0.006   0.029  -0.003   0.009   0.006   0.001  -0.013   0.007  -0.002   0.019   0.017  -0.867   0.027   0.002  -0.009  -0.009
 -0.001  -0.013  -0.003   0.001   0.008   0.000  -0.000  -0.007  -0.002  -0.014   0.007   0.028  -0.772   0.001   0.006  -0.002


------------------------ aborting loop because EDIFF is reached ----------------------------------------


    CHARGE:  cpu time    0.0297: real time    0.0305
    FORLOC:  cpu time    0.0133: real time    0.0136
    FORNL :  cpu time    0.4111: real time    0.4279
    STRESS:  cpu time    0.9451: real time    0.9844
    FORCOR:  cpu time    0.0416: real time    0.0447
    FORHAR:  cpu time    0.0177: real time    0.0181
    MIXING:  cpu time    0.0012: real time    0.0012
    OFIELD:  cpu time    0.0000: real time    0.0000

  FORCE on cell =-STRESS in cart. coord.  units (eV):
  Direction    XX          YY          ZZ          XY          YZ          ZX
  --------------------------------------------------------------------------------------
  Alpha Z  1647.30476  1647.30476  1647.30476
  Ewald   -7097.68562 -8602.79067 -7236.37906   313.46063    -2.62343  -499.67224
  Hartree  3061.89105  1637.48284  2932.49027   285.02063   -15.51273  -418.37615
  E(xc)   -1404.48934 -1404.76111 -1405.22666    -0.42723     0.58944     0.39018
  Local   -1754.61724  1167.41638 -1490.04233  -597.64031    17.55085   919.82012
  n-local  -302.51408  -300.09102  -302.32866     1.96743    -2.58462     1.92248
  augment   255.30342   255.83836   255.69328    -0.44389     0.49231    -0.27159
  Kinetic  5594.77061  5599.61359  5598.46739    -1.86590     2.09933    -3.82223
  Fock        0.00000     0.00000     0.00000     0.00000     0.00000     0.00000
  -------------------------------------------------------------------------------------
  Total      -0.03642     0.01313    -0.02102     0.07136     0.01116    -0.00942
  in kB      -0.07989     0.02880    -0.04610     0.15651     0.02447    -0.02067
  external pressure =       -0.03 kB  Pullay stress =        0.00 kB


 VOLUME and BASIS-vectors are now :
 -----------------------------------------------------------------------------
  energy-cutoff  :      300.00
  volume of cell :      730.46
      direct lattice vectors                 reciprocal lattice vectors
     6.991796429 -0.000181620  0.035148851     0.143028423  0.000001259 -0.000728902
    -0.000116167 10.267692530 -0.005062894     0.000002235  0.097392895  0.000058716
     0.051855198 -0.006135659 10.175254742    -0.000494069  0.000048455  0.098280185

  length of vectors
     6.991884780 10.267693778 10.175388724     0.143030281  0.097392912  0.098281439


 FORCES acting on ions
    electron-ion (+dipol)            ewald-force                    non-local-force                 convergence-correction
 -----------------------------------------------------------------------------------------------
   0.873E+02 0.790E+01 0.493E+02   -.863E+02 -.782E+01 -.493E+02   -.101E+01 -.105E+00 -.385E-01   -.198E-02 0.261E-01 -.236E-01
   0.866E+01 -.114E+03 -.122E+03   -.845E+01 0.115E+03 0.121E+03   -.223E+00 -.397E+00 0.500E+00   0.113E-01 -.146E-01 0.348E-01
   0.217E+03 0.769E+01 0.394E+02   -.216E+03 -.758E+01 -.388E+02   -.107E+01 -.803E-01 -.526E+00   0.392E-02 -.260E-01 -.148E-01
   -.541E+02 0.274E+03 0.206E+02   0.530E+02 -.275E+03 -.196E+02   0.114E+01 0.597E+00 -.967E+00   -.275E-02 -.105E-01 -.350E-01
   0.324E+02 -.285E+03 -.339E+02   -.317E+02 0.285E+03 0.340E+02   -.731E+00 -.736E+00 -.655E-01   -.127E-01 0.121E-01 -.313E-02
   -.398E+02 -.284E+03 0.771E+02   0.393E+02 0.285E+03 -.777E+02   0.565E+00 -.384E+00 0.590E+00   0.815E-02 0.620E-02 0.262E-02
   -.430E+02 -.106E+03 -.103E+02   0.436E+02 0.106E+03 0.110E+02   -.637E+00 0.336E+00 -.729E+00   0.153E-01 0.435E-02 0.305E-01
   -.771E+02 0.984E+02 -.110E+03   0.767E+02 -.986E+02 0.110E+03   0.437E+00 0.198E+00 0.174E+00   0.673E-02 -.277E-02 0.638E-02
   0.318E+02 -.326E+03 0.401E+02   -.327E+02 0.326E+03 -.401E+02   0.861E+00 0.881E+00 -.205E-01   0.635E-02 0.648E-02 -.121E-01
   -.848E+01 0.185E+03 0.883E+02   0.845E+01 -.185E+03 -.883E+02   0.321E-01 0.979E-01 0.622E-01   -.909E-04 0.136E-01 0.299E-02
   0.470E+02 0.227E+03 -.180E+03   -.472E+02 -.228E+03 0.180E+03   0.165E+00 0.621E+00 -.101E-01   -.108E-01 0.845E-02 -.107E-01
   -.515E+02 -.114E+03 0.258E+02   0.510E+02 0.114E+03 -.251E+02   0.521E+00 0.897E-01 -.712E+00   -.301E-02 -.371E-02 -.101E-01
   -.111E+02 0.810E+02 0.630E+01   0.121E+02 -.811E+02 -.619E+01   -.962E+00 0.163E+00 -.126E+00   0.144E-02 0.641E-02 0.123E-01
   -.521E+01 0.134E+02 -.127E+02   0.605E+01 -.135E+02 0.131E+02   -.835E+00 0.827E-01 -.380E+00   -.151E-02 -.709E-02 -.510E-02
   0.401E+02 -.132E+03 0.908E+01   -.397E+02 0.132E+03 -.966E+01   -.399E+00 -.337E+00 0.574E+00   0.969E-04 -.749E-02 0.376E-02
   -.250E+01 0.138E+02 0.550E+02   0.189E+01 -.137E+02 -.552E+02   0.611E+00 -.397E-01 0.279E+00   0.146E-02 -.767E-02 -.482E-02
   0.192E+02 0.147E+03 0.705E+02   -.198E+02 -.147E+03 -.707E+02   0.650E+00 -.530E+00 0.190E+00   -.792E-03 0.554E-02 -.653E-02
   0.481E+02 -.111E+03 0.404E+02   -.476E+02 0.111E+03 -.400E+02   -.527E+00 0.607E-01 -.387E+00   0.249E-02 -.431E-02 -.637E-02
   -.109E+02 -.446E+02 -.160E+02   0.108E+02 0.447E+02 0.154E+02   0.152E+00 -.922E-01 0.621E+00   -.790E-03 -.680E-02 0.748E-02
   0.183E+02 -.977E+02 -.455E+02   -.185E+02 0.975E+02 0.455E+02   0.182E+00 0.214E+00 0.544E-01   0.207E-02 -.547E-02 0.218E-02
   -.482E+01 0.505E+02 -.527E+02   0.446E+01 -.503E+02 0.527E+02   0.370E+00 -.168E+00 0.227E-01   -.290E-04 0.815E-02 0.428E-02
   -.460E+01 -.117E+03 -.479E+01   0.516E+01 0.117E+03 0.483E+01   -.566E+00 0.119E+00 -.269E-01   0.104E-02 -.402E-03 -.461E-02
   -.908E+02 0.276E+02 -.711E+01   0.900E+02 -.277E+02 0.773E+01   0.779E+00 0.148E+00 -.615E+00   -.197E-02 -.327E-02 -.437E-02
   0.378E+02 0.984E+02 0.424E+02   -.369E+02 -.986E+02 -.423E+02   -.952E+00 0.149E+00 -.179E+00   0.136E-02 -.278E-02 -.794E-02
   -.154E+01 0.818E+02 -.136E+02   0.397E+00 -.819E+02 0.135E+02   0.115E+01 0.921E-01 0.500E-01   -.128E-02 0.500E-02 0.911E-02
   0.329E+02 0.475E+02 -.432E+02   -.326E+02 -.480E+02 0.429E+02   -.297E+00 0.446E+00 0.292E+00   -.500E-03 -.256E-02 0.421E-02
   -.135E+02 0.404E+02 0.489E+00   0.134E+02 -.401E+02 -.346E+00   0.688E-01 -.203E+00 -.149E+00   -.299E-04 -.145E-02 0.358E-02
   -.481E+02 0.225E+03 -.117E+03   0.483E+02 -.226E+03 0.117E+03   -.273E+00 0.397E+00 0.930E-01   0.435E-02 0.103E-01 -.185E-01
   -.753E+02 0.285E+03 0.116E+03   0.763E+02 -.285E+03 -.116E+03   -.101E+01 -.229E+00 -.911E-01   0.131E-02 0.118E-01 -.172E-01
   -.298E+01 0.177E+03 -.153E+03   0.348E+01 -.177E+03 0.153E+03   -.496E+00 -.184E-01 0.316E+00   0.195E-02 0.278E-01 0.145E-01
   0.115E+02 0.165E+03 0.464E+02   -.115E+02 -.165E+03 -.464E+02   -.300E-01 -.953E-01 -.701E-01   -.136E-02 0.181E-01 0.125E-01
   -.838E+02 -.170E+01 0.118E+03   0.828E+02 0.211E+01 -.118E+03   0.963E+00 -.430E+00 -.778E-01   -.136E-02 0.201E-01 -.290E-01
   0.335E+02 -.130E+03 0.394E+01   -.339E+02 0.130E+03 -.413E+01   0.397E+00 -.198E+00 0.158E+00   -.752E-02 0.424E-02 0.258E-01
   0.623E+02 0.608E+02 0.112E+03   -.623E+02 -.609E+02 -.113E+03   -.319E-01 0.881E-01 0.583E+00   -.152E-03 -.468E-02 0.195E-01
   -.692E+02 -.239E+03 0.423E+02   0.685E+02 0.239E+03 -.428E+02   0.714E+00 0.103E+00 0.503E+00   0.145E-02 -.168E-01 0.108E-01
   -.289E+02 -.213E+03 -.811E+02   0.291E+02 0.213E+03 0.809E+02   -.116E+00 -.108E-01 0.264E+00   -.911E-02 -.117E-01 0.106E-01
 -----------------------------------------------------------------------------------------------
   0.397E+00 -.883E+00 -.160E+00   -.320E-13 -.142E-12 -.426E-13   -.409E+00 0.829E+00 0.158E+00   0.131E-01 0.548E-01 0.391E-02
 
 
 POSITION                                       TOTAL-FORCE (eV/Angst)
 -----------------------------------------------------------------------------------
      1.84438      1.76332      1.78354         0.002057     -0.001648     -0.003398
      0.15800      6.88379      6.67232        -0.005527     -0.006223     -0.003791
      3.77199      6.82138      0.07999        -0.002235      0.001253     -0.001585
      5.03657      8.54577      1.83857         0.000103      0.001837      0.001247
      3.56483      3.53039      3.49087         0.003662     -0.000910     -0.001728
      6.90501      3.51027      3.25022         0.001213     -0.000489     -0.003167
      0.13499      3.37043      6.94114        -0.005413      0.001891     -0.003497
      1.70291      8.52054      4.98748        -0.001620     -0.002120      0.001787
      3.45116      3.28942     10.17468        -0.004345     -0.001238     -0.001813
      1.77707      1.72184      8.49469         0.001251      0.003060      0.001493
      3.46365     10.19000      3.45405         0.000635      0.001003     -0.004339
      5.11456      5.08820      1.84616        -0.000939     -0.000474     -0.001827
      0.30296     10.24517      6.81533         0.000101      0.003806     -0.001218
      3.59739      6.83341      3.53841         0.002024      0.001724     -0.000733
      5.41423      5.16803      5.05587         0.001694     -0.000723     -0.002897
      6.89145      6.86999      3.34666         0.002124      0.000817      0.001733
      3.34461      0.13851      0.00877        -0.001483     -0.002065     -0.004301
      1.86962      5.17505      1.70859         0.001195     -0.001249      0.000995
      3.48646      6.80107      6.61202         0.004073     -0.001514      0.004234
      1.83669      5.21868      8.60146        -0.006450      0.001705     -0.000548
      1.65233      1.77708      4.95955         0.004309      0.000059      0.001091
      0.04915      3.38708      0.05552         0.002288     -0.000914      0.006016
      6.76593      6.85482      0.26148        -0.003057     -0.002746      0.004293
      1.93085      8.43201      1.65193        -0.001275      0.000750     -0.003577
      3.31096     10.25495      6.72988         0.000535     -0.000996      0.003333
      5.37430      8.59377      5.16079         0.000600      0.000519      0.002713
      1.85909      8.42045      8.60895        -0.005255     -0.000007     -0.002512
      7.00024     10.16491      3.23763         0.001285      0.000833      0.004945
      0.06373      0.03228      0.06559        -0.002566      0.002128      0.001498
      5.36980      1.70755      5.13238         0.001926     -0.000547      0.000686
      5.28640      1.66087      8.46601        -0.001589      0.004393      0.002403
      5.07235      1.76535      1.76103        -0.000743     -0.001245     -0.001564
      3.48894      3.44217      6.72794         0.006263      0.004040      0.000293
      5.32836      8.60986      8.39505        -0.000537     -0.002114      0.001224
      1.60813      5.07952      4.99394         0.002814      0.000396     -0.002357
      5.35480      5.11696      8.41447         0.002884     -0.002991      0.004867
 -----------------------------------------------------------------------------------
    total drift:                                0.000484      0.000424      0.002220


--------------------------------------------------------------------------------------------------------



  FREE ENERGIE OF THE ION-ELECTRON SYSTEM (eV)
  ---------------------------------------------------
  free  energy   TOTEN  =      -356.34726890 eV

  energy  without entropy=     -356.35774175  energy(sigma->0) =     -356.35075985
 
 d Force = 0.9551345E-04[ 0.728E-04, 0.118E-03]  d Energy = 0.1125920E-03-0.171E-04
 d Force =-0.4617667E+00[-0.463E+00,-0.461E+00]  d Ewald  = 0.3417980E-01-0.496E+00


--------------------------------------------------------------------------------------------------------


    POTLOK:  cpu time    0.0392: real time    0.0405


--------------------------------------------------------------------------------------------------------


 Conjugate gradient step on ions:
 trial-energy change:   -0.000113  1 .order   -0.000116   -0.000140   -0.000091
  (g-gl).g = 0.432E-04      g.g   = 0.440E-04  gl.gl    = 0.106E-03
 g(Force)  = 0.252E-04   g(Stress)= 0.188E-04 ortho     = 0.694E-05
 gamma     =   0.40678
 trial     =   2.99375
 opt step  =   8.56208  (harmonic =   8.56208) maximal distance =0.00167327
 next E    =  -356.347357   (d E  =  -0.00020)


--------------------------------------------------------------------------------------------------------


  
 reached required accuracy - stopping structural energy minimisation
     LOOP+:  cpu time    5.2263: real time    5.9287
    4ORBIT:  cpu time    0.0000: real time    0.0000

 total amount of memory used by VASP on root node    68962. kBytes
========================================================================

   base      :      30000. kBytes
   nonlr-proj:      10408. kBytes
   fftplans  :       2814. kBytes
   grid      :       5360. kBytes
   one-center:        124. kBytes
   wavefun   :      20256. kBytes
 
  
  
 General timing and accounting informations for this job:
 ========================================================
  
                  Total CPU time used (sec):      193.210
                            User time (sec):      191.735
                          System time (sec):        1.475
                         Elapsed time (sec):      222.713
  
                   Maximum memory used (kb):      281060.
                   Average memory used (kb):           0.
  
                          Minor page faults:        97383
                          Major page faults:           31
                 Voluntary context switches:         7848
