       N       E                     dE             d eps       ncg     rms          rms(c)
DAV:   1     0.179331757959E+04    0.17933E+04   -0.10932E+05  5416   0.105E+03
DAV:   2    -0.103740687557E+03   -0.18971E+04   -0.18307E+04  5632   0.381E+02
DAV:   3    -0.352103931960E+03   -0.24836E+03   -0.23598E+03  8328   0.957E+01
DAV:   4    -0.380866404130E+03   -0.28762E+02   -0.27391E+02  8336   0.300E+01
DAV:   5    -0.383773042730E+03   -0.29066E+01   -0.28489E+01  7912   0.101E+01    0.658E+01
RMM:   6    -0.373194757472E+03    0.10578E+02   -0.25290E+01  6912   0.987E+00    0.314E+01
RMM:   7    -0.375124483374E+03   -0.19297E+01   -0.28815E+01  7442   0.867E+00    0.122E+01
RMM:   8    -0.368709885449E+03    0.64146E+01   -0.74895E+00  7312   0.406E+00    0.448E+00
RMM:   9    -0.368404637087E+03    0.30525E+00   -0.26152E+00  7555   0.217E+00    0.285E+00
RMM:  10    -0.368380964064E+03    0.23673E-01   -0.55511E-01  7574   0.107E+00    0.155E+00
RMM:  11    -0.368347860078E+03    0.33104E-01   -0.15712E-01  7553   0.637E-01    0.751E-01
RMM:  12    -0.368341464126E+03    0.63960E-02   -0.65027E-02  7603   0.382E-01    0.447E-01
RMM:  13    -0.368340162579E+03    0.13015E-02   -0.17380E-02  7706   0.179E-01    0.244E-01
RMM:  14    -0.368340262231E+03   -0.99651E-04   -0.73989E-03  7827   0.102E-01    0.143E-01
RMM:  15    -0.368340378806E+03   -0.11658E-03   -0.35873E-03  7594   0.688E-02    0.602E-02
RMM:  16    -0.368340431153E+03   -0.52347E-04   -0.14670E-03  6680   0.371E-02    0.395E-02
RMM:  17    -0.368340442234E+03   -0.11081E-04   -0.62724E-04  6407   0.277E-02    0.198E-02
RMM:  18    -0.368340458739E+03   -0.16505E-04   -0.29993E-04  5857   0.194E-02    0.110E-02
RMM:  19    -0.368340463466E+03   -0.47271E-05   -0.11052E-04  4485   0.135E-02    0.631E-03
RMM:  20    -0.368340465791E+03   -0.23250E-05   -0.61122E-05  3962   0.109E-02
   1 F= -.36834047E+03 E0= -.36834063E+03  d E =-.368340E+03
       N       E                     dE             d eps       ncg     rms          rms(c)
DAV:   1    -0.368416395946E+03   -0.75932E-01   -0.27149E+00  6168   0.545E+00    0.194E+00
RMM:   2    -0.368395639988E+03    0.20756E-01   -0.31885E-01  7426   0.145E+00    0.682E-01
RMM:   3    -0.368383851256E+03    0.11789E-01   -0.61222E-02  7722   0.448E-01    0.487E-01
RMM:   4    -0.368377575588E+03    0.62757E-02   -0.16149E-02  7683   0.253E-01    0.263E-01
RMM:   5    -0.368376507822E+03    0.10678E-02   -0.50542E-03  7649   0.143E-01    0.191E-01
RMM:   6    -0.368376730200E+03   -0.22238E-03   -0.19523E-03  7757   0.722E-02    0.124E-01
RMM:   7    -0.368376823118E+03   -0.92919E-04   -0.88335E-04  7487   0.523E-02    0.706E-02
RMM:   8    -0.368376890860E+03   -0.67741E-04   -0.44967E-04  6782   0.333E-02    0.460E-02
RMM:   9    -0.368376952463E+03   -0.61603E-04   -0.19900E-04  6048   0.242E-02    0.347E-02
RMM:  10    -0.368377003577E+03   -0.51115E-04   -0.10191E-04  4894   0.180E-02    0.177E-02
RMM:  11    -0.368377028132E+03   -0.24555E-04   -0.62562E-05  4507   0.154E-02    0.672E-03
RMM:  12    -0.368377031687E+03   -0.35547E-05   -0.20445E-05  3598   0.131E-02
   2 F= -.36837703E+03 E0= -.36837700E+03  d E =-.365659E-01
       N       E                     dE             d eps       ncg     rms          rms(c)
DAV:   1    -0.368548723145E+03   -0.17170E+00   -0.98698E+00  5872   0.104E+01    0.374E+00
RMM:   2    -0.368471515620E+03    0.77208E-01   -0.11531E+00  7380   0.277E+00    0.130E+00
RMM:   3    -0.368429139015E+03    0.42377E-01   -0.22115E-01  7724   0.847E-01    0.931E-01
RMM:   4    -0.368405957465E+03    0.23182E-01   -0.57836E-02  7685   0.478E-01    0.502E-01
RMM:   5    -0.368402182785E+03    0.37747E-02   -0.18169E-02  7659   0.268E-01    0.368E-01
RMM:   6    -0.368402915452E+03   -0.73267E-03   -0.69240E-03  7805   0.137E-01    0.239E-01
RMM:   7    -0.368403190944E+03   -0.27549E-03   -0.33245E-03  8226   0.997E-02    0.137E-01
RMM:   8    -0.368403411497E+03   -0.22055E-03   -0.16978E-03  8022   0.629E-02    0.904E-02
RMM:   9    -0.368403599185E+03   -0.18769E-03   -0.65192E-04  7200   0.413E-02    0.685E-02
RMM:  10    -0.368403762724E+03   -0.16354E-03   -0.35881E-04  6769   0.303E-02    0.345E-02
RMM:  11    -0.368403830146E+03   -0.67422E-04   -0.21172E-04  5659   0.237E-02    0.151E-02
RMM:  12    -0.368403839884E+03   -0.97378E-05   -0.79684E-05  5038   0.172E-02
   3 F= -.36840384E+03 E0= -.36840350E+03  d E =-.633741E-01
       N       E                     dE             d eps       ncg     rms          rms(c)
DAV:   1    -0.368426983061E+03   -0.23153E-01   -0.24090E+00  5160   0.409E+00    0.559E-01
RMM:   2    -0.368435900138E+03   -0.89171E-02   -0.11620E-01  6945   0.863E-01    0.299E-01
RMM:   3    -0.368433106114E+03    0.27940E-02   -0.13161E-02  7495   0.242E-01    0.226E-01
RMM:   4    -0.368432577339E+03    0.52877E-03   -0.27510E-03  7657   0.873E-02    0.139E-01
RMM:   5    -0.368432484872E+03    0.92468E-04   -0.11858E-03  7609   0.605E-02    0.779E-02
RMM:   6    -0.368432446822E+03    0.38049E-04   -0.48214E-04  7585   0.382E-02    0.379E-02
RMM:   7    -0.368432444836E+03    0.19864E-05   -0.18238E-04  6453   0.203E-02    0.245E-02
RMM:   8    -0.368432442879E+03    0.19570E-05   -0.55059E-05  4608   0.133E-02
   4 F= -.36843244E+03 E0= -.36843221E+03  d E =-.286030E-01
       N       E                     dE             d eps       ncg     rms          rms(c)
DAV:   1    -0.368434171786E+03   -0.17269E-02   -0.21710E+01  5064   0.123E+01    0.166E+00
RMM:   2    -0.368512992065E+03   -0.78820E-01   -0.10386E+00  6769   0.256E+00    0.849E-01
RMM:   3    -0.368492306287E+03    0.20686E-01   -0.12182E-01  7515   0.748E-01    0.694E-01
RMM:   4    -0.368487081188E+03    0.52251E-02   -0.24599E-02  7723   0.260E-01    0.427E-01
RMM:   5    -0.368486355424E+03    0.72576E-03   -0.11155E-02  7742   0.183E-01    0.239E-01
RMM:   6    -0.368486024287E+03    0.33114E-03   -0.44440E-03  7788   0.118E-01    0.117E-01
RMM:   7    -0.368486075455E+03   -0.51167E-04   -0.17795E-03  8053   0.584E-02    0.785E-02
RMM:   8    -0.368486099410E+03   -0.23955E-04   -0.63076E-04  7108   0.344E-02    0.499E-02
RMM:   9    -0.368486115893E+03   -0.16483E-04   -0.32048E-04  6810   0.268E-02    0.309E-02
RMM:  10    -0.368486112440E+03    0.34528E-05   -0.12336E-04  6042   0.184E-02    0.166E-02
RMM:  11    -0.368486112757E+03   -0.31713E-06   -0.67445E-05  5117   0.149E-02
   5 F= -.36848611E+03 E0= -.36848636E+03  d E =-.822729E-01
       N       E                     dE             d eps       ncg     rms          rms(c)
DAV:   1    -0.368227329589E+03    0.25878E+00   -0.87192E+01  5152   0.246E+01    0.327E+00
RMM:   2    -0.368536545247E+03   -0.30922E+00   -0.42280E+00  6626   0.517E+00    0.157E+00
RMM:   3    -0.368481209067E+03    0.55336E-01   -0.50476E-01  7538   0.157E+00    0.141E+00
RMM:   4    -0.368457192449E+03    0.24017E-01   -0.99382E-02  7800   0.523E-01    0.866E-01
RMM:   5    -0.368454261487E+03    0.29310E-02   -0.46220E-02  7716   0.374E-01    0.490E-01
RMM:   6    -0.368452997352E+03    0.12641E-02   -0.18956E-02  7876   0.242E-01    0.251E-01
RMM:   7    -0.368453149077E+03   -0.15172E-03   -0.75138E-03  8483   0.123E-01    0.177E-01
RMM:   8    -0.368453167066E+03   -0.17989E-04   -0.28818E-03  8334   0.735E-02    0.116E-01
RMM:   9    -0.368453238124E+03   -0.71058E-04   -0.12713E-03  7845   0.497E-02    0.690E-02
RMM:  10    -0.368453250483E+03   -0.12359E-04   -0.54199E-04  7132   0.333E-02    0.353E-02
RMM:  11    -0.368453259701E+03   -0.92176E-05   -0.27273E-04  6589   0.243E-02    0.235E-02
RMM:  12    -0.368453256163E+03    0.35380E-05   -0.98426E-05  5551   0.165E-02
   6 F= -.36845326E+03 E0= -.36845496E+03  d E =-.494163E-01
       N       E                     dE             d eps       ncg     rms          rms(c)
DAV:   1    -0.368411103882E+03    0.42156E-01   -0.39766E+01  5040   0.164E+01    0.231E+00
RMM:   2    -0.368555498649E+03   -0.14439E+00   -0.19135E+00  6741   0.352E+00    0.119E+00
RMM:   3    -0.368504634716E+03    0.50864E-01   -0.20137E-01  7533   0.953E-01    0.871E-01
RMM:   4    -0.368496725314E+03    0.79094E-02   -0.46236E-02  7711   0.351E-01    0.528E-01
RMM:   5    -0.368495520178E+03    0.12051E-02   -0.18529E-02  7780   0.232E-01    0.316E-01
RMM:   6    -0.368495508832E+03    0.11345E-04   -0.77158E-03  7843   0.148E-01    0.175E-01
RMM:   7    -0.368495512561E+03   -0.37284E-05   -0.29958E-03  8169   0.813E-02    0.113E-01
RMM:   8    -0.368495623904E+03   -0.11134E-03   -0.12309E-03  7719   0.472E-02    0.686E-02
RMM:   9    -0.368495659196E+03   -0.35292E-04   -0.48736E-04  7127   0.339E-02    0.386E-02
RMM:  10    -0.368495687758E+03   -0.28562E-04   -0.20436E-04  6367   0.217E-02    0.219E-02
RMM:  11    -0.368495695487E+03   -0.77288E-05   -0.90103E-05  5592   0.164E-02
   7 F= -.36849570E+03 E0= -.36849637E+03  d E =-.918556E-01
       N       E                     dE             d eps       ncg     rms          rms(c)
DAV:   1    -0.368503211780E+03   -0.75240E-02   -0.61919E-01  5264   0.235E+00    0.457E-01
RMM:   2    -0.368503797304E+03   -0.58552E-03   -0.34329E-02  6908   0.500E-01    0.190E-01
RMM:   3    -0.368502995805E+03    0.80150E-03   -0.50486E-03  7439   0.159E-01    0.142E-01
RMM:   4    -0.368502546164E+03    0.44964E-03   -0.13804E-03  7553   0.663E-02    0.771E-02
RMM:   5    -0.368502465072E+03    0.81092E-04   -0.48612E-04  7523   0.437E-02    0.520E-02
RMM:   6    -0.368502454366E+03    0.10706E-04   -0.19847E-04  6836   0.232E-02    0.305E-02
RMM:   7    -0.368502446043E+03    0.83237E-05   -0.75009E-05  5199   0.162E-02
   8 F= -.36850245E+03 E0= -.36850313E+03  d E =-.675056E-02
       N       E                     dE             d eps       ncg     rms          rms(c)
DAV:   1    -0.368517485721E+03   -0.15031E-01   -0.55651E+00  4928   0.705E+00    0.134E+00
RMM:   2    -0.368523626613E+03   -0.61409E-02   -0.30526E-01  6841   0.150E+00    0.560E-01
RMM:   3    -0.368516493149E+03    0.71335E-02   -0.44088E-02  7467   0.474E-01    0.418E-01
RMM:   4    -0.368512596400E+03    0.38967E-02   -0.11362E-02  7479   0.191E-01    0.231E-01
RMM:   5    -0.368511912594E+03    0.68381E-03   -0.43142E-03  7623   0.123E-01    0.155E-01
RMM:   6    -0.368511881013E+03    0.31581E-04   -0.16907E-03  7916   0.689E-02    0.926E-02
RMM:   7    -0.368511873513E+03    0.75008E-05   -0.80170E-04  7821   0.439E-02    0.530E-02
RMM:   8    -0.368511880754E+03   -0.72419E-05   -0.32951E-04  6627   0.270E-02    0.351E-02
RMM:   9    -0.368511887248E+03   -0.64934E-05   -0.14618E-04  5626   0.214E-02    0.263E-02
RMM:  10    -0.368511891334E+03   -0.40866E-05   -0.70495E-05  5009   0.152E-02
   9 F= -.36851189E+03 E0= -.36851262E+03  d E =-.161958E-01
       N       E                     dE             d eps       ncg     rms          rms(c)
DAV:   1    -0.368519068482E+03   -0.71812E-02   -0.51531E-01  5488   0.220E+00    0.555E-01
RMM:   2    -0.368518380819E+03    0.68766E-03   -0.34885E-02  7042   0.495E-01    0.216E-01
RMM:   3    -0.368517375949E+03    0.10049E-02   -0.61866E-03  7611   0.161E-01    0.162E-01
RMM:   4    -0.368516767706E+03    0.60824E-03   -0.18947E-03  7665   0.812E-02    0.834E-02
RMM:   5    -0.368516686772E+03    0.80935E-04   -0.60681E-04  7535   0.497E-02    0.594E-02
RMM:   6    -0.368516714917E+03   -0.28145E-04   -0.24932E-04  6904   0.253E-02    0.391E-02
RMM:   7    -0.368516722662E+03   -0.77449E-05   -0.10117E-04  6047   0.187E-02    0.223E-02
RMM:   8    -0.368516734734E+03   -0.12072E-04   -0.48022E-05  3996   0.130E-02    0.125E-02
RMM:   9    -0.368516742779E+03   -0.80449E-05   -0.25720E-05  3574   0.108E-02
  10 F= -.36851674E+03 E0= -.36851739E+03  d E =-.485144E-02
       N       E                     dE             d eps       ncg     rms          rms(c)
DAV:   1    -0.368534947679E+03   -0.18213E-01   -0.31980E+00  5168   0.549E+00    0.138E+00
RMM:   2    -0.368531113780E+03    0.38339E-02   -0.21443E-01  6846   0.126E+00    0.529E-01
RMM:   3    -0.368524882912E+03    0.62309E-02   -0.35752E-02  7517   0.405E-01    0.395E-01
RMM:   4    -0.368521159101E+03    0.37238E-02   -0.10983E-02  7694   0.195E-01    0.205E-01
RMM:   5    -0.368520665419E+03    0.49368E-03   -0.33414E-03  7580   0.118E-01    0.150E-01
RMM:   6    -0.368520799558E+03   -0.13414E-03   -0.14567E-03  7899   0.599E-02    0.996E-02
RMM:   7    -0.368520821752E+03   -0.22194E-04   -0.59574E-04  7242   0.446E-02    0.566E-02
RMM:   8    -0.368520879047E+03   -0.57295E-04   -0.31521E-04  6543   0.274E-02    0.342E-02
RMM:   9    -0.368520913954E+03   -0.34907E-04   -0.14836E-04  5414   0.220E-02    0.267E-02
RMM:  10    -0.368520942235E+03   -0.28280E-04   -0.71958E-05  4839   0.156E-02    0.154E-02
RMM:  11    -0.368520957678E+03   -0.15444E-04   -0.35495E-05  4001   0.137E-02    0.785E-03
RMM:  12    -0.368520962215E+03   -0.45367E-05   -0.18780E-05  3550   0.127E-02
  11 F= -.36852096E+03 E0= -.36852142E+03  d E =-.907088E-02
       N       E                     dE             d eps       ncg     rms          rms(c)
DAV:   1    -0.368521337867E+03   -0.38019E-03   -0.56120E-02  5504   0.727E-01    0.184E-01
RMM:   2    -0.368521279364E+03    0.58503E-04   -0.38049E-03  6984   0.165E-01    0.722E-02
RMM:   3    -0.368521167336E+03    0.11203E-03   -0.66612E-04  7503   0.536E-02    0.544E-02
RMM:   4    -0.368521094903E+03    0.72433E-04   -0.19888E-04  7180   0.270E-02    0.284E-02
RMM:   5    -0.368521079814E+03    0.15088E-04   -0.56373E-05  4609   0.176E-02    0.199E-02
RMM:   6    -0.368521075693E+03    0.41215E-05   -0.19173E-05  2917   0.106E-02
  12 F= -.36852108E+03 E0= -.36852155E+03  d E =-.918436E-02
       N       E                     dE             d eps       ncg     rms          rms(c)
DAV:   1    -0.368522544044E+03   -0.14642E-02   -0.22355E-01  5136   0.129E+00    0.113E-01
RMM:   2    -0.368523043680E+03   -0.49964E-03   -0.68523E-03  6520   0.243E-01    0.554E-02
RMM:   3    -0.368523014743E+03    0.28937E-04   -0.86591E-04  7201   0.646E-02    0.449E-02
RMM:   4    -0.368522996802E+03    0.17942E-04   -0.19401E-04  6374   0.199E-02    0.307E-02
RMM:   5    -0.368522990586E+03    0.62158E-05   -0.68530E-05  5480   0.137E-02
  13 F= -.36852299E+03 E0= -.36852347E+03  d E =-.191489E-02
       N       E                     dE             d eps       ncg     rms          rms(c)
DAV:   1    -0.368523339863E+03   -0.34306E-03   -0.20114E+00  4928   0.387E+00    0.346E-01
RMM:   2    -0.368527896204E+03   -0.45563E-02   -0.62487E-02  6783   0.732E-01    0.178E-01
RMM:   3    -0.368527715549E+03    0.18066E-03   -0.84082E-03  7447   0.190E-01    0.141E-01
RMM:   4    -0.368527565368E+03    0.15018E-03   -0.18309E-03  8244   0.604E-02    0.979E-02
RMM:   5    -0.368527523071E+03    0.42298E-04   -0.70520E-04  7518   0.470E-02    0.507E-02
RMM:   6    -0.368527506487E+03    0.16583E-04   -0.32442E-04  7239   0.325E-02    0.253E-02
RMM:   7    -0.368527501554E+03    0.49331E-05   -0.10882E-04  5322   0.157E-02    0.162E-02
RMM:   8    -0.368527500691E+03    0.86282E-06   -0.42220E-05  3803   0.130E-02
  14 F= -.36852750E+03 E0= -.36852800E+03  d E =-.642500E-02
       N       E                     dE             d eps       ncg     rms          rms(c)
DAV:   1    -0.368513966627E+03    0.13535E-01   -0.80525E+00  4928   0.775E+00    0.697E-01
RMM:   2    -0.368532371640E+03   -0.18405E-01   -0.25104E-01  6772   0.147E+00    0.358E-01
RMM:   3    -0.368531707557E+03    0.66408E-03   -0.33333E-02  7479   0.383E-01    0.284E-01
RMM:   4    -0.368531117242E+03    0.59031E-03   -0.71848E-03  8348   0.121E-01    0.200E-01
RMM:   5    -0.368530930706E+03    0.18654E-03   -0.27356E-03  7514   0.942E-02    0.103E-01
RMM:   6    -0.368530870075E+03    0.60630E-04   -0.13058E-03  7760   0.655E-02    0.516E-02
RMM:   7    -0.368530854084E+03    0.15991E-04   -0.47157E-04  7053   0.295E-02    0.328E-02
RMM:   8    -0.368530852265E+03    0.18194E-05   -0.14312E-04  5511   0.191E-02    0.218E-02
RMM:   9    -0.368530854411E+03   -0.21463E-05   -0.84740E-05  5298   0.157E-02
  15 F= -.36853085E+03 E0= -.36853150E+03  d E =-.977872E-02
       N       E                     dE             d eps       ncg     rms          rms(c)
DAV:   1    -0.368532635977E+03   -0.17837E-02   -0.73684E-01  5016   0.244E+00    0.313E-01
RMM:   2    -0.368534249484E+03   -0.16135E-02   -0.30872E-02  7283   0.486E-01    0.151E-01
RMM:   3    -0.368533792260E+03    0.45722E-03   -0.36821E-03  7399   0.125E-01    0.114E-01
RMM:   4    -0.368533647292E+03    0.14497E-03   -0.92923E-04  7585   0.498E-02    0.734E-02
RMM:   5    -0.368533615079E+03    0.32212E-04   -0.38005E-04  7502   0.348E-02    0.422E-02
RMM:   6    -0.368533613238E+03    0.18413E-05   -0.15573E-04  6960   0.222E-02    0.231E-02
RMM:   7    -0.368533617109E+03   -0.38715E-05   -0.51601E-05  4239   0.129E-02
  16 F= -.36853362E+03 E0= -.36853434E+03  d E =-.276270E-02
       N       E                     dE             d eps       ncg     rms          rms(c)
DAV:   1    -0.368532935191E+03    0.67805E-03   -0.15814E+00  4928   0.357E+00    0.458E-01
RMM:   2    -0.368536426298E+03   -0.34911E-02   -0.66125E-02  7273   0.712E-01    0.222E-01
RMM:   3    -0.368535414770E+03    0.10115E-02   -0.78082E-03  7390   0.182E-01    0.166E-01
RMM:   4    -0.368535109047E+03    0.30572E-03   -0.19804E-03  7700   0.722E-02    0.106E-01
RMM:   5    -0.368535049321E+03    0.59726E-04   -0.81591E-04  7725   0.508E-02    0.606E-02
RMM:   6    -0.368535049235E+03    0.86398E-07   -0.33341E-04  7474   0.317E-02    0.341E-02
RMM:   7    -0.368535058926E+03   -0.96912E-05   -0.13025E-04  5691   0.172E-02    0.221E-02
RMM:   8    -0.368535065764E+03   -0.68380E-05   -0.48258E-05  4106   0.139E-02
  17 F= -.36853507E+03 E0= -.36853591E+03  d E =-.421135E-02
       N       E                     dE             d eps       ncg     rms          rms(c)
DAV:   1    -0.368549548599E+03   -0.14490E-01   -0.15288E+00  5544   0.401E+00    0.126E+00
RMM:   2    -0.368542593890E+03    0.69547E-02   -0.13248E-01  7167   0.974E-01    0.448E-01
RMM:   3    -0.368538627925E+03    0.39660E-02   -0.27670E-02  7686   0.313E-01    0.345E-01
RMM:   4    -0.368535290250E+03    0.33377E-02   -0.78066E-03  7670   0.176E-01    0.170E-01
RMM:   5    -0.368534869367E+03    0.42088E-03   -0.24451E-03  7564   0.101E-01    0.124E-01
RMM:   6    -0.368534918238E+03   -0.48871E-04   -0.10138E-03  7820   0.506E-02    0.805E-02
RMM:   7    -0.368534893318E+03    0.24920E-04   -0.39116E-04  6984   0.372E-02    0.461E-02
RMM:   8    -0.368534900225E+03   -0.69076E-05   -0.21698E-04  6470   0.233E-02    0.297E-02
RMM:   9    -0.368534907774E+03   -0.75486E-05   -0.86967E-05  4642   0.184E-02
  18 F= -.36853491E+03 E0= -.36853598E+03  d E =0.157990E-03
       N       E                     dE             d eps       ncg     rms          rms(c)
DAV:   1    -0.368540133161E+03   -0.52329E-02   -0.44151E-01  5576   0.215E+00    0.684E-01
RMM:   2    -0.368538053588E+03    0.20796E-02   -0.38828E-02  7183   0.524E-01    0.244E-01
RMM:   3    -0.368536922443E+03    0.11311E-02   -0.81425E-03  7671   0.170E-01    0.189E-01
RMM:   4    -0.368535936403E+03    0.98604E-03   -0.22496E-03  7646   0.950E-02    0.927E-02
RMM:   5    -0.368535821205E+03    0.11520E-03   -0.70475E-04  7491   0.545E-02    0.662E-02
RMM:   6    -0.368535853318E+03   -0.32113E-04   -0.27378E-04  6886   0.278E-02    0.427E-02
RMM:   7    -0.368535860779E+03   -0.74605E-05   -0.10480E-04  5933   0.201E-02    0.239E-02
RMM:   8    -0.368535874496E+03   -0.13717E-04   -0.57877E-05  4111   0.143E-02    0.141E-02
RMM:   9    -0.368535883778E+03   -0.92819E-05   -0.26663E-05  3555   0.118E-02
  19 F= -.36853588E+03 E0= -.36853683E+03  d E =-.818014E-03
       N       E                     dE             d eps       ncg     rms          rms(c)
DAV:   1    -0.368535893209E+03   -0.18714E-04   -0.27834E-01  5040   0.154E+00    0.137E-01
RMM:   2    -0.368536752462E+03   -0.85925E-03   -0.10793E-02  6572   0.302E-01    0.679E-02
RMM:   3    -0.368536641323E+03    0.11114E-03   -0.11582E-03  7362   0.838E-02    0.558E-02
RMM:   4    -0.368536614704E+03    0.26619E-04   -0.24216E-04  7009   0.247E-02    0.353E-02
RMM:   5    -0.368536615872E+03   -0.11677E-05   -0.10164E-04  6353   0.167E-02    0.232E-02
RMM:   6    -0.368536615191E+03    0.68052E-06   -0.41287E-05  4070   0.135E-02
  20 F= -.36853662E+03 E0= -.36853756E+03  d E =-.731414E-03
       N       E                     dE             d eps       ncg     rms          rms(c)
DAV:   1    -0.368535398889E+03    0.12170E-02   -0.61978E-01  4944   0.230E+00    0.206E-01
RMM:   2    -0.368537321713E+03   -0.19228E-02   -0.24284E-02  6917   0.452E-01    0.107E-01
RMM:   3    -0.368537105294E+03    0.21642E-03   -0.27197E-03  7441   0.121E-01    0.857E-02
RMM:   4    -0.368537045914E+03    0.59380E-04   -0.58790E-04  7867   0.378E-02    0.553E-02
RMM:   5    -0.368537044340E+03    0.15739E-05   -0.25448E-04  7036   0.274E-02    0.353E-02
RMM:   6    -0.368537038858E+03    0.54822E-05   -0.11203E-04  6898   0.208E-02    0.162E-02
RMM:   7    -0.368537039893E+03   -0.10347E-05   -0.32197E-05  3486   0.114E-02
  21 F= -.36853704E+03 E0= -.36853796E+03  d E =-.115612E-02
       N       E                     dE             d eps       ncg     rms          rms(c)
DAV:   1    -0.368537310202E+03   -0.27134E-03   -0.22732E-01  5136   0.143E+00    0.231E-01
RMM:   2    -0.368537814858E+03   -0.50466E-03   -0.12658E-02  7068   0.300E-01    0.101E-01
RMM:   3    -0.368537572672E+03    0.24219E-03   -0.14282E-03  7331   0.847E-02    0.760E-02
RMM:   4    -0.368537467956E+03    0.10472E-03   -0.41958E-04  7449   0.352E-02    0.442E-02
RMM:   5    -0.368537444167E+03    0.23789E-04   -0.14854E-04  6791   0.244E-02    0.277E-02
RMM:   6    -0.368537438260E+03    0.59071E-05   -0.62403E-05  4836   0.141E-02
  22 F= -.36853744E+03 E0= -.36853841E+03  d E =-.398367E-03
       N       E                     dE             d eps       ncg     rms          rms(c)
DAV:   1    -0.368537441979E+03    0.21880E-05   -0.48160E-02  5264   0.657E-01    0.102E-01
RMM:   2    -0.368537556340E+03   -0.11436E-03   -0.26610E-03  7171   0.138E-01    0.471E-02
RMM:   3    -0.368537497756E+03    0.58584E-04   -0.30273E-04  7078   0.377E-02    0.346E-02
RMM:   4    -0.368537477625E+03    0.20131E-04   -0.94275E-05  6170   0.169E-02    0.210E-02
RMM:   5    -0.368537471341E+03    0.62845E-05   -0.29840E-05  3477   0.120E-02
  23 F= -.36853747E+03 E0= -.36853846E+03  d E =-.431448E-03
       N       E                     dE             d eps       ncg     rms          rms(c)
DAV:   1    -0.368537695386E+03   -0.21776E-03   -0.74221E-02  5344   0.817E-01    0.158E-01
RMM:   2    -0.368537767026E+03   -0.71640E-04   -0.43141E-03  6907   0.177E-01    0.622E-02
RMM:   3    -0.368537717682E+03    0.49344E-04   -0.57250E-04  7419   0.550E-02    0.467E-02
RMM:   4    -0.368537673761E+03    0.43921E-04   -0.17671E-04  6944   0.233E-02    0.246E-02
RMM:   5    -0.368537669057E+03    0.47040E-05   -0.62553E-05  5012   0.158E-02
  24 F= -.36853767E+03 E0= -.36853867E+03  d E =-.197716E-03
       N       E                     dE             d eps       ncg     rms          rms(c)
DAV:   1    -0.368537716752E+03   -0.42992E-04   -0.72798E-02  5152   0.811E-01    0.147E-01
RMM:   2    -0.368537810781E+03   -0.94029E-04   -0.41436E-03  6817   0.173E-01    0.583E-02
RMM:   3    -0.368537755814E+03    0.54968E-04   -0.50485E-04  7396   0.513E-02    0.443E-02
RMM:   4    -0.368537719731E+03    0.36083E-04   -0.15461E-04  6712   0.216E-02    0.251E-02
RMM:   5    -0.368537719223E+03    0.50806E-06   -0.57582E-05  4703   0.155E-02
  25 F= -.36853772E+03 E0= -.36853872E+03  d E =-.247882E-03
       N       E                     dE             d eps       ncg     rms          rms(c)
DAV:   1    -0.368537728400E+03   -0.86696E-05   -0.68971E-04  6016   0.786E-02    0.210E-02
RMM:   2    -0.368537735259E+03   -0.68588E-05   -0.59316E-05  5873   0.181E-02
  26 F= -.36853774E+03 E0= -.36853873E+03  d E =-.263919E-03
       N       E                     dE             d eps       ncg     rms          rms(c)
DAV:   1    -0.368537774271E+03   -0.45870E-04   -0.11136E-02  5152   0.305E-01    0.265E-02
RMM:   2    -0.368537816093E+03   -0.41822E-04   -0.47052E-04  6433   0.617E-02    0.170E-02
RMM:   3    -0.368537805833E+03    0.10260E-04   -0.43772E-05  4068   0.182E-02    0.122E-02
RMM:   4    -0.368537805027E+03    0.80606E-06   -0.12065E-05  2803   0.899E-03
  27 F= -.36853781E+03 E0= -.36853882E+03  d E =-.697676E-04
       N       E                     dE             d eps       ncg     rms          rms(c)
DAV:   1    -0.368537738626E+03    0.67207E-04   -0.60436E-02  4992   0.710E-01    0.553E-02
RMM:   2    -0.368537938066E+03   -0.19944E-03   -0.24352E-03  6598   0.143E-01    0.310E-02
RMM:   3    -0.368537925287E+03    0.12780E-04   -0.28177E-04  6471   0.384E-02    0.258E-02
RMM:   4    -0.368537918710E+03    0.65770E-05   -0.70141E-05  5005   0.142E-02
  28 F= -.36853792E+03 E0= -.36853898E+03  d E =-.183451E-03
       N       E                     dE             d eps       ncg     rms          rms(c)
DAV:   1    -0.368537250549E+03    0.67474E-03   -0.24111E-01  4944   0.142E+00    0.111E-01
RMM:   2    -0.368538033629E+03   -0.78308E-03   -0.96114E-03  6652   0.285E-01    0.626E-02
RMM:   3    -0.368537987190E+03    0.46439E-04   -0.11318E-03  7330   0.754E-02    0.525E-02
RMM:   4    -0.368537956600E+03    0.30590E-04   -0.23625E-04  6686   0.249E-02    0.302E-02
RMM:   5    -0.368537954140E+03    0.24602E-05   -0.96450E-05  6188   0.173E-02
  29 F= -.36853795E+03 E0= -.36853910E+03  d E =-.218881E-03
       N       E                     dE             d eps       ncg     rms          rms(c)
DAV:   1    -0.368537858346E+03    0.98255E-04   -0.42642E-02  4992   0.598E-01    0.462E-02
RMM:   2    -0.368537993016E+03   -0.13467E-03   -0.16721E-03  5689   0.119E-01    0.248E-02
RMM:   3    -0.368537974396E+03    0.18620E-04   -0.15145E-04  6069   0.345E-02    0.202E-02
RMM:   4    -0.368537966847E+03    0.75494E-05   -0.25157E-05  3186   0.108E-02
  30 F= -.36853797E+03 E0= -.36853908E+03  d E =-.231587E-03
