<?xml version="1.0" encoding="ISO-8859-1"?>
<modeling>
 <generator>
  <i name="program" type="string">vasp </i>
  <i name="version" type="string">5.4.1  </i>
  <i name="subversion" type="string">05Feb16 (build Jan 29 2020 16:04:39) complex                          parallel </i>
  <i name="platform" type="string">IFC91_ompi </i>
  <i name="date" type="string">2020 05 18 </i>
  <i name="time" type="string">17:03:44 </i>
 </generator>
 <incar>
  <i type="string" name="SYSTEM"> automatically generated by mexm</i>
  <i type="int" name="ISTART">     0</i>
  <i type="string" name="PREC">accurate               ! avoid wrap aro</i>
  <i type="string" name="ALGO"> Fast                   ! blocked Davids</i>
  <i type="int" name="ISPIN">     1</i>
  <i type="int" name="ICHARG">     2</i>
  <i type="int" name="NELM">    70</i>
  <i type="int" name="IBRION">     2</i>
  <i name="EDIFF">      0.00001000</i>
  <i name="EDIFFG">     -0.01000000</i>
  <i type="int" name="NSW">   300</i>
  <i type="int" name="ISIF">     3</i>
  <i type="int" name="ISYM">     1</i>
  <i name="ENCUT">    300.00000000</i>
  <i name="POTIM">      0.15000000</i>
  <i type="string" name="LREAL"> Auto                  ! unpublished met</i>
  <i type="int" name="ISMEAR">     1</i>
  <i name="SIGMA">      0.15000000</i>
  <i type="logical" name="LWAVE"> F  </i>
  <i type="logical" name="LCHARG"> F  </i>
  <i type="logical" name="LVTOT"> F  </i>
  <v type="int" name="KPOINT_BSE">    -1     0     0     0</v>
  <i type="int" name="NELM">    70</i>
 </incar>
 <kpoints>
  <generation param="Gamma">
   <v type="int" name="divisions">       3        3        3 </v>
   <v name="usershift">      0.00000000       0.00000000       0.00000000 </v>
   <v name="genvec1">      0.33333333       0.00000000       0.00000000 </v>
   <v name="genvec2">      0.00000000       0.33333333       0.00000000 </v>
   <v name="genvec3">      0.00000000       0.00000000       0.33333333 </v>
   <v name="shift">      0.00000000       0.00000000       0.00000000 </v>
  </generation>
  <varray name="kpointlist" >
   <v>       0.00000000       0.00000000       0.00000000 </v>
   <v>       0.33333333      -0.00000000       0.00000000 </v>
   <v>      -0.00000000       0.33333333       0.00000000 </v>
   <v>       0.33333333       0.33333333       0.00000000 </v>
   <v>      -0.33333333       0.33333333      -0.00000000 </v>
   <v>      -0.00000000      -0.00000000       0.33333333 </v>
   <v>       0.33333333       0.00000000       0.33333333 </v>
   <v>      -0.33333333      -0.00000000       0.33333333 </v>
   <v>       0.00000000       0.33333333       0.33333333 </v>
   <v>       0.33333333       0.33333333       0.33333333 </v>
   <v>      -0.33333333       0.33333333       0.33333333 </v>
   <v>      -0.00000000      -0.33333333       0.33333333 </v>
   <v>       0.33333333      -0.33333333       0.33333333 </v>
   <v>      -0.33333333      -0.33333333       0.33333333 </v>
  </varray>
  <varray name="weights" >
   <v>       0.03703704 </v>
   <v>       0.07407407 </v>
   <v>       0.07407407 </v>
   <v>       0.07407407 </v>
   <v>       0.07407407 </v>
   <v>       0.07407407 </v>
   <v>       0.07407407 </v>
   <v>       0.07407407 </v>
   <v>       0.07407407 </v>
   <v>       0.07407407 </v>
   <v>       0.07407407 </v>
   <v>       0.07407407 </v>
   <v>       0.07407407 </v>
   <v>       0.07407407 </v>
  </varray>
 </kpoints>
 <parameters>
  <separator name="general" >
   <i type="string" name="SYSTEM">automatically generated by mexm</i>
   <i type="logical" name="LCOMPAT"> F  </i>
  </separator>
  <separator name="electronic" >
   <i type="string" name="PREC">accura</i>
   <i name="ENMAX">    300.00000000</i>
   <i name="ENAUG">    461.25700000</i>
   <i name="EDIFF">      0.00001000</i>
   <i type="int" name="IALGO">    68</i>
   <i type="int" name="IWAVPR">    11</i>
   <i type="int" name="NBANDS">    84</i>
   <i name="NELECT">    140.00000000</i>
   <i type="int" name="TURBO">     0</i>
   <i type="int" name="IRESTART">     0</i>
   <i type="int" name="NREBOOT">     0</i>
   <i type="int" name="NMIN">     0</i>
   <i name="EREF">      0.00000000</i>
   <separator name="electronic smearing" >
    <i type="int" name="ISMEAR">     1</i>
    <i name="SIGMA">      0.15000000</i>
    <i name="KSPACING">      0.50000000</i>
    <i type="logical" name="KGAMMA"> T  </i>
   </separator>
   <separator name="electronic projectors" >
    <i type="logical" name="LREAL"> T  </i>
    <v name="ROPT">     -0.00025000     -0.00025000     -0.00025000     -0.00025000</v>
    <i type="int" name="LMAXPAW">  -100</i>
    <i type="int" name="LMAXMIX">     2</i>
    <i type="logical" name="NLSPLINE"> F  </i>
   </separator>
   <separator name="electronic startup" >
    <i type="int" name="ISTART">     0</i>
    <i type="int" name="ICHARG">     2</i>
    <i type="int" name="INIWAV">     1</i>
   </separator>
   <separator name="electronic spin" >
    <i type="int" name="ISPIN">     1</i>
    <i type="logical" name="LNONCOLLINEAR"> F  </i>
    <v name="MAGMOM">      1.00000000      1.00000000      1.00000000      1.00000000      1.00000000      1.00000000      1.00000000      1.00000000      1.00000000      1.00000000      1.00000000      1.00000000      1.00000000      1.00000000      1.00000000      1.00000000</v>
    <i name="NUPDOWN">     -1.00000000</i>
    <i type="logical" name="LSORBIT"> F  </i>
    <v name="SAXIS">      0.00000000      0.00000000      1.00000000</v>
    <i type="logical" name="LSPIRAL"> F  </i>
    <v name="QSPIRAL">      0.00000000      0.00000000      0.00000000</v>
    <i type="logical" name="LZEROZ"> F  </i>
   </separator>
   <separator name="electronic exchange-correlation" >
    <i type="logical" name="LASPH"> F  </i>
    <i type="logical" name="LMETAGGA"> F  </i>
   </separator>
   <separator name="electronic convergence" >
    <i type="int" name="NELM">    70</i>
    <i type="int" name="NELMDL">    -5</i>
    <i type="int" name="NELMIN">     2</i>
    <i name="ENINI">    300.00000000</i>
    <separator name="electronic convergence detail" >
     <i type="logical" name="LDIAG"> T  </i>
     <i type="logical" name="LSUBROT"> F  </i>
     <i name="WEIMIN">      0.00100000</i>
     <i name="EBREAK">      0.00000003</i>
     <i name="DEPER">      0.30000000</i>
     <i type="int" name="NRMM">     4</i>
     <i name="TIME">      0.40000000</i>
    </separator>
   </separator>
   <separator name="electronic mixer" >
    <i name="AMIX">      0.40000000</i>
    <i name="BMIX">      1.00000000</i>
    <i name="AMIN">      0.10000000</i>
    <i name="AMIX_MAG">      1.60000000</i>
    <i name="BMIX_MAG">      1.00000000</i>
    <separator name="electronic mixer details" >
     <i type="int" name="IMIX">     4</i>
     <i type="logical" name="MIXFIRST"> F  </i>
     <i type="int" name="MAXMIX">   -45</i>
     <i name="WC">    100.00000000</i>
     <i type="int" name="INIMIX">     1</i>
     <i type="int" name="MIXPRE">     1</i>
     <i type="int" name="MREMOVE">     5</i>
    </separator>
   </separator>
   <separator name="electronic dipolcorrection" >
    <i type="logical" name="LDIPOL"> F  </i>
    <i type="logical" name="LMONO"> F  </i>
    <i type="int" name="IDIPOL">     0</i>
    <i name="EPSILON">      1.00000000</i>
    <v name="DIPOL">   -100.00000000   -100.00000000   -100.00000000</v>
    <i name="EFIELD">      0.00000000</i>
   </separator>
  </separator>
  <separator name="grids" >
   <i type="int" name="NGX">    40</i>
   <i type="int" name="NGY">    40</i>
   <i type="int" name="NGZ">    40</i>
   <i type="int" name="NGXF">    80</i>
   <i type="int" name="NGYF">    80</i>
   <i type="int" name="NGZF">    80</i>
   <i type="logical" name="ADDGRID"> F  </i>
  </separator>
  <separator name="ionic" >
   <i type="int" name="NSW">   300</i>
   <i type="int" name="IBRION">     2</i>
   <i type="int" name="ISIF">     3</i>
   <i name="PSTRESS">      0.00000000</i>
   <i name="EDIFFG">     -0.01000000</i>
   <i type="int" name="NFREE">     1</i>
   <i name="POTIM">      0.15000000</i>
   <i name="SMASS">     -3.00000000</i>
   <i name="SCALEE">      1.00000000</i>
  </separator>
  <separator name="ionic md" >
   <i name="TEBEG">      0.00010000</i>
   <i name="TEEND">      0.00010000</i>
   <i type="int" name="NBLOCK">     1</i>
   <i type="int" name="KBLOCK">   300</i>
   <i type="int" name="NPACO">   256</i>
   <i name="APACO">     16.00000000</i>
  </separator>
  <separator name="symmetry" >
   <i type="int" name="ISYM">     1</i>
   <i name="SYMPREC">      0.00001000</i>
  </separator>
  <separator name="dos" >
   <i type="logical" name="LORBIT"> F  </i>
   <v name="RWIGS">     -1.00000000     -1.00000000     -1.00000000     -1.00000000</v>
   <i type="int" name="NEDOS">   301</i>
   <i name="EMIN">     10.00000000</i>
   <i name="EMAX">    -10.00000000</i>
   <i name="EFERMI">      0.00000000</i>
  </separator>
  <separator name="writing" >
   <i type="int" name="NWRITE">     2</i>
   <i type="logical" name="LWAVE"> F  </i>
   <i type="logical" name="LCHARG"> F  </i>
   <i type="logical" name="LPARD"> F  </i>
   <i type="logical" name="LVTOT"> F  </i>
   <i type="logical" name="LVHAR"> F  </i>
   <i type="logical" name="LELF"> F  </i>
   <i type="logical" name="LOPTICS"> F  </i>
   <v name="STM">      0.00000000      0.00000000      0.00000000      0.00000000      0.00000000      0.00000000      0.00000000</v>
  </separator>
  <separator name="performance" >
   <i type="int" name="NPAR">     4</i>
   <i type="int" name="NSIM">     4</i>
   <i type="int" name="NBLK">    -1</i>
   <i type="logical" name="LPLANE"> T  </i>
   <i type="logical" name="LSCALAPACK"> T  </i>
   <i type="logical" name="LSCAAWARE"> F  </i>
   <i type="logical" name="LSCALU"> F  </i>
   <i type="logical" name="LASYNC"> F  </i>
   <i type="logical" name="LORBITALREAL"> F  </i>
  </separator>
  <separator name="miscellaneous" >
   <i type="int" name="IDIOT">     3</i>
   <i type="logical" name="LMUSIC"> F  </i>
   <v name="POMASS">    180.94800000    178.49000000     91.22400000     92.91000000</v>
   <v name="DARWINR">      0.00000000      0.00000000      0.00000000      0.00000000</v>
   <v name="DARWINV">      1.00000000      1.00000000      1.00000000      1.00000000</v>
   <i type="logical" name="LCORR"> T  </i>
  </separator>
  <i type="logical" name="GGA_COMPAT"> T  </i>
  <i type="logical" name="LBERRY"> F  </i>
  <i type="int" name="ICORELEVEL">     0</i>
  <i type="logical" name="LDAU"> F  </i>
  <i type="int" name="I_CONSTRAINED_M">     0</i>
  <separator name="electronic exchange-correlation" >
   <i type="string" name="GGA">--</i>
   <i type="int" name="VOSKOWN">     0</i>
   <i type="logical" name="LHFCALC"> F  </i>
   <i type="string" name="PRECFOCK"></i>
   <i type="logical" name="LSYMGRAD"> F  </i>
   <i type="logical" name="LHFONE"> F  </i>
   <i type="logical" name="LRHFCALC"> F  </i>
   <i type="logical" name="LTHOMAS"> F  </i>
   <i type="logical" name="LMODELHF"> F  </i>
   <i name="ENCUT4O">     -1.00000000</i>
   <i type="int" name="EXXOEP">     0</i>
   <i type="int" name="FOURORBIT">     0</i>
   <i name="AEXX">      0.00000000</i>
   <i name="HFALPHA">      0.00000000</i>
   <i name="MCALPHA">      0.00000000</i>
   <i name="ALDAX">      1.00000000</i>
   <i name="AGGAX">      1.00000000</i>
   <i name="ALDAC">      1.00000000</i>
   <i name="AGGAC">      1.00000000</i>
   <i type="int" name="NKREDX">     1</i>
   <i type="int" name="NKREDY">     1</i>
   <i type="int" name="NKREDZ">     1</i>
   <i type="logical" name="SHIFTRED"> F  </i>
   <i type="logical" name="ODDONLY"> F  </i>
   <i type="logical" name="EVENONLY"> F  </i>
   <i type="int" name="LMAXFOCK">     0</i>
   <i type="int" name="NMAXFOCKAE">     0</i>
   <i type="logical" name="LFOCKAEDFT"> F  </i>
   <i name="HFSCREEN">      0.00000000</i>
   <i name="HFSCREENC">      0.00000000</i>
   <i type="int" name="NBANDSGWLOW">     0</i>
  </separator>
  <separator name="vdW DFT" >
   <i type="logical" name="LUSE_VDW"> F  </i>
   <i name="Zab_VDW">     -0.84910000</i>
   <i name="PARAM1">      0.12340000</i>
   <i name="PARAM2">      1.00000000</i>
   <i name="PARAM3">      0.00000000</i>
  </separator>
  <separator name="model GW" >
   <i type="int" name="MODEL_GW">     0</i>
   <i name="MODEL_EPS0">     12.92435586</i>
   <i name="MODEL_ALPHA">      1.00000000</i>
  </separator>
  <separator name="linear response parameters" >
   <i type="logical" name="LEPSILON"> F  </i>
   <i type="logical" name="LRPA"> F  </i>
   <i type="logical" name="LNABLA"> F  </i>
   <i type="logical" name="LVEL"> F  </i>
   <i type="int" name="KINTER">     0</i>
   <i name="CSHIFT">      0.10000000</i>
   <i name="OMEGAMAX">     -1.00000000</i>
   <i name="DEG_THRESHOLD">      0.00200000</i>
  </separator>
  <separator name="orbital magnetization" >
   <i type="logical" name="NUCIND"> F  </i>
   <v name="MAGPOS">      0.00000000      0.00000000      0.00000000</v>
   <i type="logical" name="LNICSALL"> T  </i>
   <i type="logical" name="ORBITALMAG"> F  </i>
   <i type="logical" name="LMAGBLOCH"> F  </i>
   <i type="logical" name="LCHIMAG"> F  </i>
   <i type="logical" name="LGAUGE"> T  </i>
   <i type="int" name="MAGATOM">     0</i>
   <v name="MAGDIPOL">      0.00000000      0.00000000      0.00000000</v>
   <v name="AVECCONST">      0.00000000      0.00000000      0.00000000</v>
  </separator>
  <separator name="response functions" >
   <i type="logical" name="LADDER"> F  </i>
   <i type="logical" name="LFXC"> F  </i>
   <i type="logical" name="LHARTREE"> T  </i>
   <i type="int" name="IBSE">     0</i>
   <v type="int" name="KPOINT">    -1     0     0     0</v>
   <i type="logical" name="LTCTE"> F  </i>
   <i type="logical" name="LTETE"> F  </i>
   <i type="logical" name="LTRIPLET"> F  </i>
   <i type="logical" name="LFXCEPS"> F  </i>
   <i type="logical" name="LFXHEG"> F  </i>
   <i type="int" name="NATURALO">     0</i>
   <i type="logical" name="L2ORDER"> F  </i>
   <i type="logical" name="LUSEW"> F  </i>
   <i name="ENCUTGW">     -2.00000000</i>
   <i name="ENCUTGWSOFT">     -2.00000000</i>
   <i name="ENCUTLF">     -1.00000000</i>
   <i type="int" name="LMAXMP2">    -1</i>
   <i name="SCISSOR">      0.00000000</i>
   <i type="int" name="NOMEGA">     0</i>
   <i type="int" name="NOMEGAR">     0</i>
   <i type="int" name="NBANDSGW">    -1</i>
   <i type="int" name="NBANDSO">    -1</i>
   <i type="int" name="NBANDSV">    -1</i>
   <i type="int" name="NELM">    70</i>
   <i type="int" name="NELMHF">     1</i>
   <i type="int" name="DIM">     3</i>
   <i type="int" name="ANTIRES">     0</i>
   <i name="OMEGAMAX">    -30.00000000</i>
   <i name="OMEGAMIN">    -30.00000000</i>
   <i name="OMEGATL">   -200.00000000</i>
   <i type="int" name="OMEGAGRID">     0</i>
   <i name="CSHIFT">     -0.10000000</i>
   <i type="logical" name="SELFENERGY"> F  </i>
   <i type="logical" name="LSPECTRAL"> F  </i>
   <i type="logical" name="LSPECTRALGW"> F  </i>
   <i type="logical" name="LSINGLES"> F  </i>
   <i type="logical" name="LFERMIGW"> F  </i>
   <i type="logical" name="ODDONLYGW"> F  </i>
   <i type="logical" name="EVENONLYGW"> F  </i>
   <i type="int" name="NKREDLFX">     1</i>
   <i type="int" name="NKREDLFY">     1</i>
   <i type="int" name="NKREDLFZ">     1</i>
   <i type="int" name="MAXMEM">  1800</i>
   <i type="int" name="TELESCOPE">     0</i>
   <i type="int" name="TAUPAR">     1</i>
   <i type="int" name="OMEGAPAR">    -1</i>
   <i name="LAMBDA">      1.00000000</i>
  </separator>
  <separator name="External order field" >
   <i name="OFIELD_KAPPA">      0.00000000</i>
   <v name="OFIELD_K">      0.00000000      0.00000000      0.00000000</v>
   <i name="OFIELD_Q6_NEAR">      0.00000000</i>
   <i name="OFIELD_Q6_FAR">      0.00000000</i>
   <i name="OFIELD_A">      0.00000000</i>
  </separator>
 </parameters>
 <atominfo>
  <atoms>      16 </atoms>
  <types>       4 </types>
  <array name="atoms" >
   <dimension dim="1">ion</dimension>
   <field type="string">element</field>
   <field type="int">atomtype</field>
   <set>
    <rc><c>Ta</c><c>   1</c></rc>
    <rc><c>Ta</c><c>   1</c></rc>
    <rc><c>Ta</c><c>   1</c></rc>
    <rc><c>Hf</c><c>   2</c></rc>
    <rc><c>Hf</c><c>   2</c></rc>
    <rc><c>Hf</c><c>   2</c></rc>
    <rc><c>Hf</c><c>   2</c></rc>
    <rc><c>Zr</c><c>   3</c></rc>
    <rc><c>Zr</c><c>   3</c></rc>
    <rc><c>Zr</c><c>   3</c></rc>
    <rc><c>Zr</c><c>   3</c></rc>
    <rc><c>Zr</c><c>   3</c></rc>
    <rc><c>Zr</c><c>   3</c></rc>
    <rc><c>Zr</c><c>   3</c></rc>
    <rc><c>Zr</c><c>   3</c></rc>
    <rc><c>Nb</c><c>   4</c></rc>
   </set>
  </array>
  <array name="atomtypes" >
   <dimension dim="1">type</dimension>
   <field type="int">atomspertype</field>
   <field type="string">element</field>
   <field>mass</field>
   <field>valence</field>
   <field type="string">pseudopotential</field>
   <set>
    <rc><c>   3</c><c>Ta</c><c>    180.94800000</c><c>      5.00000000</c><c>  PAW_PBE Ta 17Jan2003                  </c></rc>
    <rc><c>   4</c><c>Hf</c><c>    178.49000000</c><c>      4.00000000</c><c>  PAW_PBE Hf 20Jan2003                  </c></rc>
    <rc><c>   8</c><c>Zr</c><c>     91.22400000</c><c>     12.00000000</c><c>  PAW_PBE Zr_sv 04Jan2005               </c></rc>
    <rc><c>   1</c><c>Nb</c><c>     92.91000000</c><c>     13.00000000</c><c>  PAW_PBE Nb_sv 25May2007               </c></rc>
   </set>
  </array>
 </atominfo>
 <structure name="initialpos" >
  <crystal>
   <varray name="basis" >
    <v>       6.95622390      -0.00410184       0.01185264 </v>
    <v>      -0.00327364       7.06685133      -0.20428614 </v>
    <v>       0.01147794      -0.20353419       7.01687519 </v>
   </varray>
   <i name="volume">    344.64948947 </i>
   <varray name="rec_basis" >
    <v>       0.14375659       0.00005985      -0.00023342 </v>
    <v>       0.00007651       0.14162452       0.00410789 </v>
    <v>      -0.00024060       0.00412309       0.14263357 </v>
   </varray>
  </crystal>
  <varray name="positions" >
   <v>       0.99356435       0.03340931       0.48804368 </v>
   <v>       0.99269839       0.51319430       0.96800116 </v>
   <v>       0.75741716       0.22421125       0.77109546 </v>
   <v>       0.24660586       0.27153067       0.22633041 </v>
   <v>       0.24458188       0.22208508       0.77783901 </v>
   <v>       0.99514699       0.46392469       0.53722492 </v>
   <v>       0.50533496       0.03153892       0.47248479 </v>
   <v>       0.00013163       0.96977631       0.02727199 </v>
   <v>       0.24207767       0.73333656       0.26564928 </v>
   <v>       0.25150618       0.77231898       0.73190499 </v>
   <v>       0.75404160       0.27064143       0.21981361 </v>
   <v>       0.50882043       0.51661238       0.96719062 </v>
   <v>       0.75673775       0.73256711       0.26746867 </v>
   <v>       0.50361311       0.47289958       0.52683631 </v>
   <v>       0.74820181       0.78260568       0.73021726 </v>
   <v>       0.49952023       0.98934775       0.02262782 </v>
  </varray>
 </structure>
 <calculation>
  <scstep>
   <time name="dav">    0.19    0.23</time>
   <time name="total">    0.22    0.30</time>
   <energy>
    <i name="alphaZ">    675.65370788 </i>
    <i name="ewald">  -9683.77269880 </i>
    <i name="hartreedc">  -3078.87704315 </i>
    <i name="XCdc">     43.75175766 </i>
    <i name="pawpsdc">  10328.32033343 </i>
    <i name="pawaedc">  -9700.96547995 </i>
    <i name="eentropy">     -0.00451797 </i>
    <i name="bandstr">   -219.15862427 </i>
    <i name="atom">  12524.00607526 </i>
    <i name="e_fr_energy">    888.95351010 </i>
    <i name="e_wo_entrp">    888.95802807 </i>
    <i name="e_0_energy">    888.95501609 </i>
   </energy>
  </scstep>
  <scstep>
   <time name="dav">    0.17    0.17</time>
   <time name="total">    0.17    0.19</time>
   <energy>
    <i name="e_fr_energy">    -32.06303755 </i>
    <i name="e_wo_entrp">    -32.05610712 </i>
    <i name="e_0_energy">    -32.06072741 </i>
   </energy>
  </scstep>
  <scstep>
   <time name="dav">    0.25    0.25</time>
   <time name="total">    0.25    0.26</time>
   <energy>
    <i name="e_fr_energy">   -143.46936881 </i>
    <i name="e_wo_entrp">   -143.46256474 </i>
    <i name="e_0_energy">   -143.46710079 </i>
   </energy>
  </scstep>
  <scstep>
   <time name="dav">    0.25    0.25</time>
   <time name="total">    0.25    0.26</time>
   <energy>
    <i name="e_fr_energy">   -157.14386738 </i>
    <i name="e_wo_entrp">   -157.13020498 </i>
    <i name="e_0_energy">   -157.13931325 </i>
   </energy>
  </scstep>
  <scstep>
   <time name="dav">    0.24    0.24</time>
   <time name="total">    0.25    0.26</time>
   <energy>
    <i name="e_fr_energy">   -158.34361482 </i>
    <i name="e_wo_entrp">   -158.32858309 </i>
    <i name="e_0_energy">   -158.33860425 </i>
   </energy>
  </scstep>
  <scstep>
   <time name="diag">    0.02    0.02</time>
   <time name="diis">    0.10    0.11</time>
   <time name="orth">    0.00    0.00</time>
   <time name="total">    0.15    0.16</time>
   <energy>
    <i name="e_fr_energy">   -153.64566458 </i>
    <i name="e_wo_entrp">   -153.62959253 </i>
    <i name="e_0_energy">   -153.64030723 </i>
   </energy>
  </scstep>
  <scstep>
   <time name="diag">    0.02    0.02</time>
   <time name="diis">    0.10    0.10</time>
   <time name="orth">    0.00    0.00</time>
   <time name="total">    0.15    0.16</time>
   <energy>
    <i name="e_fr_energy">   -152.34132474 </i>
    <i name="e_wo_entrp">   -152.32847346 </i>
    <i name="e_0_energy">   -152.33704098 </i>
   </energy>
  </scstep>
  <scstep>
   <time name="diag">    0.02    0.02</time>
   <time name="diis">    0.13    0.13</time>
   <time name="orth">    0.00    0.00</time>
   <time name="total">    0.17    0.18</time>
   <energy>
    <i name="e_fr_energy">   -152.07146539 </i>
    <i name="e_wo_entrp">   -152.05854756 </i>
    <i name="e_0_energy">   -152.06715945 </i>
   </energy>
  </scstep>
  <scstep>
   <time name="diag">    0.02    0.02</time>
   <time name="diis">    0.13    0.13</time>
   <time name="orth">    0.00    0.00</time>
   <time name="total">    0.17    0.18</time>
   <energy>
    <i name="e_fr_energy">   -152.06153640 </i>
    <i name="e_wo_entrp">   -152.04803091 </i>
    <i name="e_0_energy">   -152.05703457 </i>
   </energy>
  </scstep>
  <scstep>
   <time name="diag">    0.02    0.02</time>
   <time name="diis">    0.14    0.14</time>
   <time name="orth">    0.00    0.00</time>
   <time name="total">    0.19    0.21</time>
   <energy>
    <i name="e_fr_energy">   -152.06090564 </i>
    <i name="e_wo_entrp">   -152.04885176 </i>
    <i name="e_0_energy">   -152.05688768 </i>
   </energy>
  </scstep>
  <scstep>
   <time name="diag">    0.10    0.19</time>
   <time name="diis">    0.18    0.18</time>
   <time name="orth">    0.00    0.00</time>
   <time name="total">    0.30    0.41</time>
   <energy>
    <i name="e_fr_energy">   -152.05633894 </i>
    <i name="e_wo_entrp">   -152.04361776 </i>
    <i name="e_0_energy">   -152.05209855 </i>
   </energy>
  </scstep>
  <scstep>
   <time name="diag">    0.03    0.03</time>
   <time name="diis">    0.22    0.23</time>
   <time name="orth">    0.02    0.02</time>
   <time name="total">    0.35    0.35</time>
   <energy>
    <i name="e_fr_energy">   -152.05670091 </i>
    <i name="e_wo_entrp">   -152.04419040 </i>
    <i name="e_0_energy">   -152.05253074 </i>
   </energy>
  </scstep>
  <scstep>
   <time name="diag">    0.03    0.04</time>
   <time name="diis">    0.22    0.23</time>
   <time name="orth">    0.01    0.01</time>
   <time name="total">    0.30    0.32</time>
   <energy>
    <i name="e_fr_energy">   -152.05705304 </i>
    <i name="e_wo_entrp">   -152.04456138 </i>
    <i name="e_0_energy">   -152.05288915 </i>
   </energy>
  </scstep>
  <scstep>
   <time name="diag">    0.03    0.04</time>
   <time name="diis">    0.15    0.15</time>
   <time name="orth">    0.00    0.00</time>
   <time name="total">    0.23    0.25</time>
   <energy>
    <i name="e_fr_energy">   -152.05714816 </i>
    <i name="e_wo_entrp">   -152.04466600 </i>
    <i name="e_0_energy">   -152.05298744 </i>
   </energy>
  </scstep>
  <scstep>
   <time name="diag">    0.03    0.03</time>
   <time name="diis">    0.11    0.12</time>
   <time name="orth">    0.00    0.00</time>
   <time name="total">    0.16    0.17</time>
   <energy>
    <i name="e_fr_energy">   -152.05720542 </i>
    <i name="e_wo_entrp">   -152.04472965 </i>
    <i name="e_0_energy">   -152.05304683 </i>
   </energy>
  </scstep>
  <scstep>
   <time name="diag">    0.04    0.04</time>
   <time name="diis">    0.10    0.10</time>
   <time name="orth">    0.00    0.00</time>
   <time name="total">    0.16    0.17</time>
   <energy>
    <i name="e_fr_energy">   -152.05722854 </i>
    <i name="e_wo_entrp">   -152.04476446 </i>
    <i name="e_0_energy">   -152.05307384 </i>
   </energy>
  </scstep>
  <scstep>
   <time name="diag">    0.05    0.05</time>
   <time name="diis">    0.12    0.12</time>
   <time name="orth">    0.00    0.00</time>
   <time name="total">    0.21    0.22</time>
   <energy>
    <i name="e_fr_energy">   -152.05723984 </i>
    <i name="e_wo_entrp">   -152.04477358 </i>
    <i name="e_0_energy">   -152.05308442 </i>
   </energy>
  </scstep>
  <scstep>
   <time name="diag">    0.02    0.02</time>
   <time name="diis">    0.08    0.08</time>
   <time name="orth">    0.00    0.00</time>
   <time name="total">    0.12    0.13</time>
   <energy>
    <i name="alphaZ">    675.65370788 </i>
    <i name="ewald">  -9683.77269880 </i>
    <i name="hartreedc">  -2950.79145327 </i>
    <i name="XCdc">     41.53194231 </i>
    <i name="pawpsdc">  16360.28051686 </i>
    <i name="pawaedc"> -15723.79717229 </i>
    <i name="eentropy">     -0.01246271 </i>
    <i name="bandstr">  -1395.15569975 </i>
    <i name="atom">  12524.00607526 </i>
    <i name="e_fr_energy">   -152.05724451 </i>
    <i name="e_wo_entrp">   -152.04478180 </i>
    <i name="e_0_energy">   -152.05309027 </i>
   </energy>
  </scstep>
  <structure>
   <crystal>
    <varray name="basis" >
     <v>       6.95622390      -0.00410184       0.01185264 </v>
     <v>      -0.00327364       7.06685133      -0.20428614 </v>
     <v>       0.01147794      -0.20353419       7.01687519 </v>
    </varray>
    <i name="volume">    344.64948947 </i>
    <varray name="rec_basis" >
     <v>       0.14375659       0.00005985      -0.00023342 </v>
     <v>       0.00007651       0.14162452       0.00410789 </v>
     <v>      -0.00024060       0.00412309       0.14263357 </v>
    </varray>
   </crystal>
   <varray name="positions" >
    <v>       0.99356435       0.03340931       0.48804368 </v>
    <v>       0.99269839       0.51319430       0.96800116 </v>
    <v>       0.75741716       0.22421125       0.77109546 </v>
    <v>       0.24660586       0.27153067       0.22633041 </v>
    <v>       0.24458188       0.22208508       0.77783901 </v>
    <v>       0.99514699       0.46392469       0.53722492 </v>
    <v>       0.50533496       0.03153892       0.47248479 </v>
    <v>       0.00013163       0.96977631       0.02727199 </v>
    <v>       0.24207767       0.73333656       0.26564928 </v>
    <v>       0.25150618       0.77231898       0.73190499 </v>
    <v>       0.75404160       0.27064143       0.21981361 </v>
    <v>       0.50882043       0.51661238       0.96719062 </v>
    <v>       0.75673775       0.73256711       0.26746867 </v>
    <v>       0.50361311       0.47289958       0.52683631 </v>
    <v>       0.74820181       0.78260568       0.73021726 </v>
    <v>       0.49952023       0.98934775       0.02262782 </v>
   </varray>
  </structure>
  <varray name="forces" >
   <v>       0.00695530      -0.00382702      -0.00241120 </v>
   <v>       0.00376786      -0.00541198       0.00675492 </v>
   <v>      -0.00235954       0.00652846      -0.00756623 </v>
   <v>      -0.00165376      -0.00594521       0.00427194 </v>
   <v>      -0.00160808       0.00917006      -0.00625944 </v>
   <v>       0.00354808       0.00056386      -0.00446808 </v>
   <v>      -0.00621379       0.00085772       0.00736927 </v>
   <v>      -0.00158238       0.00330034      -0.00562863 </v>
   <v>      -0.00387966      -0.00117906       0.00499782 </v>
   <v>       0.00420471      -0.00169599      -0.00191674 </v>
   <v>       0.00165458      -0.00416026       0.00495727 </v>
   <v>      -0.00265208       0.00198900       0.01787796 </v>
   <v>       0.00780339      -0.00156844       0.00730414 </v>
   <v>      -0.00678879      -0.00052445      -0.01038582 </v>
   <v>      -0.00300304      -0.00019749      -0.00420587 </v>
   <v>       0.00180722       0.00210046      -0.01069129 </v>
  </varray>
  <varray name="stress" >
   <v>      -2.80637373       0.04371901      -0.08500340 </v>
   <v>       0.04371900      -2.98641654       0.28178829 </v>
   <v>      -0.08500335       0.28178830      -3.02172813 </v>
  </varray>
  <energy>
   <i name="e_fr_energy">   -152.05724451 </i>
   <i name="e_wo_entrp">   -152.05309027 </i>
   <i name="e_0_energy">     -0.01246271 </i>
  </energy>
  <time name="totalsc">    4.35    4.69</time>
 </calculation>
 <calculation>
  <scstep>
   <time name="dav">    0.19    0.19</time>
   <time name="total">    0.22    0.22</time>
   <energy>
    <i name="alphaZ">    676.81387359 </i>
    <i name="ewald">  -9689.41761567 </i>
    <i name="hartreedc">  -2952.38346593 </i>
    <i name="XCdc">     41.78474845 </i>
    <i name="pawpsdc">  16360.20836670 </i>
    <i name="pawaedc"> -15723.72669638 </i>
    <i name="eentropy">     -0.01277115 </i>
    <i name="bandstr">  -1389.33346545 </i>
    <i name="atom">  12524.00607526 </i>
    <i name="e_fr_energy">   -152.06095057 </i>
    <i name="e_wo_entrp">   -152.04817942 </i>
    <i name="e_0_energy">   -152.05669352 </i>
   </energy>
  </scstep>
  <scstep>
   <time name="diag">    0.03    0.03</time>
   <time name="diis">    0.13    0.13</time>
   <time name="orth">    0.00    0.00</time>
   <time name="total">    0.20    0.20</time>
   <energy>
    <i name="e_fr_energy">   -152.05879928 </i>
    <i name="e_wo_entrp">   -152.04644449 </i>
    <i name="e_0_energy">   -152.05468102 </i>
   </energy>
  </scstep>
  <scstep>
   <time name="diag">    0.02    0.02</time>
   <time name="diis">    0.13    0.13</time>
   <time name="orth">    0.00    0.00</time>
   <time name="total">    0.18    0.18</time>
   <energy>
    <i name="e_fr_energy">   -152.05820494 </i>
    <i name="e_wo_entrp">   -152.04559944 </i>
    <i name="e_0_energy">   -152.05400311 </i>
   </energy>
  </scstep>
  <scstep>
   <time name="diag">    0.02    0.02</time>
   <time name="diis">    0.22    0.22</time>
   <time name="orth">    0.00    0.00</time>
   <time name="total">    0.27    0.27</time>
   <energy>
    <i name="e_fr_energy">   -152.05794765 </i>
    <i name="e_wo_entrp">   -152.04553091 </i>
    <i name="e_0_energy">   -152.05380874 </i>
   </energy>
  </scstep>
  <scstep>
   <time name="diag">    0.02    0.03</time>
   <time name="diis">    0.10    0.13</time>
   <time name="orth">    0.00    0.00</time>
   <time name="total">    0.15    0.21</time>
   <energy>
    <i name="e_fr_energy">   -152.05795797 </i>
    <i name="e_wo_entrp">   -152.04551330 </i>
    <i name="e_0_energy">   -152.05380975 </i>
   </energy>
  </scstep>
  <scstep>
   <time name="diag">    0.02    0.02</time>
   <time name="diis">    0.08    0.09</time>
   <time name="orth">    0.00    0.00</time>
   <time name="total">    0.12    0.17</time>
   <energy>
    <i name="e_fr_energy">   -152.05798769 </i>
    <i name="e_wo_entrp">   -152.04555343 </i>
    <i name="e_0_energy">   -152.05384294 </i>
   </energy>
  </scstep>
  <scstep>
   <time name="diag">    0.02    0.02</time>
   <time name="diis">    0.07    0.08</time>
   <time name="orth">    0.00    0.00</time>
   <time name="total">    0.12    0.13</time>
   <energy>
    <i name="e_fr_energy">   -152.05800298 </i>
    <i name="e_wo_entrp">   -152.04556904 </i>
    <i name="e_0_energy">   -152.05385833 </i>
   </energy>
  </scstep>
  <scstep>
   <time name="diag">    0.03    0.03</time>
   <time name="diis">    0.07    0.07</time>
   <time name="orth">    0.00    0.00</time>
   <time name="total">    0.12    0.12</time>
   <energy>
    <i name="alphaZ">    676.81387359 </i>
    <i name="ewald">  -9689.41761567 </i>
    <i name="hartreedc">  -2948.90115563 </i>
    <i name="XCdc">     41.62108378 </i>
    <i name="pawpsdc">  16397.95293372 </i>
    <i name="pawaedc"> -15761.46631841 </i>
    <i name="eentropy">     -0.01243098 </i>
    <i name="bandstr">  -1392.65445584 </i>
    <i name="atom">  12524.00607526 </i>
    <i name="e_fr_energy">   -152.05801018 </i>
    <i name="e_wo_entrp">   -152.04557920 </i>
    <i name="e_0_energy">   -152.05386652 </i>
   </energy>
  </scstep>
  <structure>
   <crystal>
    <varray name="basis" >
     <v>       6.95242511      -0.00403963       0.01173039 </v>
     <v>      -0.00320836       7.06273357      -0.20377849 </v>
     <v>       0.01135388      -0.20303108       7.01273813 </v>
    </varray>
    <i name="volume">    344.05870590 </i>
    <varray name="rec_basis" >
     <v>       0.14383513       0.00005867      -0.00023118 </v>
     <v>       0.00007542       0.14170664       0.00410253 </v>
     <v>      -0.00023841       0.00411766       0.14271725 </v>
    </varray>
   </crystal>
   <varray name="positions" >
    <v>       0.99357883       0.03340133       0.48803845 </v>
    <v>       0.99270620       0.51318361       0.96801477 </v>
    <v>       0.75741228       0.22422418       0.77108024 </v>
    <v>       0.24660240       0.27151874       0.22633888 </v>
    <v>       0.24457857       0.22210350       0.77782665 </v>
    <v>       0.99515439       0.46392559       0.53721572 </v>
    <v>       0.50532200       0.03154111       0.47250007 </v>
    <v>       0.00012836       0.96978274       0.02726058 </v>
    <v>       0.24206958       0.73333444       0.26565954 </v>
    <v>       0.25151493       0.77231540       0.73190092 </v>
    <v>       0.75404502       0.27063320       0.21982359 </v>
    <v>       0.50881486       0.51661752       0.96722766 </v>
    <v>       0.75675396       0.73256433       0.26748363 </v>
    <v>       0.50359902       0.47289788       0.52681486 </v>
    <v>       0.74819558       0.78260503       0.73020858 </v>
    <v>       0.49952403       0.98935142       0.02260587 </v>
   </varray>
  </structure>
  <varray name="forces" >
   <v>       0.00818947      -0.00785741      -0.00238484 </v>
   <v>       0.00491864      -0.00454712       0.00951571 </v>
   <v>      -0.00526962       0.00687971      -0.00688459 </v>
   <v>      -0.00172668      -0.00607153       0.00530771 </v>
   <v>       0.00131543       0.00952977      -0.00683342 </v>
   <v>       0.00380982       0.00625131      -0.00910534 </v>
   <v>      -0.00690336      -0.00187927       0.00823138 </v>
   <v>      -0.00184418       0.00414827      -0.00775433 </v>
   <v>      -0.00146785      -0.00037919       0.00460193 </v>
   <v>       0.00381861      -0.00355495      -0.00128271 </v>
   <v>       0.00065674      -0.00460974       0.00795869 </v>
   <v>      -0.00413662       0.00339033       0.01914794 </v>
   <v>       0.00504659      -0.00056360       0.00598242 </v>
   <v>      -0.00675309       0.00330213      -0.01217767 </v>
   <v>      -0.00300953      -0.00438710      -0.00221092 </v>
   <v>       0.00335563       0.00034840      -0.01211198 </v>
  </varray>
  <varray name="stress" >
   <v>      -1.04465983       0.02321384      -0.06951556 </v>
   <v>       0.02321389      -1.18181786       0.27715274 </v>
   <v>      -0.06951556       0.27715276      -1.19540259 </v>
  </varray>
  <energy>
   <i name="e_fr_energy">   -152.05801018 </i>
   <i name="e_wo_entrp">   -152.05386652 </i>
   <i name="e_0_energy">     -0.01243098 </i>
  </energy>
  <time name="totalsc">    1.73    1.89</time>
 </calculation>
 <calculation>
  <scstep>
   <time name="dav">    0.19    0.19</time>
   <time name="total">    0.21    0.21</time>
   <energy>
    <i name="alphaZ">    677.60528188 </i>
    <i name="ewald">  -9693.26461349 </i>
    <i name="hartreedc">  -2950.00530335 </i>
    <i name="XCdc">     41.79409645 </i>
    <i name="pawpsdc">  16398.00820704 </i>
    <i name="pawaedc"> -15761.48415211 </i>
    <i name="eentropy">     -0.01264446 </i>
    <i name="bandstr">  -1388.70639803 </i>
    <i name="atom">  12524.00607526 </i>
    <i name="e_fr_energy">   -152.05945081 </i>
    <i name="e_wo_entrp">   -152.04680635 </i>
    <i name="e_0_energy">   -152.05523599 </i>
   </energy>
  </scstep>
  <scstep>
   <time name="diag">    0.02    0.02</time>
   <time name="diis">    0.13    0.13</time>
   <time name="orth">    0.00    0.00</time>
   <time name="total">    0.18    0.18</time>
   <energy>
    <i name="e_fr_energy">   -152.05845437 </i>
    <i name="e_wo_entrp">   -152.04608258 </i>
    <i name="e_0_energy">   -152.05433044 </i>
   </energy>
  </scstep>
  <scstep>
   <time name="diag">    0.02    0.02</time>
   <time name="diis">    0.13    0.13</time>
   <time name="orth">    0.00    0.00</time>
   <time name="total">    0.18    0.18</time>
   <energy>
    <i name="e_fr_energy">   -152.05819331 </i>
    <i name="e_wo_entrp">   -152.04565779 </i>
    <i name="e_0_energy">   -152.05401480 </i>
   </energy>
  </scstep>
  <scstep>
   <time name="diag">    0.02    0.02</time>
   <time name="diis">    0.17    0.17</time>
   <time name="orth">    0.00    0.00</time>
   <time name="total">    0.23    0.24</time>
   <energy>
    <i name="e_fr_energy">   -152.05808313 </i>
    <i name="e_wo_entrp">   -152.04567350 </i>
    <i name="e_0_energy">   -152.05394659 </i>
   </energy>
  </scstep>
  <scstep>
   <time name="diag">    0.02    0.02</time>
   <time name="diis">    0.10    0.10</time>
   <time name="orth">    0.00    0.00</time>
   <time name="total">    0.15    0.16</time>
   <energy>
    <i name="alphaZ">    677.60528188 </i>
    <i name="ewald">  -9693.26461349 </i>
    <i name="hartreedc">  -2947.55805299 </i>
    <i name="XCdc">     41.67919086 </i>
    <i name="pawpsdc">  16429.71608418 </i>
    <i name="pawaedc"> -15793.25136772 </i>
    <i name="eentropy">     -0.01242764 </i>
    <i name="bandstr">  -1390.97826141 </i>
    <i name="atom">  12524.00607526 </i>
    <i name="e_fr_energy">   -152.05809106 </i>
    <i name="e_wo_entrp">   -152.04566343 </i>
    <i name="e_0_energy">   -152.05394852 </i>
   </energy>
  </scstep>
  <structure>
   <crystal>
    <varray name="basis" >
     <v>       6.94983875      -0.00399728       0.01164716 </v>
     <v>      -0.00316391       7.05993003      -0.20343287 </v>
     <v>       0.01126941      -0.20268855       7.00992147 </v>
    </varray>
    <i name="volume">    343.65686293 </i>
    <varray name="rec_basis" >
     <v>       0.14388865       0.00005787      -0.00022965 </v>
     <v>       0.00007467       0.14176261       0.00409888 </v>
     <v>      -0.00023691       0.00411395       0.14277428 </v>
    </varray>
   </crystal>
   <varray name="positions" >
    <v>       0.99358869       0.03339589       0.48803489 </v>
    <v>       0.99271152       0.51317633       0.96802404 </v>
    <v>       0.75740896       0.22423299       0.77106987 </v>
    <v>       0.24660004       0.27151061       0.22634465 </v>
    <v>       0.24457631       0.22211605       0.77781822 </v>
    <v>       0.99515943       0.46392620       0.53720945 </v>
    <v>       0.50531318       0.03154260       0.47251049 </v>
    <v>       0.00012613       0.96978712       0.02725280 </v>
    <v>       0.24206407       0.73333299       0.26566653 </v>
    <v>       0.25152089       0.77231296       0.73189814 </v>
    <v>       0.75404735       0.27062759       0.21983039 </v>
    <v>       0.50881106       0.51662101       0.96725289 </v>
    <v>       0.75676500       0.73256245       0.26749382 </v>
    <v>       0.50358942       0.47289672       0.52680025 </v>
    <v>       0.74819133       0.78260458       0.73020267 </v>
    <v>       0.49952662       0.98935392       0.02259092 </v>
   </varray>
  </structure>
  <varray name="forces" >
   <v>       0.00900071      -0.01129085      -0.00289005 </v>
   <v>       0.00559404      -0.00307839       0.01167817 </v>
   <v>      -0.00743889       0.00709800      -0.00567702 </v>
   <v>      -0.00176802      -0.00566545       0.00570227 </v>
   <v>       0.00351084       0.00992138      -0.00679239 </v>
   <v>       0.00417167       0.01097074      -0.01255173 </v>
   <v>      -0.00733401      -0.00448869       0.00856583 </v>
   <v>      -0.00148995       0.00507597      -0.00965139 </v>
   <v>       0.00006797       0.00006184       0.00383449 </v>
   <v>       0.00345518      -0.00472048      -0.00013340 </v>
   <v>      -0.00006308      -0.00542588       0.00970438 </v>
   <v>      -0.00531026       0.00361631       0.02038328 </v>
   <v>       0.00346188       0.00029714       0.00480388 </v>
   <v>      -0.00722281       0.00571214      -0.01364533 </v>
   <v>      -0.00280380      -0.00732503      -0.00044402 </v>
   <v>       0.00416854      -0.00075876      -0.01288696 </v>
  </varray>
  <varray name="stress" >
   <v>       0.00594880       0.02172903      -0.06141681 </v>
   <v>       0.02172907      -0.07170116       0.27871426 </v>
   <v>      -0.06141684       0.27871430      -0.10997419 </v>
  </varray>
  <energy>
   <i name="e_fr_energy">   -152.05809106 </i>
   <i name="e_wo_entrp">   -152.05394852 </i>
   <i name="e_0_energy">     -0.01242764 </i>
  </energy>
  <time name="totalsc">    1.30    1.34</time>
 </calculation>
 <calculation>
  <scstep>
   <time name="dav">    0.18    0.18</time>
   <time name="total">    0.20    0.21</time>
   <energy>
    <i name="alphaZ">    677.71192645 </i>
    <i name="ewald">  -9693.78278035 </i>
    <i name="hartreedc">  -2947.78667570 </i>
    <i name="XCdc">     41.70627112 </i>
    <i name="pawpsdc">  16426.15275150 </i>
    <i name="pawaedc"> -15789.63537696 </i>
    <i name="eentropy">     -0.01245008 </i>
    <i name="bandstr">  -1390.41786016 </i>
    <i name="atom">  12524.00607526 </i>
    <i name="e_fr_energy">   -152.05811890 </i>
    <i name="e_wo_entrp">   -152.04566883 </i>
    <i name="e_0_energy">   -152.05396888 </i>
   </energy>
  </scstep>
  <scstep>
   <time name="diag">    0.02    0.02</time>
   <time name="diis">    0.11    0.11</time>
   <time name="orth">    0.00    0.00</time>
   <time name="total">    0.15    0.16</time>
   <energy>
    <i name="e_fr_energy">   -152.05810554 </i>
    <i name="e_wo_entrp">   -152.04569049 </i>
    <i name="e_0_energy">   -152.05396719 </i>
   </energy>
  </scstep>
  <scstep>
   <time name="diag">    0.02    0.02</time>
   <time name="diis">    0.05    0.06</time>
   <time name="orth">    0.00    0.00</time>
   <time name="total">    0.09    0.10</time>
   <energy>
    <i name="alphaZ">    677.71192645 </i>
    <i name="ewald">  -9693.78278035 </i>
    <i name="hartreedc">  -2947.53640862 </i>
    <i name="XCdc">     41.69416358 </i>
    <i name="pawpsdc">  16429.51344737 </i>
    <i name="pawaedc"> -15792.96510126 </i>
    <i name="eentropy">     -0.01242992 </i>
    <i name="bandstr">  -1390.68699645 </i>
    <i name="atom">  12524.00607526 </i>
    <i name="e_fr_energy">   -152.05810392 </i>
    <i name="e_wo_entrp">   -152.04567400 </i>
    <i name="e_0_energy">   -152.05396061 </i>
   </energy>
  </scstep>
  <structure>
   <crystal>
    <varray name="basis" >
     <v>       6.94949054      -0.00399157       0.01163595 </v>
     <v>      -0.00315793       7.05955258      -0.20338633 </v>
     <v>       0.01125804      -0.20264243       7.00954225 </v>
    </varray>
    <i name="volume">    343.60278518 </i>
    <varray name="rec_basis" >
     <v>       0.14389586       0.00005776      -0.00022944 </v>
     <v>       0.00007457       0.14177014       0.00409839 </v>
     <v>      -0.00023671       0.00411346       0.14278197 </v>
    </varray>
   </crystal>
   <varray name="positions" >
    <v>       0.99359002       0.03339516       0.48803441 </v>
    <v>       0.99271224       0.51317535       0.96802529 </v>
    <v>       0.75740851       0.22423418       0.77106847 </v>
    <v>       0.24659972       0.27150951       0.22634543 </v>
    <v>       0.24457600       0.22211774       0.77781708 </v>
    <v>       0.99516011       0.46392628       0.53720861 </v>
    <v>       0.50531199       0.03154280       0.47251189 </v>
    <v>       0.00012583       0.96978771       0.02725175 </v>
    <v>       0.24206333       0.73333280       0.26566748 </v>
    <v>       0.25152170       0.77231263       0.73189777 </v>
    <v>       0.75404767       0.27062684       0.21983130 </v>
    <v>       0.50881055       0.51662149       0.96725628 </v>
    <v>       0.75676649       0.73256219       0.26749519 </v>
    <v>       0.50358812       0.47289656       0.52679828 </v>
    <v>       0.74819076       0.78260452       0.73020187 </v>
    <v>       0.49952697       0.98935426       0.02258890 </v>
   </varray>
  </structure>
  <varray name="forces" >
   <v>       0.00916019      -0.01134038      -0.00221166 </v>
   <v>       0.00578408      -0.00419378       0.01198801 </v>
   <v>      -0.00735523       0.00744893      -0.00690059 </v>
   <v>      -0.00201678      -0.00557074       0.00631585 </v>
   <v>       0.00338742       0.01020358      -0.00771326 </v>
   <v>       0.00428034       0.01033631      -0.01249248 </v>
   <v>      -0.00752212      -0.00437610       0.00894215 </v>
   <v>      -0.00177274       0.00391282      -0.00926359 </v>
   <v>       0.00067966       0.00022200       0.00343653 </v>
   <v>       0.00392740      -0.00479877      -0.00017764 </v>
   <v>      -0.00056804      -0.00500462       0.00988323 </v>
   <v>      -0.00497610       0.00512609       0.02031321 </v>
   <v>       0.00275474       0.00031171       0.00431426 </v>
   <v>      -0.00664777       0.00680455      -0.01342208 </v>
   <v>      -0.00337690      -0.00769324      -0.00035323 </v>
   <v>       0.00426183      -0.00138838      -0.01265873 </v>
  </varray>
  <varray name="stress" >
   <v>       0.20088958       0.02219330      -0.05520099 </v>
   <v>       0.02219327       0.09057250       0.28985834 </v>
   <v>      -0.05520097       0.28985836       0.07816917 </v>
  </varray>
  <energy>
   <i name="e_fr_energy">   -152.05810392 </i>
   <i name="e_wo_entrp">   -152.05396061 </i>
   <i name="e_0_energy">     -0.01242992 </i>
  </energy>
  <time name="totalsc">    0.81    0.84</time>
 </calculation>
 <calculation>
  <scstep>
   <time name="dav">    0.26    0.26</time>
   <time name="total">    0.29    0.29</time>
   <energy>
    <i name="alphaZ">    677.69120871 </i>
    <i name="ewald">  -9693.68212081 </i>
    <i name="hartreedc">  -2947.48135866 </i>
    <i name="XCdc">     41.68850456 </i>
    <i name="pawpsdc">  16429.30594467 </i>
    <i name="pawaedc"> -15792.74265071 </i>
    <i name="eentropy">     -0.01241262 </i>
    <i name="bandstr">  -1390.83130237 </i>
    <i name="atom">  12524.00607526 </i>
    <i name="e_fr_energy">   -152.05811196 </i>
    <i name="e_wo_entrp">   -152.04569934 </i>
    <i name="e_0_energy">   -152.05397442 </i>
   </energy>
  </scstep>
  <scstep>
   <time name="diag">    0.02    0.02</time>
   <time name="diis">    0.06    0.06</time>
   <time name="orth">    0.00    0.00</time>
   <time name="total">    0.10    0.10</time>
   <energy>
    <i name="alphaZ">    677.69120871 </i>
    <i name="ewald">  -9693.68212081 </i>
    <i name="hartreedc">  -2947.55247578 </i>
    <i name="XCdc">     41.69152733 </i>
    <i name="pawpsdc">  16428.17957605 </i>
    <i name="pawaedc"> -15791.59169707 </i>
    <i name="eentropy">     -0.01242225 </i>
    <i name="bandstr">  -1390.78778812 </i>
    <i name="atom">  12524.00607526 </i>
    <i name="e_fr_energy">   -152.05811667 </i>
    <i name="e_wo_entrp">   -152.04569442 </i>
    <i name="e_0_energy">   -152.05397592 </i>
   </energy>
  </scstep>
  <structure>
   <crystal>
    <varray name="basis" >
     <v>       6.94955818      -0.00399268       0.01163813 </v>
     <v>      -0.00315909       7.05962590      -0.20339537 </v>
     <v>       0.01126025      -0.20265139       7.00961591 </v>
    </varray>
    <i name="volume">    343.61328948 </i>
    <varray name="rec_basis" >
     <v>       0.14389446       0.00005778      -0.00022948 </v>
     <v>       0.00007459       0.14176868       0.00409848 </v>
     <v>      -0.00023675       0.00411355       0.14278047 </v>
    </varray>
   </crystal>
   <varray name="positions" >
    <v>       0.99358976       0.03339530       0.48803450 </v>
    <v>       0.99271210       0.51317554       0.96802505 </v>
    <v>       0.75740860       0.22423395       0.77106874 </v>
    <v>       0.24659979       0.27150973       0.22634528 </v>
    <v>       0.24457606       0.22211741       0.77781730 </v>
    <v>       0.99515997       0.46392626       0.53720877 </v>
    <v>       0.50531222       0.03154276       0.47251162 </v>
    <v>       0.00012589       0.96978759       0.02725195 </v>
    <v>       0.24206347       0.73333284       0.26566729 </v>
    <v>       0.25152154       0.77231269       0.73189784 </v>
    <v>       0.75404760       0.27062698       0.21983113 </v>
    <v>       0.50881065       0.51662139       0.96725562 </v>
    <v>       0.75676620       0.73256224       0.26749492 </v>
    <v>       0.50358838       0.47289659       0.52679867 </v>
    <v>       0.74819087       0.78260453       0.73020202 </v>
    <v>       0.49952690       0.98935419       0.02258929 </v>
   </varray>
  </structure>
  <varray name="forces" >
   <v>       0.00919047      -0.01085752      -0.00213302 </v>
   <v>       0.00589621      -0.00462488       0.01180101 </v>
   <v>      -0.00715507       0.00763286      -0.00712017 </v>
   <v>      -0.00208325      -0.00570288       0.00633157 </v>
   <v>       0.00315059       0.01038101      -0.00775633 </v>
   <v>       0.00432069       0.00997092      -0.01220843 </v>
   <v>      -0.00762042      -0.00407622       0.00899923 </v>
   <v>      -0.00149486       0.00457482      -0.00919874 </v>
   <v>       0.00008622       0.00002288       0.00407795 </v>
   <v>       0.00329251      -0.00448651      -0.00085728 </v>
   <v>      -0.00006018      -0.00486673       0.01005821 </v>
   <v>      -0.00518245       0.00418915       0.02012182 </v>
   <v>       0.00340331       0.00022456       0.00506862 </v>
   <v>      -0.00692174       0.00534788      -0.01315832 </v>
   <v>      -0.00282861      -0.00713358      -0.00119927 </v>
   <v>       0.00400659      -0.00059577      -0.01282685 </v>
  </varray>
  <varray name="stress" >
   <v>       0.51510124       0.01211626      -0.05281856 </v>
   <v>       0.01211627       0.40192049       0.27325360 </v>
   <v>      -0.05281854       0.27325352       0.40385110 </v>
  </varray>
  <energy>
   <i name="e_fr_energy">   -152.05811667 </i>
   <i name="e_wo_entrp">   -152.05397592 </i>
   <i name="e_0_energy">     -0.01242225 </i>
  </energy>
  <time name="totalsc">    0.74    0.76</time>
 </calculation>
 <calculation>
  <scstep>
   <time name="dav">    0.21    0.22</time>
   <time name="total">    0.24    0.25</time>
   <energy>
    <i name="alphaZ">    677.63038710 </i>
    <i name="ewald">  -9693.38659978 </i>
    <i name="hartreedc">  -2947.47652656 </i>
    <i name="XCdc">     41.67894945 </i>
    <i name="pawpsdc">  16427.75809153 </i>
    <i name="pawaedc"> -15791.15507492 </i>
    <i name="eentropy">     -0.01239565 </i>
    <i name="bandstr">  -1391.10104635 </i>
    <i name="atom">  12524.00607526 </i>
    <i name="e_fr_energy">   -152.05813990 </i>
    <i name="e_wo_entrp">   -152.04574426 </i>
    <i name="e_0_energy">   -152.05400802 </i>
   </energy>
  </scstep>
  <scstep>
   <time name="diag">    0.02    0.02</time>
   <time name="diis">    0.10    0.10</time>
   <time name="orth">    0.00    0.00</time>
   <time name="total">    0.14    0.15</time>
   <energy>
    <i name="alphaZ">    677.63038710 </i>
    <i name="ewald">  -9693.38659978 </i>
    <i name="hartreedc">  -2947.71467127 </i>
    <i name="XCdc">     41.68893782 </i>
    <i name="pawpsdc">  16425.78431733 </i>
    <i name="pawaedc"> -15789.14872307 </i>
    <i name="eentropy">     -0.01243320 </i>
    <i name="bandstr">  -1390.90542772 </i>
    <i name="atom">  12524.00607526 </i>
    <i name="e_fr_energy">   -152.05813752 </i>
    <i name="e_wo_entrp">   -152.04570432 </i>
    <i name="e_0_energy">   -152.05399312 </i>
   </energy>
  </scstep>
  <structure>
   <crystal>
    <varray name="basis" >
     <v>       6.94975678      -0.00399593       0.01164452 </v>
     <v>      -0.00316250       7.05984117      -0.20342191 </v>
     <v>       0.01126674      -0.20267769       7.00983219 </v>
    </varray>
    <i name="volume">    343.64413095 </i>
    <varray name="rec_basis" >
     <v>       0.14389035       0.00005784      -0.00022960 </v>
     <v>       0.00007464       0.14176438       0.00409876 </v>
     <v>      -0.00023686       0.00411384       0.14277609 </v>
    </varray>
   </crystal>
   <varray name="positions" >
    <v>       0.99358900       0.03339572       0.48803477 </v>
    <v>       0.99271169       0.51317610       0.96802433 </v>
    <v>       0.75740886       0.22423327       0.77106954 </v>
    <v>       0.24659997       0.27151035       0.22634484 </v>
    <v>       0.24457624       0.22211645       0.77781795 </v>
    <v>       0.99515959       0.46392622       0.53720925 </v>
    <v>       0.50531290       0.03154265       0.47251082 </v>
    <v>       0.00012606       0.96978726       0.02725255 </v>
    <v>       0.24206389       0.73333295       0.26566676 </v>
    <v>       0.25152108       0.77231288       0.73189806 </v>
    <v>       0.75404743       0.27062741       0.21983060 </v>
    <v>       0.50881094       0.51662113       0.96725369 </v>
    <v>       0.75676535       0.73256239       0.26749414 </v>
    <v>       0.50358911       0.47289668       0.52679979 </v>
    <v>       0.74819120       0.78260456       0.73020248 </v>
    <v>       0.49952670       0.98935400       0.02259044 </v>
   </varray>
  </structure>
  <varray name="forces" >
   <v>       0.00907045      -0.01018905      -0.00132984 </v>
   <v>       0.00607522      -0.00622739       0.01169623 </v>
   <v>      -0.00594457       0.00880230      -0.00917061 </v>
   <v>      -0.00301909      -0.00451869       0.00734328 </v>
   <v>       0.00185866       0.01161485      -0.00956530 </v>
   <v>       0.00439603       0.00840566      -0.01115966 </v>
   <v>      -0.00749875      -0.00346260       0.00965506 </v>
   <v>      -0.00136246       0.00443751      -0.00868782 </v>
   <v>      -0.00046615      -0.00045540       0.00473911 </v>
   <v>       0.00278614      -0.00454824      -0.00229739 </v>
   <v>       0.00055472      -0.00384855       0.01029599 </v>
   <v>      -0.00510488       0.00389673       0.02020700 </v>
   <v>       0.00416106      -0.00024130       0.00580692 </v>
   <v>      -0.00692668       0.00432163      -0.01285004 </v>
   <v>      -0.00232305      -0.00677913      -0.00289297 </v>
   <v>       0.00374335      -0.00120832      -0.01178995 </v>
  </varray>
  <varray name="stress" >
   <v>       0.59464536       0.00836705      -0.04653793 </v>
   <v>       0.00836706       0.42422715       0.29625861 </v>
   <v>      -0.04653788       0.29625856       0.43744587 </v>
  </varray>
  <energy>
   <i name="e_fr_energy">   -152.05813752 </i>
   <i name="e_wo_entrp">   -152.05399312 </i>
   <i name="e_0_energy">     -0.01243320 </i>
  </energy>
  <time name="totalsc">    0.74    0.77</time>
 </calculation>
 <calculation>
  <scstep>
   <time name="dav">    0.12    0.13</time>
   <time name="total">    0.15    0.15</time>
   <energy>
    <i name="alphaZ">    677.61205755 </i>
    <i name="ewald">  -9693.29753652 </i>
    <i name="hartreedc">  -2947.66079966 </i>
    <i name="XCdc">     41.68463699 </i>
    <i name="pawpsdc">  16425.41423536 </i>
    <i name="pawaedc"> -15788.77277809 </i>
    <i name="eentropy">     -0.01240328 </i>
    <i name="bandstr">  -1391.03162215 </i>
    <i name="atom">  12524.00607526 </i>
    <i name="e_fr_energy">   -152.05813454 </i>
    <i name="e_wo_entrp">   -152.04573126 </i>
    <i name="e_0_energy">   -152.05400011 </i>
   </energy>
  </scstep>
  <scstep>
   <time name="diag">    0.02    0.02</time>
   <time name="diis">    0.05    0.05</time>
   <time name="orth">    0.00    0.00</time>
   <time name="total">    0.09    0.09</time>
   <energy>
    <i name="alphaZ">    677.61205755 </i>
    <i name="ewald">  -9693.29753652 </i>
    <i name="hartreedc">  -2947.74518357 </i>
    <i name="XCdc">     41.68820400 </i>
    <i name="pawpsdc">  16424.67913512 </i>
    <i name="pawaedc"> -15788.02722538 </i>
    <i name="eentropy">     -0.01242343 </i>
    <i name="bandstr">  -1390.96123615 </i>
    <i name="atom">  12524.00607526 </i>
    <i name="e_fr_energy">   -152.05813312 </i>
    <i name="e_wo_entrp">   -152.04570969 </i>
    <i name="e_0_energy">   -152.05399198 </i>
   </energy>
  </scstep>
  <structure>
   <crystal>
    <varray name="basis" >
     <v>       6.94981663      -0.00399691       0.01164645 </v>
     <v>      -0.00316353       7.05990605      -0.20342991 </v>
     <v>       0.01126869      -0.20268562       7.00989737 </v>
    </varray>
    <i name="volume">    343.65342660 </i>
    <varray name="rec_basis" >
     <v>       0.14388911       0.00005786      -0.00022963 </v>
     <v>       0.00007466       0.14176309       0.00409885 </v>
     <v>      -0.00023689       0.00411392       0.14277477 </v>
    </varray>
   </crystal>
   <varray name="positions" >
    <v>       0.99358877       0.03339584       0.48803486 </v>
    <v>       0.99271157       0.51317627       0.96802412 </v>
    <v>       0.75740893       0.22423307       0.77106978 </v>
    <v>       0.24660002       0.27151054       0.22634470 </v>
    <v>       0.24457629       0.22211616       0.77781815 </v>
    <v>       0.99515947       0.46392620       0.53720940 </v>
    <v>       0.50531310       0.03154261       0.47251058 </v>
    <v>       0.00012611       0.96978716       0.02725273 </v>
    <v>       0.24206402       0.73333298       0.26566659 </v>
    <v>       0.25152095       0.77231294       0.73189812 </v>
    <v>       0.75404737       0.27062754       0.21983045 </v>
    <v>       0.50881103       0.51662104       0.96725310 </v>
    <v>       0.75676509       0.73256243       0.26749390 </v>
    <v>       0.50358933       0.47289671       0.52680013 </v>
    <v>       0.74819130       0.78260457       0.73020262 </v>
    <v>       0.49952664       0.98935394       0.02259079 </v>
   </varray>
  </structure>
  <varray name="forces" >
   <v>       0.00920554      -0.01053093      -0.00222011 </v>
   <v>       0.00589209      -0.00480768       0.01164062 </v>
   <v>      -0.00689401       0.00769403      -0.00734083 </v>
   <v>      -0.00213834      -0.00560171       0.00628773 </v>
   <v>       0.00286720       0.01044119      -0.00792326 </v>
   <v>       0.00430951       0.00940049      -0.01178250 </v>
   <v>      -0.00751255      -0.00375597       0.00882171 </v>
   <v>      -0.00128628       0.00481062      -0.00914186 </v>
   <v>      -0.00025280      -0.00024081       0.00444872 </v>
   <v>       0.00334894      -0.00425466      -0.00124216 </v>
   <v>       0.00027167      -0.00497887       0.01015134 </v>
   <v>      -0.00532162       0.00393691       0.02052332 </v>
   <v>       0.00403537       0.00006329       0.00570175 </v>
   <v>      -0.00728395       0.00453069      -0.01334832 </v>
   <v>      -0.00275523      -0.00671039      -0.00181283 </v>
   <v>       0.00351443       0.00000379      -0.01276331 </v>
  </varray>
  <varray name="stress" >
   <v>       0.53947404       0.01656878      -0.05247946 </v>
   <v>       0.01656877       0.41850129       0.27590861 </v>
   <v>      -0.05247944       0.27590862       0.41270268 </v>
  </varray>
  <energy>
   <i name="e_fr_energy">   -152.05813312 </i>
   <i name="e_wo_entrp">   -152.05399198 </i>
   <i name="e_0_energy">     -0.01242343 </i>
  </energy>
  <time name="totalsc">    0.59    0.62</time>
 </calculation>
 <calculation>
  <scstep>
   <time name="dav">    0.15    0.15</time>
   <time name="total">    0.19    0.19</time>
   <energy>
    <i name="alphaZ">    677.60720307 </i>
    <i name="ewald">  -9693.27394831 </i>
    <i name="hartreedc">  -2947.73823943 </i>
    <i name="XCdc">     41.68739559 </i>
    <i name="pawpsdc">  16424.67908002 </i>
    <i name="pawaedc"> -15788.02511697 </i>
    <i name="eentropy">     -0.01241245 </i>
    <i name="bandstr">  -1390.98816969 </i>
    <i name="atom">  12524.00607526 </i>
    <i name="e_fr_energy">   -152.05813289 </i>
    <i name="e_wo_entrp">   -152.04572045 </i>
    <i name="e_0_energy">   -152.05399541 </i>
   </energy>
  </scstep>
  <scstep>
   <time name="diag">    0.02    0.02</time>
   <time name="diis">    0.08    0.08</time>
   <time name="orth">    0.00    0.00</time>
   <time name="total">    0.14    0.14</time>
   <energy>
    <i name="alphaZ">    677.60720307 </i>
    <i name="ewald">  -9693.27394831 </i>
    <i name="hartreedc">  -2947.77123875 </i>
    <i name="XCdc">     41.68877002 </i>
    <i name="pawpsdc">  16424.62927227 </i>
    <i name="pawaedc"> -15787.97210333 </i>
    <i name="eentropy">     -0.01242129 </i>
    <i name="bandstr">  -1390.95974147 </i>
    <i name="atom">  12524.00607526 </i>
    <i name="e_fr_energy">   -152.05813252 </i>
    <i name="e_wo_entrp">   -152.04571124 </i>
    <i name="e_0_energy">   -152.05399209 </i>
   </energy>
  </scstep>
  <structure>
   <crystal>
    <varray name="basis" >
     <v>       6.94983248      -0.00399717       0.01164696 </v>
     <v>      -0.00316380       7.05992323      -0.20343203 </v>
     <v>       0.01126921      -0.20268771       7.00991463 </v>
    </varray>
    <i name="volume">    343.65588858 </i>
    <varray name="rec_basis" >
     <v>       0.14388878       0.00005786      -0.00022964 </v>
     <v>       0.00007467       0.14176274       0.00409887 </v>
     <v>      -0.00023690       0.00411395       0.14277442 </v>
    </varray>
   </crystal>
   <varray name="positions" >
    <v>       0.99358871       0.03339588       0.48803488 </v>
    <v>       0.99271154       0.51317631       0.96802406 </v>
    <v>       0.75740895       0.22423301       0.77106984 </v>
    <v>       0.24660004       0.27151059       0.22634467 </v>
    <v>       0.24457630       0.22211608       0.77781820 </v>
    <v>       0.99515944       0.46392620       0.53720944 </v>
    <v>       0.50531316       0.03154260       0.47251051 </v>
    <v>       0.00012613       0.96978713       0.02725278 </v>
    <v>       0.24206406       0.73333299       0.26566655 </v>
    <v>       0.25152091       0.77231295       0.73189814 </v>
    <v>       0.75404736       0.27062758       0.21983040 </v>
    <v>       0.50881105       0.51662102       0.96725295 </v>
    <v>       0.75676503       0.73256244       0.26749384 </v>
    <v>       0.50358939       0.47289672       0.52680022 </v>
    <v>       0.74819132       0.78260458       0.73020265 </v>
    <v>       0.49952662       0.98935393       0.02259088 </v>
   </varray>
  </structure>
  <varray name="forces" >
   <v>       0.00914534      -0.01050755      -0.00235316 </v>
   <v>       0.00578293      -0.00445993       0.01153083 </v>
   <v>      -0.00712365       0.00740950      -0.00688164 </v>
   <v>      -0.00194008      -0.00586596       0.00608121 </v>
   <v>       0.00309524       0.01011434      -0.00750942 </v>
   <v>       0.00425843       0.00960161      -0.01186584 </v>
   <v>      -0.00751746      -0.00377239       0.00863401 </v>
   <v>      -0.00143349       0.00462419      -0.00908529 </v>
   <v>      -0.00007838      -0.00008224       0.00419346 </v>
   <v>       0.00343710      -0.00432160      -0.00088316 </v>
   <v>       0.00007493      -0.00502925       0.00996701 </v>
   <v>      -0.00515573       0.00417839       0.02017877 </v>
   <v>       0.00370294       0.00014437       0.00536636 </v>
   <v>      -0.00703837       0.00486949      -0.01313355 </v>
   <v>      -0.00288366      -0.00683486      -0.00133738 </v>
   <v>       0.00367393      -0.00006811      -0.01290219 </v>
  </varray>
  <varray name="stress" >
   <v>       0.45181008       0.01628725      -0.05527636 </v>
   <v>       0.01628727       0.34231402       0.27239654 </v>
   <v>      -0.05527639       0.27239656       0.33824783 </v>
  </varray>
  <energy>
   <i name="e_fr_energy">   -152.05813252 </i>
   <i name="e_wo_entrp">   -152.05399209 </i>
   <i name="e_0_energy">     -0.01242129 </i>
  </energy>
  <time name="totalsc">    0.73    0.76</time>
 </calculation>
 <calculation>
  <scstep>
   <time name="dav">    0.12    0.12</time>
   <time name="total">    0.15    0.15</time>
   <energy>
    <i name="alphaZ">    677.60592384 </i>
    <i name="ewald">  -9693.26773245 </i>
    <i name="hartreedc">  -2947.76671233 </i>
    <i name="XCdc">     41.68846373 </i>
    <i name="pawpsdc">  16424.72802115 </i>
    <i name="pawaedc"> -15788.07099667 </i>
    <i name="eentropy">     -0.01241703 </i>
    <i name="bandstr">  -1390.96875785 </i>
    <i name="atom">  12524.00607526 </i>
    <i name="e_fr_energy">   -152.05813234 </i>
    <i name="e_wo_entrp">   -152.04571532 </i>
    <i name="e_0_energy">   -152.05399333 </i>
   </energy>
  </scstep>
  <scstep>
   <time name="diag">    0.02    0.02</time>
   <time name="diis">    0.05    0.05</time>
   <time name="orth">    0.00    0.00</time>
   <time name="total">    0.09    0.09</time>
   <energy>
    <i name="alphaZ">    677.60592384 </i>
    <i name="ewald">  -9693.26773245 </i>
    <i name="hartreedc">  -2947.77479047 </i>
    <i name="XCdc">     41.68881720 </i>
    <i name="pawpsdc">  16424.82582747 </i>
    <i name="pawaedc"> -15788.16853094 </i>
    <i name="eentropy">     -0.01241951 </i>
    <i name="bandstr">  -1390.96130250 </i>
    <i name="atom">  12524.00607526 </i>
    <i name="e_fr_energy">   -152.05813209 </i>
    <i name="e_wo_entrp">   -152.04571258 </i>
    <i name="e_0_energy">   -152.05399226 </i>
   </energy>
  </scstep>
  <structure>
   <crystal>
    <varray name="basis" >
     <v>       6.94983666      -0.00399724       0.01164709 </v>
     <v>      -0.00316388       7.05992776      -0.20343259 </v>
     <v>       0.01126934      -0.20268827       7.00991918 </v>
    </varray>
    <i name="volume">    343.65653736 </i>
    <varray name="rec_basis" >
     <v>       0.14388869       0.00005787      -0.00022965 </v>
     <v>       0.00007467       0.14176265       0.00409888 </v>
     <v>      -0.00023691       0.00411395       0.14277433 </v>
    </varray>
   </crystal>
   <varray name="positions" >
    <v>       0.99358870       0.03339588       0.48803488 </v>
    <v>       0.99271153       0.51317633       0.96802405 </v>
    <v>       0.75740896       0.22423300       0.77106986 </v>
    <v>       0.24660004       0.27151060       0.22634466 </v>
    <v>       0.24457631       0.22211606       0.77781821 </v>
    <v>       0.99515943       0.46392620       0.53720945 </v>
    <v>       0.50531317       0.03154260       0.47251049 </v>
    <v>       0.00012613       0.96978712       0.02725279 </v>
    <v>       0.24206407       0.73333299       0.26566654 </v>
    <v>       0.25152090       0.77231295       0.73189814 </v>
    <v>       0.75404735       0.27062759       0.21983039 </v>
    <v>       0.50881105       0.51662102       0.96725291 </v>
    <v>       0.75676501       0.73256244       0.26749382 </v>
    <v>       0.50358941       0.47289672       0.52680024 </v>
    <v>       0.74819133       0.78260458       0.73020266 </v>
    <v>       0.49952662       0.98935392       0.02259090 </v>
   </varray>
  </structure>
  <varray name="forces" >
   <v>       0.00914508      -0.01046937      -0.00241182 </v>
   <v>       0.00574650      -0.00431764       0.01147554 </v>
   <v>      -0.00721182       0.00727303      -0.00668462 </v>
   <v>      -0.00183479      -0.00602771       0.00597342 </v>
   <v>       0.00320478       0.00993966      -0.00729837 </v>
   <v>       0.00424281       0.00971366      -0.01193800 </v>
   <v>      -0.00753055      -0.00375302       0.00855008 </v>
   <v>      -0.00148665       0.00458627      -0.00911379 </v>
   <v>      -0.00002725      -0.00002780       0.00411836 </v>
   <v>       0.00346813      -0.00434870      -0.00072047 </v>
   <v>      -0.00000378      -0.00506356       0.00991427 </v>
   <v>      -0.00511817       0.00424315       0.02006442 </v>
   <v>       0.00357996       0.00015985       0.00528520 </v>
   <v>      -0.00697149       0.00502804      -0.01310650 </v>
   <v>      -0.00292947      -0.00688689      -0.00114855 </v>
   <v>       0.00372670      -0.00004896      -0.01295915 </v>
  </varray>
  <varray name="stress" >
   <v>       0.44527936       0.01571414      -0.05672200 </v>
   <v>       0.01571414       0.34278519       0.26833180 </v>
   <v>      -0.05672194       0.26833174       0.34084017 </v>
  </varray>
  <energy>
   <i name="e_fr_energy">   -152.05813209 </i>
   <i name="e_wo_entrp">   -152.05399226 </i>
   <i name="e_0_energy">     -0.01241951 </i>
  </energy>
  <time name="totalsc">    0.77    0.79</time>
 </calculation>
 <calculation>
  <scstep>
   <time name="dav">    0.13    0.13</time>
   <time name="total">    0.15    0.16</time>
   <energy>
    <i name="alphaZ">    677.60549656 </i>
    <i name="ewald">  -9693.26565625 </i>
    <i name="hartreedc">  -2947.77345415 </i>
    <i name="XCdc">     41.68871428 </i>
    <i name="pawpsdc">  16424.91010191 </i>
    <i name="pawaedc"> -15788.25319948 </i>
    <i name="eentropy">     -0.01241855 </i>
    <i name="bandstr">  -1390.96379161 </i>
    <i name="atom">  12524.00607526 </i>
    <i name="e_fr_energy">   -152.05813203 </i>
    <i name="e_wo_entrp">   -152.04571348 </i>
    <i name="e_0_energy">   -152.05399251 </i>
   </energy>
  </scstep>
  <scstep>
   <time name="diag">    0.07    0.07</time>
   <time name="diis">    0.10    0.10</time>
   <time name="orth">    0.00    0.00</time>
   <time name="total">    0.18    0.19</time>
   <energy>
    <i name="alphaZ">    677.60549656 </i>
    <i name="ewald">  -9693.26565625 </i>
    <i name="hartreedc">  -2947.77434331 </i>
    <i name="XCdc">     41.68875079 </i>
    <i name="pawpsdc">  16425.00377305 </i>
    <i name="pawaedc"> -15788.34764696 </i>
    <i name="eentropy">     -0.01241933 </i>
    <i name="bandstr">  -1390.96216162 </i>
    <i name="atom">  12524.00607526 </i>
    <i name="e_fr_energy">   -152.05813182 </i>
    <i name="e_wo_entrp">   -152.04571249 </i>
    <i name="e_0_energy">   -152.05399204 </i>
   </energy>
  </scstep>
  <structure>
   <crystal>
    <varray name="basis" >
     <v>       6.94983805      -0.00399726       0.01164714 </v>
     <v>      -0.00316390       7.05992927      -0.20343277 </v>
     <v>       0.01126939      -0.20268845       7.00992070 </v>
    </varray>
    <i name="volume">    343.65675406 </i>
    <varray name="rec_basis" >
     <v>       0.14388866       0.00005787      -0.00022965 </v>
     <v>       0.00007467       0.14176262       0.00409888 </v>
     <v>      -0.00023691       0.00411395       0.14277430 </v>
    </varray>
   </crystal>
   <varray name="positions" >
    <v>       0.99358869       0.03339589       0.48803489 </v>
    <v>       0.99271152       0.51317633       0.96802404 </v>
    <v>       0.75740896       0.22423299       0.77106986 </v>
    <v>       0.24660004       0.27151061       0.22634466 </v>
    <v>       0.24457631       0.22211605       0.77781822 </v>
    <v>       0.99515943       0.46392620       0.53720945 </v>
    <v>       0.50531318       0.03154260       0.47251049 </v>
    <v>       0.00012613       0.96978712       0.02725280 </v>
    <v>       0.24206407       0.73333299       0.26566654 </v>
    <v>       0.25152090       0.77231296       0.73189814 </v>
    <v>       0.75404735       0.27062759       0.21983039 </v>
    <v>       0.50881106       0.51662102       0.96725289 </v>
    <v>       0.75676500       0.73256245       0.26749382 </v>
    <v>       0.50358941       0.47289672       0.52680025 </v>
    <v>       0.74819133       0.78260458       0.73020266 </v>
    <v>       0.49952662       0.98935392       0.02259091 </v>
   </varray>
  </structure>
  <varray name="forces" >
   <v>       0.00913387      -0.01048076      -0.00242146 </v>
   <v>       0.00573137      -0.00426628       0.01147489 </v>
   <v>      -0.00723715       0.00724077      -0.00662631 </v>
   <v>      -0.00181153      -0.00604478       0.00594385 </v>
   <v>       0.00323043       0.00989865      -0.00724849 </v>
   <v>       0.00423317       0.00975785      -0.01195684 </v>
   <v>      -0.00752933      -0.00375744       0.00853451 </v>
   <v>      -0.00150458       0.00458655      -0.00911724 </v>
   <v>      -0.00000437      -0.00001074       0.00408798 </v>
   <v>       0.00344789      -0.00435938      -0.00068847 </v>
   <v>      -0.00003597      -0.00504840       0.00989649 </v>
   <v>      -0.00510790       0.00423769       0.02001853 </v>
   <v>       0.00353408       0.00016110       0.00523786 </v>
   <v>      -0.00694343       0.00510425      -0.01310187 </v>
   <v>      -0.00292198      -0.00690800      -0.00109314 </v>
   <v>       0.00378543      -0.00011107      -0.01294029 </v>
  </varray>
  <varray name="stress" >
   <v>       0.42752175       0.01560890      -0.05699839 </v>
   <v>       0.01560892       0.32683300       0.26731559 </v>
   <v>      -0.05699838       0.26731556       0.32558041 </v>
  </varray>
  <energy>
   <i name="e_fr_energy">   -152.05813182 </i>
   <i name="e_wo_entrp">   -152.05399204 </i>
   <i name="e_0_energy">     -0.01241933 </i>
  </energy>
  <time name="totalsc">    0.75    0.79</time>
 </calculation>
 <calculation>
  <scstep>
   <time name="dav">    0.12    0.12</time>
   <time name="total">    0.14    0.15</time>
   <energy>
    <i name="alphaZ">    677.60535642 </i>
    <i name="ewald">  -9693.26497532 </i>
    <i name="hartreedc">  -2947.77257455 </i>
    <i name="XCdc">     41.68866150 </i>
    <i name="pawpsdc">  16425.06809860 </i>
    <i name="pawaedc"> -15788.41293028 </i>
    <i name="eentropy">     -0.01241885 </i>
    <i name="bandstr">  -1390.96342447 </i>
    <i name="atom">  12524.00607526 </i>
    <i name="e_fr_energy">   -152.05813168 </i>
    <i name="e_wo_entrp">   -152.04571283 </i>
    <i name="e_0_energy">   -152.05399207 </i>
   </energy>
  </scstep>
  <scstep>
   <time name="diag">    0.02    0.02</time>
   <time name="diis">    0.04    0.04</time>
   <time name="orth">    0.00    0.00</time>
   <time name="total">    0.08    0.09</time>
   <energy>
    <i name="alphaZ">    677.60535642 </i>
    <i name="ewald">  -9693.26497532 </i>
    <i name="hartreedc">  -2947.77205728 </i>
    <i name="XCdc">     41.68862869 </i>
    <i name="pawpsdc">  16425.12778727 </i>
    <i name="pawaedc"> -15788.47368541 </i>
    <i name="eentropy">     -0.01241965 </i>
    <i name="bandstr">  -1390.96284154 </i>
    <i name="atom">  12524.00607526 </i>
    <i name="e_fr_energy">   -152.05813155 </i>
    <i name="e_wo_entrp">   -152.04571190 </i>
    <i name="e_0_energy">   -152.05399167 </i>
   </energy>
  </scstep>
  <structure>
   <crystal>
    <varray name="basis" >
     <v>       6.94983851      -0.00399727       0.01164715 </v>
     <v>      -0.00316391       7.05992977      -0.20343283 </v>
     <v>       0.01126941      -0.20268851       7.00992120 </v>
    </varray>
    <i name="volume">    343.65682513 </i>
    <varray name="rec_basis" >
     <v>       0.14388865       0.00005787      -0.00022965 </v>
     <v>       0.00007467       0.14176261       0.00409888 </v>
     <v>      -0.00023691       0.00411395       0.14277429 </v>
    </varray>
   </crystal>
   <varray name="positions" >
    <v>       0.99358869       0.03339589       0.48803489 </v>
    <v>       0.99271152       0.51317633       0.96802404 </v>
    <v>       0.75740896       0.22423299       0.77106986 </v>
    <v>       0.24660004       0.27151061       0.22634465 </v>
    <v>       0.24457631       0.22211605       0.77781822 </v>
    <v>       0.99515943       0.46392620       0.53720945 </v>
    <v>       0.50531318       0.03154260       0.47251049 </v>
    <v>       0.00012613       0.96978712       0.02725280 </v>
    <v>       0.24206407       0.73333299       0.26566653 </v>
    <v>       0.25152090       0.77231296       0.73189814 </v>
    <v>       0.75404735       0.27062759       0.21983039 </v>
    <v>       0.50881106       0.51662102       0.96725289 </v>
    <v>       0.75676500       0.73256245       0.26749382 </v>
    <v>       0.50358942       0.47289672       0.52680025 </v>
    <v>       0.74819133       0.78260458       0.73020267 </v>
    <v>       0.49952662       0.98935392       0.02259092 </v>
   </varray>
  </structure>
  <varray name="forces" >
   <v>       0.00913243      -0.01048883      -0.00241667 </v>
   <v>       0.00573483      -0.00427304       0.01148044 </v>
   <v>      -0.00723966       0.00721177      -0.00659833 </v>
   <v>      -0.00180115      -0.00605567       0.00592114 </v>
   <v>       0.00324094       0.00987598      -0.00723557 </v>
   <v>       0.00423477       0.00976086      -0.01196618 </v>
   <v>      -0.00752574      -0.00377067       0.00852429 </v>
   <v>      -0.00147396       0.00466354      -0.00914011 </v>
   <v>       0.00001350       0.00003444       0.00405916 </v>
   <v>       0.00346327      -0.00431428      -0.00065862 </v>
   <v>      -0.00005495      -0.00511290       0.00989643 </v>
   <v>      -0.00512910       0.00419876       0.02002611 </v>
   <v>       0.00351851       0.00020294       0.00521881 </v>
   <v>      -0.00695816       0.00507763      -0.01310969 </v>
   <v>      -0.00292860      -0.00686976      -0.00106908 </v>
   <v>       0.00377307      -0.00014075      -0.01293215 </v>
  </varray>
  <varray name="stress" >
   <v>       0.42321162       0.01542634      -0.05709271 </v>
   <v>       0.01542631       0.32273831       0.26718076 </v>
   <v>      -0.05709274       0.26718075       0.32179523 </v>
  </varray>
  <energy>
   <i name="e_fr_energy">   -152.05813155 </i>
   <i name="e_wo_entrp">   -152.05399167 </i>
   <i name="e_0_energy">     -0.01241965 </i>
  </energy>
  <time name="totalsc">    0.57    0.61</time>
 </calculation>
 <calculation>
  <scstep>
   <time name="dav">    0.11    0.11</time>
   <time name="total">    0.14    0.14</time>
   <energy>
    <i name="alphaZ">    677.60530801 </i>
    <i name="ewald">  -9693.26474012 </i>
    <i name="hartreedc">  -2947.77035185 </i>
    <i name="XCdc">     41.68855657 </i>
    <i name="pawpsdc">  16425.14822701 </i>
    <i name="pawaedc"> -15788.49483879 </i>
    <i name="eentropy">     -0.01241908 </i>
    <i name="bandstr">  -1390.96394851 </i>
    <i name="atom">  12524.00607526 </i>
    <i name="e_fr_energy">   -152.05813150 </i>
    <i name="e_wo_entrp">   -152.04571242 </i>
    <i name="e_0_energy">   -152.05399180 </i>
   </energy>
  </scstep>
  <scstep>
   <time name="diag">    0.02    0.02</time>
   <time name="diis">    0.04    0.04</time>
   <time name="orth">    0.00    0.00</time>
   <time name="total">    0.08    0.08</time>
   <energy>
    <i name="alphaZ">    677.60530801 </i>
    <i name="ewald">  -9693.26474012 </i>
    <i name="hartreedc">  -2947.76910431 </i>
    <i name="XCdc">     41.68849547 </i>
    <i name="pawpsdc">  16425.15400448 </i>
    <i name="pawaedc"> -15788.50186259 </i>
[...]
    <i name="ewald">  -9693.26461387 </i>
    <i name="hartreedc">  -2947.76460845 </i>
    <i name="XCdc">     41.68830244 </i>
    <i name="pawpsdc">  16425.11151950 </i>
    <i name="pawaedc"> -15788.46283670 </i>
    <i name="eentropy">     -0.01241927 </i>
    <i name="bandstr">  -1390.96483214 </i>
    <i name="atom">  12524.00607526 </i>
    <i name="e_fr_energy">   -152.05813119 </i>
    <i name="e_wo_entrp">   -152.04571192 </i>
    <i name="e_0_energy">   -152.05399143 </i>
   </energy>
  </scstep>
  <scstep>
   <time name="diag">    0.02    0.02</time>
   <time name="diis">    0.04    0.04</time>
   <time name="orth">    0.00    0.00</time>
   <time name="total">    0.08    0.08</time>
   <energy>
    <i name="alphaZ">    677.60528203 </i>
    <i name="ewald">  -9693.26461387 </i>
    <i name="hartreedc">  -2947.76442895 </i>
    <i name="XCdc">     41.68829457 </i>
    <i name="pawpsdc">  16425.10873031 </i>
    <i name="pawaedc"> -15788.46019559 </i>
    <i name="eentropy">     -0.01241928 </i>
    <i name="bandstr">  -1390.96485568 </i>
    <i name="atom">  12524.00607526 </i>
    <i name="e_fr_energy">   -152.05813118 </i>
    <i name="e_wo_entrp">   -152.04571190 </i>
    <i name="e_0_energy">   -152.05399142 </i>
   </energy>
  </scstep>
  <structure>
   <crystal>
    <varray name="basis" >
     <v>       6.94983875      -0.00399728       0.01164716 </v>
     <v>      -0.00316391       7.05993003      -0.20343287 </v>
     <v>       0.01126941      -0.20268855       7.00992147 </v>
    </varray>
    <i name="volume">    343.65686286 </i>
    <varray name="rec_basis" >
     <v>       0.14388865       0.00005787      -0.00022965 </v>
     <v>       0.00007467       0.14176261       0.00409888 </v>
     <v>      -0.00023691       0.00411395       0.14277428 </v>
    </varray>
   </crystal>
   <varray name="positions" >
    <v>       0.99358869       0.03339589       0.48803489 </v>
    <v>       0.99271152       0.51317633       0.96802404 </v>
    <v>       0.75740896       0.22423299       0.77106987 </v>
    <v>       0.24660004       0.27151061       0.22634465 </v>
    <v>       0.24457631       0.22211605       0.77781822 </v>
    <v>       0.99515943       0.46392620       0.53720945 </v>
    <v>       0.50531318       0.03154260       0.47251049 </v>
    <v>       0.00012613       0.96978712       0.02725280 </v>
    <v>       0.24206407       0.73333299       0.26566653 </v>
    <v>       0.25152089       0.77231296       0.73189814 </v>
    <v>       0.75404735       0.27062759       0.21983039 </v>
    <v>       0.50881106       0.51662101       0.96725289 </v>
    <v>       0.75676500       0.73256245       0.26749382 </v>
    <v>       0.50358942       0.47289672       0.52680025 </v>
    <v>       0.74819133       0.78260458       0.73020267 </v>
    <v>       0.49952662       0.98935392       0.02259092 </v>
   </varray>
  </structure>
  <varray name="forces" >
   <v>       0.00913138      -0.01047171      -0.00241182 </v>
   <v>       0.00573027      -0.00426163       0.01147323 </v>
   <v>      -0.00723929       0.00722496      -0.00659943 </v>
   <v>      -0.00180842      -0.00606167       0.00592260 </v>
   <v>       0.00323525       0.00987474      -0.00722780 </v>
   <v>       0.00423360       0.00977597      -0.01197362 </v>
   <v>      -0.00753478      -0.00375847       0.00853129 </v>
   <v>      -0.00148561       0.00466023      -0.00912134 </v>
   <v>      -0.00003522      -0.00000150       0.00410474 </v>
   <v>       0.00339568      -0.00436473      -0.00072334 </v>
   <v>       0.00000493      -0.00501946       0.00993646 </v>
   <v>      -0.00512136       0.00415542       0.02000020 </v>
   <v>       0.00355245       0.00017357       0.00525295 </v>
   <v>      -0.00695266       0.00507438      -0.01309607 </v>
   <v>      -0.00287179      -0.00691578      -0.00113338 </v>
   <v>       0.00376557      -0.00008431      -0.01293467 </v>
  </varray>
  <varray name="stress" >
   <v>       0.41648468       0.01525113      -0.05714891 </v>
   <v>       0.01525113       0.31662249       0.26653884 </v>
   <v>      -0.05714890       0.26653886       0.31644049 </v>
  </varray>
  <energy>
   <i name="e_fr_energy">   -152.05813118 </i>
   <i name="e_wo_entrp">   -152.05399142 </i>
   <i name="e_0_energy">     -0.01241928 </i>
  </energy>
  <time name="totalsc">    0.65    0.67</time>
 </calculation>
 <calculation>
  <scstep>
   <time name="dav">    0.11    0.11</time>
   <time name="total">    0.14    0.14</time>
   <energy>
    <i name="alphaZ">    677.60528194 </i>
    <i name="ewald">  -9693.26461341 </i>
    <i name="hartreedc">  -2947.76414894 </i>
    <i name="XCdc">     41.68828252 </i>
    <i name="pawpsdc">  16425.10485454 </i>
    <i name="pawaedc"> -15788.45652736 </i>
    <i name="eentropy">     -0.01241926 </i>
    <i name="bandstr">  -1390.96491648 </i>
    <i name="atom">  12524.00607526 </i>
    <i name="e_fr_energy">   -152.05813117 </i>
    <i name="e_wo_entrp">   -152.04571192 </i>
    <i name="e_0_energy">   -152.05399142 </i>
   </energy>
  </scstep>
  <scstep>
   <time name="diag">    0.02    0.02</time>
   <time name="diis">    0.04    0.04</time>
   <time name="orth">    0.00    0.00</time>
   <time name="total">    0.08    0.08</time>
   <energy>
    <i name="alphaZ">    677.60528194 </i>
    <i name="ewald">  -9693.26461341 </i>
    <i name="hartreedc">  -2947.76417389 </i>
    <i name="XCdc">     41.68828354 </i>
    <i name="pawpsdc">  16425.10173683 </i>
    <i name="pawaedc"> -15788.45345381 </i>
    <i name="eentropy">     -0.01241930 </i>
    <i name="bandstr">  -1390.96484833 </i>
    <i name="atom">  12524.00607526 </i>
    <i name="e_fr_energy">   -152.05813117 </i>
    <i name="e_wo_entrp">   -152.04571188 </i>
    <i name="e_0_energy">   -152.05399141 </i>
   </energy>
  </scstep>
  <structure>
   <crystal>
    <varray name="basis" >
     <v>       6.94983875      -0.00399728       0.01164716 </v>
     <v>      -0.00316391       7.05993003      -0.20343287 </v>
     <v>       0.01126941      -0.20268855       7.00992147 </v>
    </varray>
    <i name="volume">    343.65686291 </i>
    <varray name="rec_basis" >
     <v>       0.14388865       0.00005787      -0.00022965 </v>
     <v>       0.00007467       0.14176261       0.00409888 </v>
     <v>      -0.00023691       0.00411395       0.14277428 </v>
    </varray>
   </crystal>
   <varray name="positions" >
    <v>       0.99358869       0.03339589       0.48803489 </v>
    <v>       0.99271152       0.51317633       0.96802404 </v>
    <v>       0.75740896       0.22423299       0.77106987 </v>
    <v>       0.24660004       0.27151061       0.22634465 </v>
    <v>       0.24457631       0.22211605       0.77781822 </v>
    <v>       0.99515943       0.46392620       0.53720945 </v>
    <v>       0.50531318       0.03154260       0.47251049 </v>
    <v>       0.00012613       0.96978712       0.02725280 </v>
    <v>       0.24206407       0.73333299       0.26566653 </v>
    <v>       0.25152089       0.77231296       0.73189814 </v>
    <v>       0.75404735       0.27062759       0.21983039 </v>
    <v>       0.50881106       0.51662101       0.96725289 </v>
    <v>       0.75676500       0.73256245       0.26749382 </v>
    <v>       0.50358942       0.47289672       0.52680025 </v>
    <v>       0.74819133       0.78260458       0.73020267 </v>
    <v>       0.49952662       0.98935392       0.02259092 </v>
   </varray>
  </structure>
  <varray name="forces" >
   <v>       0.00913119      -0.01047206      -0.00241056 </v>
   <v>       0.00573038      -0.00426302       0.01147408 </v>
   <v>      -0.00723800       0.00722669      -0.00660134 </v>
   <v>      -0.00181041      -0.00605976       0.00592443 </v>
   <v>       0.00323360       0.00987604      -0.00722963 </v>
   <v>       0.00423352       0.00977553      -0.01197313 </v>
   <v>      -0.00753493      -0.00375929       0.00853356 </v>
   <v>      -0.00148558       0.00466076      -0.00911951 </v>
   <v>      -0.00003782      -0.00000312       0.00410686 </v>
   <v>       0.00339149      -0.00436723      -0.00072715 </v>
   <v>       0.00000836      -0.00501568       0.00993761 </v>
   <v>      -0.00512086       0.00415170       0.02000030 </v>
   <v>       0.00355410       0.00017226       0.00525382 </v>
   <v>      -0.00695229       0.00507284      -0.01309408 </v>
   <v>      -0.00286854      -0.00691708      -0.00113676 </v>
   <v>       0.00376578      -0.00007858      -0.01293851 </v>
  </varray>
  <varray name="stress" >
   <v>       0.41699247       0.01527897      -0.05713427 </v>
   <v>       0.01527902       0.31714909       0.26656609 </v>
   <v>      -0.05713427       0.26656603       0.31690802 </v>
  </varray>
  <energy>
   <i name="e_fr_energy">   -152.05813117 </i>
   <i name="e_wo_entrp">   -152.05399141 </i>
   <i name="e_0_energy">     -0.01241930 </i>
  </energy>
  <time name="totalsc">    0.59    0.61</time>
 </calculation>
 <calculation>
  <scstep>
   <time name="dav">    0.17    0.17</time>
   <time name="total">    0.20    0.20</time>
   <energy>
    <i name="alphaZ">    675.65370788 </i>
    <i name="ewald">  -9683.77257384 </i>
    <i name="hartreedc">  -2945.09254353 </i>
    <i name="XCdc">     41.26334822 </i>
    <i name="pawpsdc">  16425.10027172 </i>
    <i name="pawaedc"> -15788.45200927 </i>
    <i name="eentropy">     -0.01186861 </i>
    <i name="bandstr">  -1400.76006943 </i>
    <i name="atom">  12524.00607526 </i>
    <i name="e_fr_energy">   -152.06566159 </i>
    <i name="e_wo_entrp">   -152.05379298 </i>
    <i name="e_0_energy">   -152.06170539 </i>
   </energy>
  </scstep>
  <scstep>
   <time name="diag">    0.02    0.02</time>
   <time name="diis">    0.13    0.13</time>
   <time name="orth">    0.00    0.00</time>
   <time name="total">    0.17    0.18</time>
   <energy>
    <i name="e_fr_energy">   -152.05966256 </i>
    <i name="e_wo_entrp">   -152.04710145 </i>
    <i name="e_0_energy">   -152.05547552 </i>
   </energy>
  </scstep>
  <scstep>
   <time name="diag">    0.02    0.02</time>
   <time name="diis">    0.13    0.13</time>
   <time name="orth">    0.00    0.00</time>
   <time name="total">    0.18    0.18</time>
   <energy>
    <i name="e_fr_energy">   -152.05800416 </i>
    <i name="e_wo_entrp">   -152.04586297 </i>
    <i name="e_0_energy">   -152.05395710 </i>
   </energy>
  </scstep>
  <scstep>
   <time name="diag">    0.02    0.02</time>
   <time name="diis">    0.19    0.19</time>
   <time name="orth">    0.00    0.00</time>
   <time name="total">    0.24    0.24</time>
   <energy>
    <i name="e_fr_energy">   -152.05723356 </i>
    <i name="e_wo_entrp">   -152.04475774 </i>
    <i name="e_0_energy">   -152.05307495 </i>
   </energy>
  </scstep>
  <scstep>
   <time name="diag">    0.02    0.02</time>
   <time name="diis">    0.13    0.13</time>
   <time name="orth">    0.00    0.00</time>
   <time name="total">    0.18    0.19</time>
   <energy>
    <i name="e_fr_energy">   -152.05722251 </i>
    <i name="e_wo_entrp">   -152.04479064 </i>
    <i name="e_0_energy">   -152.05307855 </i>
   </energy>
  </scstep>
  <scstep>
   <time name="diag">    0.03    0.03</time>
   <time name="diis">    0.11    0.12</time>
   <time name="orth">    0.00    0.00</time>
   <time name="total">    0.17    0.18</time>
   <energy>
    <i name="e_fr_energy">   -152.05724403 </i>
    <i name="e_wo_entrp">   -152.04479392 </i>
    <i name="e_0_energy">   -152.05309400 </i>
   </energy>
  </scstep>
  <scstep>
   <time name="diag">    0.03    0.03</time>
   <time name="diis">    0.09    0.09</time>
   <time name="orth">    0.00    0.00</time>
   <time name="total">    0.13    0.13</time>
   <energy>
    <i name="alphaZ">    675.65370788 </i>
    <i name="ewald">  -9683.77257384 </i>
    <i name="hartreedc">  -2950.98272861 </i>
    <i name="XCdc">     41.53961748 </i>
    <i name="pawpsdc">  16360.80363595 </i>
    <i name="pawaedc"> -15724.09876650 </i>
    <i name="eentropy">     -0.01244941 </i>
    <i name="bandstr">  -1395.19376918 </i>
    <i name="atom">  12524.00607526 </i>
    <i name="e_fr_energy">   -152.05725096 </i>
    <i name="e_wo_entrp">   -152.04480155 </i>
    <i name="e_0_energy">   -152.05310116 </i>
   </energy>
  </scstep>
  <structure>
   <crystal>
    <varray name="basis" >
     <v>       6.95622390      -0.00410184       0.01185264 </v>
     <v>      -0.00327364       7.06685133      -0.20428614 </v>
     <v>       0.01147794      -0.20353419       7.01687519 </v>
    </varray>
    <i name="volume">    344.64948947 </i>
    <varray name="rec_basis" >
     <v>       0.14375659       0.00005985      -0.00023342 </v>
     <v>       0.00007651       0.14162452       0.00410789 </v>
     <v>      -0.00024060       0.00412309       0.14263357 </v>
    </varray>
   </crystal>
   <varray name="positions" >
    <v>       0.99356433       0.03340931       0.48804368 </v>
    <v>       0.99269838       0.51319431       0.96800114 </v>
    <v>       0.75741717       0.22421123       0.77109548 </v>
    <v>       0.24660586       0.27153069       0.22633040 </v>
    <v>       0.24458189       0.22208505       0.77783903 </v>
    <v>       0.99514698       0.46392469       0.53722493 </v>
    <v>       0.50533497       0.03153892       0.47248477 </v>
    <v>       0.00013163       0.96977630       0.02727201 </v>
    <v>       0.24207768       0.73333657       0.26564927 </v>
    <v>       0.25150617       0.77231899       0.73190499 </v>
    <v>       0.75404159       0.27064144       0.21981360 </v>
    <v>       0.50882044       0.51661238       0.96719058 </v>
    <v>       0.75673773       0.73256711       0.26746865 </v>
    <v>       0.50361312       0.47289958       0.52683634 </v>
    <v>       0.74820182       0.78260568       0.73021728 </v>
    <v>       0.49952023       0.98934774       0.02262785 </v>
   </varray>
  </structure>
  <varray name="forces" >
   <v>       0.00705103      -0.00417951      -0.00257527 </v>
   <v>       0.00381161      -0.00530937       0.00702075 </v>
   <v>      -0.00246870       0.00662326      -0.00776975 </v>
   <v>      -0.00183487      -0.00593783       0.00443578 </v>
   <v>      -0.00149498       0.00907687      -0.00635722 </v>
   <v>       0.00348285       0.00054642      -0.00445427 </v>
   <v>      -0.00600873       0.00093607       0.00696285 </v>
   <v>      -0.00157937       0.00340880      -0.00607927 </v>
   <v>      -0.00335380      -0.00157251       0.00570792 </v>
   <v>       0.00430044      -0.00179431      -0.00256325 </v>
   <v>       0.00178337      -0.00355694       0.00548807 </v>
   <v>      -0.00326976       0.00280903       0.01812441 </v>
   <v>       0.00751719      -0.00168265       0.00831142 </v>
   <v>      -0.00698681      -0.00007143      -0.01058174 </v>
   <v>      -0.00283282      -0.00053317      -0.00500249 </v>
   <v>       0.00188335       0.00123726      -0.01066795 </v>
  </varray>
  <varray name="stress" >
   <v>      -2.30337833       0.03221462      -0.07745262 </v>
   <v>       0.03221469      -2.50658657       0.26330654 </v>
   <v>      -0.07745268       0.26330657      -2.53033849 </v>
  </varray>
  <energy>
   <i name="e_fr_energy">   -152.05725096 </i>
   <i name="e_wo_entrp">   -152.05310116 </i>
   <i name="e_0_energy">     -0.01244941 </i>
  </energy>
  <time name="totalsc">    1.63    1.68</time>
 </calculation>
 <calculation>
  <scstep>
   <time name="dav">    0.19    0.19</time>
   <time name="total">    0.22    0.22</time>
   <energy>
    <i name="alphaZ">    675.65370788 </i>
    <i name="ewald">  -9683.77257384 </i>
    <i name="hartreedc">  -2950.94337475 </i>
    <i name="XCdc">     41.53811734 </i>
    <i name="pawpsdc">  16361.90777976 </i>
    <i name="pawaedc"> -15725.27770553 </i>
    <i name="eentropy">     -0.01245521 </i>
    <i name="bandstr">  -1395.15683041 </i>
    <i name="atom">  12524.00607526 </i>
    <i name="e_fr_energy">   -152.05725950 </i>
    <i name="e_wo_entrp">   -152.04480428 </i>
    <i name="e_0_energy">   -152.05310776 </i>
   </energy>
  </scstep>
  <scstep>
   <time name="diag">    0.02    0.02</time>
   <time name="diis">    0.05    0.05</time>
   <time name="orth">    0.00    0.00</time>
   <time name="total">    0.09    0.09</time>
   <energy>
    <i name="alphaZ">    675.65370788 </i>
    <i name="ewald">  -9683.77257384 </i>
    <i name="hartreedc">  -2950.89323526 </i>
    <i name="XCdc">     41.53601622 </i>
    <i name="pawpsdc">  16361.54401227 </i>
    <i name="pawaedc"> -15724.96311214 </i>
    <i name="eentropy">     -0.01245096 </i>
    <i name="bandstr">  -1395.15569818 </i>
    <i name="atom">  12524.00607526 </i>
    <i name="e_fr_energy">   -152.05725875 </i>
    <i name="e_wo_entrp">   -152.04480779 </i>
    <i name="e_0_energy">   -152.05310843 </i>
   </energy>
  </scstep>
  <structure>
   <crystal>
    <varray name="basis" >
     <v>       6.95622390      -0.00410184       0.01185264 </v>
     <v>      -0.00327364       7.06685133      -0.20428614 </v>
     <v>       0.01147794      -0.20353419       7.01687519 </v>
    </varray>
    <i name="volume">    344.64948947 </i>
    <varray name="rec_basis" >
     <v>       0.14375659       0.00005985      -0.00023342 </v>
     <v>       0.00007651       0.14162452       0.00410789 </v>
     <v>      -0.00024060       0.00412309       0.14263357 </v>
    </varray>
   </crystal>
   <varray name="positions" >
    <v>       0.99356433       0.03340931       0.48804368 </v>
    <v>       0.99269838       0.51319431       0.96800114 </v>
    <v>       0.75741717       0.22421123       0.77109548 </v>
    <v>       0.24660586       0.27153069       0.22633040 </v>
    <v>       0.24458189       0.22208505       0.77783903 </v>
    <v>       0.99514698       0.46392469       0.53722493 </v>
    <v>       0.50533497       0.03153892       0.47248477 </v>
    <v>       0.00013163       0.96977630       0.02727201 </v>
    <v>       0.24207768       0.73333657       0.26564927 </v>
    <v>       0.25150617       0.77231899       0.73190499 </v>
    <v>       0.75404159       0.27064144       0.21981360 </v>
    <v>       0.50882044       0.51661238       0.96719058 </v>
    <v>       0.75673773       0.73256711       0.26746865 </v>
    <v>       0.50361312       0.47289958       0.52683634 </v>
    <v>       0.74820182       0.78260568       0.73021728 </v>
    <v>       0.49952023       0.98934774       0.02262785 </v>
   </varray>
  </structure>
  <varray name="forces" >
   <v>       0.00703007      -0.00409051      -0.00259804 </v>
   <v>       0.00372225      -0.00485455       0.00681167 </v>
   <v>      -0.00264614       0.00633123      -0.00711672 </v>
   <v>      -0.00175100      -0.00613790       0.00438630 </v>
   <v>      -0.00137480       0.00885303      -0.00608197 </v>
   <v>       0.00346105       0.00087735      -0.00462653 </v>
   <v>      -0.00599131       0.00075194       0.00720427 </v>
   <v>      -0.00184197       0.00386083      -0.00618279 </v>
   <v>      -0.00340796      -0.00129767       0.00547927 </v>
   <v>       0.00433842      -0.00206045      -0.00220788 </v>
   <v>       0.00180863      -0.00388327       0.00519156 </v>
   <v>      -0.00313180       0.00229869       0.01789985 </v>
   <v>       0.00745722      -0.00166763       0.00770016 </v>
   <v>      -0.00688520      -0.00021487      -0.01053644 </v>
   <v>      -0.00287854      -0.00046125      -0.00408580 </v>
   <v>       0.00209110       0.00169502      -0.01123690 </v>
  </varray>
  <varray name="stress" >
   <v>      -2.72559533       0.03227587      -0.08393511 </v>
   <v>       0.03227584      -2.91757963       0.28006492 </v>
   <v>      -0.08393510       0.28006495      -2.94798219 </v>
  </varray>
  <energy>
   <i name="e_fr_energy">   -152.05725875 </i>
   <i name="e_wo_entrp">   -152.05310843 </i>
   <i name="e_0_energy">     -0.01245096 </i>
  </energy>
