       N       E                     dE             d eps       ncg     rms          rms(c)
DAV:   1     0.180284182411E+04    0.18028E+04   -0.10882E+05  5448   0.104E+03
DAV:   2    -0.105123352828E+03   -0.19080E+04   -0.18403E+04  5680   0.384E+02
DAV:   3    -0.348146097654E+03   -0.24302E+03   -0.23040E+03  8312   0.944E+01
DAV:   4    -0.376226084360E+03   -0.28080E+02   -0.26726E+02  8312   0.297E+01
DAV:   5    -0.379086268810E+03   -0.28602E+01   -0.28016E+01  7960   0.984E+00    0.645E+01
RMM:   6    -0.368610267792E+03    0.10476E+02   -0.22293E+01  6778   0.982E+00    0.309E+01
RMM:   7    -0.368037300853E+03    0.57297E+00   -0.22395E+01  7255   0.862E+00    0.934E+00
RMM:   8    -0.364525469216E+03    0.35118E+01   -0.47526E+00  7622   0.347E+00    0.417E+00
RMM:   9    -0.364391919922E+03    0.13355E+00   -0.18438E+00  7530   0.188E+00    0.281E+00
RMM:  10    -0.364331450386E+03    0.60470E-01   -0.38612E-01  7547   0.110E+00    0.142E+00
RMM:  11    -0.364299960715E+03    0.31490E-01   -0.12827E-01  7486   0.583E-01    0.680E-01
RMM:  12    -0.364298516391E+03    0.14443E-02   -0.46793E-02  7603   0.336E-01    0.432E-01
RMM:  13    -0.364296392424E+03    0.21240E-02   -0.14349E-02  7621   0.173E-01    0.241E-01
RMM:  14    -0.364296520880E+03   -0.12846E-03   -0.63579E-03  7790   0.993E-02    0.144E-01
RMM:  15    -0.364296579448E+03   -0.58568E-04   -0.27895E-03  7648   0.613E-02    0.656E-02
RMM:  16    -0.364296613707E+03   -0.34259E-04   -0.11941E-03  6972   0.382E-02    0.340E-02
RMM:  17    -0.364296623951E+03   -0.10245E-04   -0.49445E-04  6240   0.249E-02    0.178E-02
RMM:  18    -0.364296631699E+03   -0.77477E-05   -0.20948E-04  5282   0.170E-02    0.976E-03
RMM:  19    -0.364296636552E+03   -0.48533E-05   -0.94208E-05  4247   0.123E-02
   1 F= -.36429664E+03 E0= -.36430770E+03  d E =-.364297E+03
       N       E                     dE             d eps       ncg     rms          rms(c)
DAV:   1    -0.364360690091E+03   -0.64058E-01   -0.24121E+00  6336   0.509E+00    0.169E+00
RMM:   2    -0.364352172948E+03    0.85171E-02   -0.27413E-01  7481   0.135E+00    0.703E-01
RMM:   3    -0.364334922327E+03    0.17251E-01   -0.52761E-02  7701   0.412E-01    0.462E-01
RMM:   4    -0.364329799687E+03    0.51226E-02   -0.15027E-02  7668   0.245E-01    0.246E-01
RMM:   5    -0.364328710346E+03    0.10893E-02   -0.39126E-03  7587   0.139E-01    0.172E-01
RMM:   6    -0.364328704661E+03    0.56848E-05   -0.16954E-03  7707   0.672E-02    0.127E-01
RMM:   7    -0.364328709498E+03   -0.48364E-05   -0.68052E-04  7226   0.478E-02    0.693E-02
RMM:   8    -0.364328719724E+03   -0.10226E-04   -0.45566E-04  6804   0.321E-02    0.415E-02
RMM:   9    -0.364328741719E+03   -0.21996E-04   -0.18572E-04  5855   0.232E-02    0.305E-02
RMM:  10    -0.364328753635E+03   -0.11915E-04   -0.10262E-04  5148   0.171E-02    0.173E-02
RMM:  11    -0.364328750974E+03    0.26606E-05   -0.50920E-05  4230   0.144E-02
   2 F= -.36432875E+03 E0= -.36434010E+03  d E =-.321144E-01
       N       E                     dE             d eps       ncg     rms          rms(c)
DAV:   1    -0.364498623664E+03   -0.16987E+00   -0.11007E+01  6016   0.109E+01    0.356E+00
RMM:   2    -0.364461014678E+03    0.37609E-01   -0.12384E+00  7493   0.287E+00    0.152E+00
RMM:   3    -0.364377948885E+03    0.83066E-01   -0.23821E-01  7703   0.871E-01    0.980E-01
RMM:   4    -0.364355431399E+03    0.22517E-01   -0.69979E-02  7676   0.521E-01    0.530E-01
RMM:   5    -0.364350270369E+03    0.51610E-02   -0.17791E-02  7598   0.300E-01    0.367E-01
RMM:   6    -0.364350301843E+03   -0.31474E-04   -0.79627E-03  7786   0.144E-01    0.273E-01
RMM:   7    -0.364350437772E+03   -0.13593E-03   -0.31441E-03  8026   0.103E-01    0.149E-01
RMM:   8    -0.364350551918E+03   -0.11415E-03   -0.21676E-03  8054   0.657E-02    0.921E-02
RMM:   9    -0.364350682770E+03   -0.13085E-03   -0.74930E-04  7093   0.445E-02    0.656E-02
RMM:  10    -0.364350788538E+03   -0.10577E-03   -0.47942E-04  6981   0.324E-02    0.394E-02
RMM:  11    -0.364350802138E+03   -0.13600E-04   -0.22825E-04  5820   0.246E-02    0.204E-02
RMM:  12    -0.364350799370E+03    0.27682E-05   -0.96195E-05  5128   0.173E-02
   3 F= -.36435080E+03 E0= -.36436263E+03  d E =-.541628E-01
       N       E                     dE             d eps       ncg     rms          rms(c)
DAV:   1    -0.364370950113E+03   -0.20148E-01   -0.24850E+00  5248   0.422E+00    0.636E-01
RMM:   2    -0.364377313494E+03   -0.63634E-02   -0.11565E-01  7080   0.866E-01    0.308E-01
RMM:   3    -0.364374232566E+03    0.30809E-02   -0.12879E-02  7347   0.259E-01    0.215E-01
RMM:   4    -0.364373662278E+03    0.57029E-03   -0.34521E-03  7732   0.980E-02    0.127E-01
RMM:   5    -0.364373524131E+03    0.13815E-03   -0.13044E-03  7713   0.649E-02    0.741E-02
RMM:   6    -0.364373537797E+03   -0.13666E-04   -0.52640E-04  7615   0.375E-02    0.465E-02
RMM:   7    -0.364373550042E+03   -0.12245E-04   -0.19958E-04  7033   0.243E-02    0.280E-02
RMM:   8    -0.364373563633E+03   -0.13591E-04   -0.68354E-05  5129   0.142E-02    0.175E-02
RMM:   9    -0.364373572626E+03   -0.89927E-05   -0.40656E-05  4020   0.124E-02
   4 F= -.36437357E+03 E0= -.36438535E+03  d E =-.227733E-01
       N       E                     dE             d eps       ncg     rms          rms(c)
DAV:   1    -0.364383960748E+03   -0.10397E-01   -0.14324E+01  5040   0.101E+01    0.154E+00
RMM:   2    -0.364421778690E+03   -0.37818E-01   -0.67500E-01  7156   0.213E+00    0.751E-01
RMM:   3    -0.364403084587E+03    0.18694E-01   -0.73850E-02  7405   0.617E-01    0.508E-01
RMM:   4    -0.364399914012E+03    0.31706E-02   -0.20302E-02  7761   0.237E-01    0.298E-01
RMM:   5    -0.364399166666E+03    0.74735E-03   -0.73618E-03  7797   0.157E-01    0.176E-01
RMM:   6    -0.364399256613E+03   -0.89947E-04   -0.30981E-03  8008   0.885E-02    0.116E-01
RMM:   7    -0.364399304662E+03   -0.48048E-04   -0.11473E-03  7881   0.586E-02    0.705E-02
RMM:   8    -0.364399367078E+03   -0.62416E-04   -0.49337E-04  7130   0.318E-02    0.471E-02
RMM:   9    -0.364399405813E+03   -0.38736E-04   -0.22993E-04  6704   0.257E-02    0.273E-02
RMM:  10    -0.364399427148E+03   -0.21335E-04   -0.89292E-05  5442   0.170E-02    0.161E-02
RMM:  11    -0.364399435091E+03   -0.79429E-05   -0.44559E-05  4327   0.135E-02
   5 F= -.36439944E+03 E0= -.36441081E+03  d E =-.486357E-01
       N       E                     dE             d eps       ncg     rms          rms(c)
DAV:   1    -0.364399493939E+03   -0.66791E-04   -0.21886E-01  5328   0.126E+00    0.187E-01
RMM:   2    -0.364400072632E+03   -0.57869E-03   -0.10166E-02  7051   0.255E-01    0.903E-02
RMM:   3    -0.364399811490E+03    0.26114E-03   -0.11584E-03  7336   0.774E-02    0.627E-02
RMM:   4    -0.364399768035E+03    0.43454E-04   -0.31531E-04  7408   0.292E-02    0.365E-02
RMM:   5    -0.364399762157E+03    0.58784E-05   -0.12450E-04  6665   0.198E-02    0.214E-02
RMM:   6    -0.364399766905E+03   -0.47478E-05   -0.41754E-05  3916   0.122E-02
   6 F= -.36439977E+03 E0= -.36441106E+03  d E =-.489675E-01
       N       E                     dE             d eps       ncg     rms          rms(c)
DAV:   1    -0.364411212059E+03   -0.11450E-01   -0.54755E-01  5736   0.244E+00    0.791E-01
RMM:   2    -0.364409164944E+03    0.20471E-02   -0.60167E-02  7461   0.656E-01    0.309E-01
RMM:   3    -0.364406097543E+03    0.30674E-02   -0.11021E-02  7710   0.196E-01    0.213E-01
RMM:   4    -0.364404925765E+03    0.11718E-02   -0.29541E-03  7634   0.112E-01    0.108E-01
RMM:   5    -0.364404783586E+03    0.14218E-03   -0.85379E-04  7484   0.631E-02    0.784E-02
RMM:   6    -0.364404813249E+03   -0.29663E-04   -0.36406E-04  7218   0.326E-02    0.561E-02
RMM:   7    -0.364404842333E+03   -0.29084E-04   -0.14417E-04  6235   0.240E-02    0.318E-02
RMM:   8    -0.364404865252E+03   -0.22919E-04   -0.10865E-04  5172   0.171E-02    0.206E-02
RMM:   9    -0.364404882150E+03   -0.16898E-04   -0.44690E-05  4073   0.138E-02    0.140E-02
RMM:  10    -0.364404896964E+03   -0.14814E-04   -0.19843E-05  3541   0.114E-02    0.558E-03
RMM:  11    -0.364404903056E+03   -0.60921E-05   -0.19211E-05  3429   0.114E-02
   7 F= -.36440490E+03 E0= -.36441613E+03  d E =-.513615E-02
       N       E                     dE             d eps       ncg     rms          rms(c)
DAV:   1    -0.364414722864E+03   -0.98259E-02   -0.67941E-01  5704   0.272E+00    0.886E-01
RMM:   2    -0.364412155721E+03    0.25671E-02   -0.75114E-02  7467   0.732E-01    0.346E-01
RMM:   3    -0.364408367554E+03    0.37882E-02   -0.13831E-02  7714   0.219E-01    0.238E-01
RMM:   4    -0.364406896361E+03    0.14712E-02   -0.37165E-03  7642   0.125E-01    0.120E-01
RMM:   5    -0.364406716433E+03    0.17993E-03   -0.10766E-03  7517   0.700E-02    0.869E-02
RMM:   6    -0.364406750221E+03   -0.33788E-04   -0.45731E-04  7468   0.362E-02    0.622E-02
RMM:   7    -0.364406783624E+03   -0.33403E-04   -0.18235E-04  6385   0.263E-02    0.351E-02
RMM:   8    -0.364406809661E+03   -0.26037E-04   -0.13214E-04  5930   0.186E-02    0.226E-02
RMM:   9    -0.364406828742E+03   -0.19081E-04   -0.49911E-05  4184   0.147E-02    0.160E-02
RMM:  10    -0.364406846358E+03   -0.17616E-04   -0.26892E-05  3740   0.123E-02    0.646E-03
RMM:  11    -0.364406853304E+03   -0.69460E-05   -0.19622E-05  3562   0.117E-02
   8 F= -.36440685E+03 E0= -.36441799E+03  d E =-.708640E-02
       N       E                     dE             d eps       ncg     rms          rms(c)
DAV:   1    -0.364410692220E+03   -0.38459E-02   -0.60767E-01  5040   0.228E+00    0.411E-01
RMM:   2    -0.364412161347E+03   -0.14691E-02   -0.38848E-02  6798   0.510E-01    0.181E-01
RMM:   3    -0.364411270951E+03    0.89040E-03   -0.46232E-03  7438   0.151E-01    0.134E-01
RMM:   4    -0.364410956063E+03    0.31489E-03   -0.12712E-03  7573   0.636E-02    0.768E-02
RMM:   5    -0.364410893828E+03    0.62235E-04   -0.49240E-04  7505   0.422E-02    0.514E-02
RMM:   6    -0.364410878772E+03    0.15056E-04   -0.20757E-04  6969   0.250E-02    0.317E-02
RMM:   7    -0.364410870120E+03    0.86516E-05   -0.79454E-05  5378   0.162E-02
   9 F= -.36441087E+03 E0= -.36442204E+03  d E =-.401682E-02
       N       E                     dE             d eps       ncg     rms          rms(c)
DAV:   1    -0.364412522399E+03   -0.16436E-02   -0.14422E+00  5040   0.351E+00    0.625E-01
RMM:   2    -0.364415977399E+03   -0.34550E-02   -0.91354E-02  6751   0.783E-01    0.274E-01
RMM:   3    -0.364413867673E+03    0.21097E-02   -0.10672E-02  7421   0.232E-01    0.202E-01
RMM:   4    -0.364413167182E+03    0.70049E-03   -0.29833E-03  7596   0.967E-02    0.116E-01
RMM:   5    -0.364413043511E+03    0.12367E-03   -0.11662E-03  7578   0.641E-02    0.783E-02
RMM:   6    -0.364413026287E+03    0.17224E-04   -0.50162E-04  7471   0.381E-02    0.499E-02
RMM:   7    -0.364413017157E+03    0.91301E-05   -0.20182E-04  6518   0.243E-02    0.306E-02
RMM:   8    -0.364413013662E+03    0.34955E-05   -0.86481E-05  5182   0.158E-02
  10 F= -.36441301E+03 E0= -.36442423E+03  d E =-.616036E-02
       N       E                     dE             d eps       ncg     rms          rms(c)
DAV:   1    -0.364414552768E+03   -0.15356E-02   -0.26675E-01  5008   0.145E+00    0.127E-01
RMM:   2    -0.364415418280E+03   -0.86551E-03   -0.99917E-03  6684   0.288E-01    0.755E-02
RMM:   3    -0.364415251733E+03    0.16655E-03   -0.12280E-03  7399   0.794E-02    0.575E-02
RMM:   4    -0.364415230989E+03    0.20745E-04   -0.27106E-04  6719   0.236E-02    0.380E-02
RMM:   5    -0.364415226292E+03    0.46969E-05   -0.95790E-05  6139   0.158E-02
  11 F= -.36441523E+03 E0= -.36442638E+03  d E =-.221263E-02
       N       E                     dE             d eps       ncg     rms          rms(c)
DAV:   1    -0.364413935723E+03    0.12953E-02   -0.23963E+00  4928   0.435E+00    0.366E-01
RMM:   2    -0.364421688369E+03   -0.77526E-02   -0.88726E-02  6355   0.859E-01    0.214E-01
RMM:   3    -0.364420195377E+03    0.14930E-02   -0.10750E-02  7444   0.241E-01    0.162E-01
RMM:   4    -0.364420046301E+03    0.14908E-03   -0.23047E-03  8131   0.680E-02    0.104E-01
RMM:   5    -0.364420029914E+03    0.16387E-04   -0.84357E-04  7547   0.495E-02    0.592E-02
RMM:   6    -0.364420019200E+03    0.10714E-04   -0.39404E-04  7468   0.353E-02    0.297E-02
RMM:   7    -0.364420011421E+03    0.77787E-05   -0.14297E-04  6320   0.174E-02    0.177E-02
RMM:   8    -0.364420015118E+03   -0.36968E-05   -0.41624E-05  3797   0.128E-02
  12 F= -.36442002E+03 E0= -.36443097E+03  d E =-.700146E-02
       N       E                     dE             d eps       ncg     rms          rms(c)
DAV:   1    -0.364397092644E+03    0.22919E-01   -0.95965E+00  4928   0.872E+00    0.725E-01
RMM:   2    -0.364428264135E+03   -0.31171E-01   -0.35717E-01  6322   0.172E+00    0.429E-01
RMM:   3    -0.364421903140E+03    0.63610E-02   -0.42237E-02  7440   0.480E-01    0.315E-01
RMM:   4    -0.364421303456E+03    0.59968E-03   -0.92056E-03  8149   0.137E-01    0.202E-01
RMM:   5    -0.364421211847E+03    0.91609E-04   -0.32721E-03  7553   0.996E-02    0.115E-01
RMM:   6    -0.364421188302E+03    0.23545E-04   -0.15632E-03  7919   0.684E-02    0.606E-02
RMM:   7    -0.364421149834E+03    0.38468E-04   -0.56578E-04  7592   0.337E-02    0.349E-02
RMM:   8    -0.364421163784E+03   -0.13950E-04   -0.18262E-04  5518   0.192E-02    0.232E-02
RMM:   9    -0.364421175193E+03   -0.11409E-04   -0.11004E-04  5359   0.165E-02    0.110E-02
RMM:  10    -0.364421178370E+03   -0.31770E-05   -0.26345E-05  3667   0.115E-02
  13 F= -.36442118E+03 E0= -.36443169E+03  d E =-.816471E-02
       N       E                     dE             d eps       ncg     rms          rms(c)
DAV:   1    -0.364417656753E+03    0.35184E-02   -0.17614E+00  4928   0.374E+00    0.322E-01
RMM:   2    -0.364423383643E+03   -0.57269E-02   -0.65194E-02  6162   0.737E-01    0.182E-01
RMM:   3    -0.364422294113E+03    0.10895E-02   -0.77263E-03  7432   0.211E-01    0.145E-01
RMM:   4    -0.364422148732E+03    0.14538E-03   -0.15244E-03  8022   0.562E-02    0.947E-02
RMM:   5    -0.364422122054E+03    0.26677E-04   -0.54857E-04  7370   0.411E-02    0.542E-02
RMM:   6    -0.364422096421E+03    0.25633E-04   -0.26868E-04  7193   0.312E-02    0.250E-02
RMM:   7    -0.364422085452E+03    0.10969E-04   -0.96877E-05  5983   0.146E-02    0.148E-02
RMM:   8    -0.364422083986E+03    0.14660E-05   -0.24239E-05  3305   0.107E-02
  14 F= -.36442208E+03 E0= -.36443279E+03  d E =-.907032E-02
       N       E                     dE             d eps       ncg     rms          rms(c)
DAV:   1    -0.364435055665E+03   -0.12970E-01   -0.13526E+00  5432   0.376E+00    0.113E+00
RMM:   2    -0.364431615753E+03    0.34399E-02   -0.12464E-01  7283   0.939E-01    0.447E-01
RMM:   3    -0.364425596347E+03    0.60194E-02   -0.24152E-02  7725   0.299E-01    0.312E-01
RMM:   4    -0.364423062511E+03    0.25338E-02   -0.66315E-03  7664   0.167E-01    0.154E-01
RMM:   5    -0.364422705401E+03    0.35711E-03   -0.19835E-03  7572   0.942E-02    0.111E-01
RMM:   6    -0.364422713224E+03   -0.78226E-05   -0.82928E-04  7780   0.473E-02    0.788E-02
RMM:   7    -0.364422708265E+03    0.49584E-05   -0.29306E-04  6701   0.335E-02    0.439E-02
RMM:   8    -0.364422714487E+03   -0.62218E-05   -0.20632E-04  6435   0.224E-02    0.288E-02
RMM:   9    -0.364422721227E+03   -0.67395E-05   -0.83089E-05  4501   0.175E-02
  15 F= -.36442272E+03 E0= -.36443344E+03  d E =-.637240E-03
       N       E                     dE             d eps       ncg     rms          rms(c)
DAV:   1    -0.364425175261E+03   -0.24608E-02   -0.22262E-01  5600   0.153E+00    0.464E-01
RMM:   2    -0.364424572770E+03    0.60249E-03   -0.21043E-02  7351   0.382E-01    0.185E-01
RMM:   3    -0.364423588880E+03    0.98389E-03   -0.41543E-03  7694   0.123E-01    0.132E-01
RMM:   4    -0.364423160865E+03    0.42801E-03   -0.11390E-03  7596   0.687E-02    0.650E-02
RMM:   5    -0.364423102177E+03    0.58688E-04   -0.33768E-04  7246   0.397E-02    0.451E-02
RMM:   6    -0.364423111329E+03   -0.91519E-05   -0.13848E-04  6294   0.208E-02    0.307E-02
RMM:   7    -0.364423120291E+03   -0.89620E-05   -0.43056E-05  3955   0.145E-02
  16 F= -.36442312E+03 E0= -.36443383E+03  d E =-.103630E-02
       N       E                     dE             d eps       ncg     rms          rms(c)
DAV:   1    -0.364423179270E+03   -0.67941E-04   -0.58058E-01  4928   0.218E+00    0.203E-01
RMM:   2    -0.364424827453E+03   -0.16482E-02   -0.22170E-02  6851   0.432E-01    0.967E-02
RMM:   3    -0.364424691198E+03    0.13625E-03   -0.23483E-03  7389   0.111E-01    0.790E-02
RMM:   4    -0.364424636523E+03    0.54675E-04   -0.52090E-04  7614   0.366E-02    0.516E-02
RMM:   5    -0.364424635682E+03    0.84172E-06   -0.21040E-04  7142   0.263E-02    0.289E-02
RMM:   6    -0.364424637091E+03   -0.14099E-05   -0.94815E-05  6602   0.182E-02
  17 F= -.36442464E+03 E0= -.36443522E+03  d E =-.151680E-02
       N       E                     dE             d eps       ncg     rms          rms(c)
DAV:   1    -0.364421973034E+03    0.26626E-02   -0.13826E+00  4928   0.336E+00    0.316E-01
RMM:   2    -0.364425917370E+03   -0.39443E-02   -0.53314E-02  7111   0.668E-01    0.159E-01
RMM:   3    -0.364425639500E+03    0.27787E-03   -0.59703E-03  7451   0.168E-01    0.126E-01
RMM:   4    -0.364425509894E+03    0.12961E-03   -0.13500E-03  8042   0.588E-02    0.827E-02
RMM:   5    -0.364425498278E+03    0.11616E-04   -0.55208E-04  7615   0.418E-02    0.447E-02
RMM:   6    -0.364425492082E+03    0.61954E-05   -0.24508E-04  7318   0.281E-02    0.226E-02
RMM:   7    -0.364425496052E+03   -0.39699E-05   -0.66835E-05  4662   0.142E-02
  18 F= -.36442550E+03 E0= -.36443587E+03  d E =-.237576E-02
       N       E                     dE             d eps       ncg     rms          rms(c)
DAV:   1    -0.364425843605E+03   -0.35152E-03   -0.31491E-01  4960   0.158E+00    0.170E-01
RMM:   2    -0.364426695893E+03   -0.85229E-03   -0.12337E-02  7224   0.314E-01    0.874E-02
RMM:   3    -0.364426556012E+03    0.13988E-03   -0.14607E-03  7423   0.797E-02    0.645E-02
RMM:   4    -0.364426509760E+03    0.46251E-04   -0.32716E-04  7261   0.296E-02    0.395E-02
RMM:   5    -0.364426510899E+03   -0.11383E-05   -0.14986E-04  6850   0.217E-02    0.227E-02
RMM:   6    -0.364426510374E+03    0.52450E-06   -0.58362E-05  4810   0.138E-02
  19 F= -.36442651E+03 E0= -.36443687E+03  d E =-.101432E-02
       N       E                     dE             d eps       ncg     rms          rms(c)
DAV:   1    -0.364424850464E+03    0.16604E-02   -0.11887E+00  4928   0.307E+00    0.335E-01
RMM:   2    -0.364428053785E+03   -0.32033E-02   -0.46500E-02  7291   0.610E-01    0.172E-01
RMM:   3    -0.364427503102E+03    0.55068E-03   -0.54898E-03  7476   0.154E-01    0.127E-01
RMM:   4    -0.364427307350E+03    0.19575E-03   -0.12261E-03  7733   0.584E-02    0.774E-02
RMM:   5    -0.364427299308E+03    0.80419E-05   -0.57065E-04  7604   0.424E-02    0.448E-02
RMM:   6    -0.364427288354E+03    0.10954E-04   -0.22418E-04  7227   0.260E-02    0.252E-02
RMM:   7    -0.364427291308E+03   -0.29536E-05   -0.71413E-05  4690   0.143E-02
  20 F= -.36442729E+03 E0= -.36443761E+03  d E =-.179526E-02
       N       E                     dE             d eps       ncg     rms          rms(c)
DAV:   1    -0.364431430653E+03   -0.41423E-02   -0.43724E-01  5616   0.214E+00    0.643E-01
RMM:   2    -0.364430211633E+03    0.12190E-02   -0.39678E-02  7275   0.528E-01    0.251E-01
RMM:   3    -0.364428509427E+03    0.17022E-02   -0.80418E-03  7667   0.173E-01    0.182E-01
RMM:   4    -0.364427662097E+03    0.84733E-03   -0.22948E-03  7644   0.977E-02    0.881E-02
RMM:   5    -0.364427538041E+03    0.12406E-03   -0.71012E-04  7484   0.572E-02    0.634E-02
RMM:   6    -0.364427535112E+03    0.29286E-05   -0.29251E-04  6967   0.283E-02    0.433E-02
RMM:   7    -0.364427525502E+03    0.96100E-05   -0.98684E-05  5978   0.202E-02
  21 F= -.36442753E+03 E0= -.36443796E+03  d E =-.234194E-03
       N       E                     dE             d eps       ncg     rms          rms(c)
DAV:   1    -0.364428169677E+03   -0.63456E-03   -0.57687E-02  5624   0.775E-01    0.240E-01
RMM:   2    -0.364428002397E+03    0.16728E-03   -0.54038E-03  7334   0.191E-01    0.960E-02
RMM:   3    -0.364427773409E+03    0.22899E-03   -0.11364E-03  7616   0.640E-02    0.705E-02
RMM:   4    -0.364427652439E+03    0.12097E-03   -0.30704E-04  7306   0.356E-02    0.337E-02
RMM:   5    -0.364427632598E+03    0.19840E-04   -0.89908E-05  5856   0.222E-02    0.218E-02
RMM:   6    -0.364427634240E+03   -0.16413E-05   -0.26957E-05  3026   0.116E-02
  22 F= -.36442763E+03 E0= -.36443803E+03  d E =-.342932E-03
       N       E                     dE             d eps       ncg     rms          rms(c)
DAV:   1    -0.364427739209E+03   -0.10661E-03   -0.49127E-02  5136   0.625E-01    0.477E-02
RMM:   2    -0.364427859344E+03   -0.12013E-03   -0.16140E-03  6587   0.122E-01    0.241E-02
RMM:   3    -0.364427856460E+03    0.28831E-05   -0.18444E-04  6378   0.335E-02    0.186E-02
RMM:   4    -0.364427855201E+03    0.12592E-05   -0.47909E-05  4205   0.123E-02
  23 F= -.36442786E+03 E0= -.36443826E+03  d E =-.220962E-03
       N       E                     dE             d eps       ncg     rms          rms(c)
DAV:   1    -0.364427404575E+03    0.45189E-03   -0.31956E-01  4944   0.159E+00    0.123E-01
RMM:   2    -0.364428191840E+03   -0.78726E-03   -0.10646E-02  6910   0.313E-01    0.673E-02
RMM:   3    -0.364428189394E+03    0.24454E-05   -0.14652E-03  7416   0.826E-02    0.545E-02
RMM:   4    -0.364428154709E+03    0.34685E-04   -0.32391E-04  7323   0.283E-02    0.318E-02
RMM:   5    -0.364428154934E+03   -0.22513E-06   -0.13046E-04  6337   0.188E-02    0.170E-02
RMM:   6    -0.364428153283E+03    0.16514E-05   -0.47522E-05  4351   0.131E-02
  24 F= -.36442815E+03 E0= -.36443859E+03  d E =-.519043E-03
       N       E                     dE             d eps       ncg     rms          rms(c)
DAV:   1    -0.364428118318E+03    0.36617E-04   -0.19683E-02  5152   0.396E-01    0.309E-02
RMM:   2    -0.364428171748E+03   -0.53430E-04   -0.70350E-04  7060   0.789E-02    0.176E-02
RMM:   3    -0.364428170236E+03    0.15124E-05   -0.84948E-05  4793   0.216E-02
  25 F= -.36442817E+03 E0= -.36443862E+03  d E =-.535996E-03
       N       E                     dE             d eps       ncg     rms          rms(c)
DAV:   1    -0.364428735646E+03   -0.56390E-03   -0.60545E-02  5552   0.770E-01    0.226E-01
RMM:   2    -0.364428584320E+03    0.15133E-03   -0.50329E-03  7390   0.184E-01    0.933E-02
RMM:   3    -0.364428330964E+03    0.25336E-03   -0.10583E-03  7613   0.620E-02    0.642E-02
RMM:   4    -0.364428233405E+03    0.97558E-04   -0.29778E-04  7313   0.343E-02    0.313E-02
RMM:   5    -0.364428225174E+03    0.82311E-05   -0.92449E-05  6100   0.217E-02
  26 F= -.36442823E+03 E0= -.36443863E+03  d E =-.549385E-04
