 vasp.5.4.1 05Feb16 (build Jan 29 2020 16:04:39) complex                        
  
 executed on           IFC91_ompi date 2020.06.15  11:20:53
 running on  160 total cores
 distrk:  each k-point on   20 cores,    8 groups
 distr:  one band on NCORES_PER_BAND=   5 cores,    4 groups


--------------------------------------------------------------------------------------------------------


 INCAR:
 POTCAR:    PAW_PBE Nb_sv 25May2007               
 POTCAR:    PAW_PBE Ta 17Jan2003                  
 POTCAR:    PAW_PBE Zr_sv 04Jan2005               
 POTCAR:    PAW_PBE Hf 20Jan2003                  

 ----------------------------------------------------------------------------- 
|                                                                             |
|           W    W    AA    RRRRR   N    N  II  N    N   GGGG   !!!           |
|           W    W   A  A   R    R  NN   N  II  NN   N  G    G  !!!           |
|           W    W  A    A  R    R  N N  N  II  N N  N  G       !!!           |
|           W WW W  AAAAAA  RRRRR   N  N N  II  N  N N  G  GGG   !            |
|           WW  WW  A    A  R   R   N   NN  II  N   NN  G    G                |
|           W    W  A    A  R    R  N    N  II  N    N   GGGG   !!!           |
|                                                                             |
|      For optimal performance we recommend to set                            |
|        NCORE= 4 - approx SQRT( number of cores)                             |
|      NCORE specifies how many cores store one orbital (NPAR=cpu/NCORE).     |
|      This setting can  greatly improve the performance of VASP for DFT.     |
|      The default, NPAR=number of cores might be grossly inefficient         |
|      on modern multi-core architectures or massively parallel machines.     |
|      Do your own testing !!!!                                               |
|      Unfortunately you need to use the default for GW and RPA calculations. |
|      (for HF NCORE is supported but not extensively tested yet)             |
|                                                                             |
 ----------------------------------------------------------------------------- 


 ----------------------------------------------------------------------------- 
|                                                                             |
|           W    W    AA    RRRRR   N    N  II  N    N   GGGG   !!!           |
|           W    W   A  A   R    R  NN   N  II  NN   N  G    G  !!!           |
|           W    W  A    A  R    R  N N  N  II  N N  N  G       !!!           |
|           W WW W  AAAAAA  RRRRR   N  N N  II  N  N N  G  GGG   !            |
|           WW  WW  A    A  R   R   N   NN  II  N   NN  G    G                |
|           W    W  A    A  R    R  N    N  II  N    N   GGGG   !!!           |
|                                                                             |
|      You have enabled k-point parallelism (KPAR>1).                         |
|      This developmental code was originally  written by Paul Kent at ORNL,  |
|      and carefully double checked in Vienna.                                |
|      GW as well as linear response parallelism added by Martijn Marsman     |
|      and Georg Kresse.                                                      |
|      Carefully verify results versus KPAR=1.                                |
|      Report problems to Paul Kent and Vienna.                               |
|                                                                             |
 ----------------------------------------------------------------------------- 

 POTCAR:    PAW_PBE Nb_sv 25May2007               
   VRHFIN =Nb: 4p5s4d                                                           
   LEXCH  = PE                                                                  
   EATOM  =  1555.1913 eV,  114.3033 Ry                                         
                                                                                
   TITEL  = PAW_PBE Nb_sv 25May2007                                             
   LULTRA =        F    use ultrasoft PP ?                                      
   IUNSCR =        1    unscreen: 0-lin 1-nonlin 2-no                           
   RPACOR =    1.800    partial core radius                                     
   POMASS =   92.910; ZVAL   =   13.000    mass and valenz                      
   RCORE  =    2.400    outmost cutoff radius                                   
   RWIGS  =    2.400; RWIGS  =    1.270    wigner-seitz radius (au A)           
   ENMAX  =  293.235; ENMIN  =  219.927 eV                                      
   ICORE  =        3    local potential                                         
   LCOR   =        T    correct aug charges                                     
   LPAW   =        T    paw PP                                                  
   EAUG   =  455.659                                                            
   DEXC   =    0.000                                                            
   RMAX   =    2.456    core radius for proj-oper                               
   RAUG   =    1.300    factor for augmentation sphere                          
   RDEP   =    2.451    radius for radial grids                                 
   RDEPT  =    1.956    core radius for aug-charge                              
                                                                                
   Atomic configuration                                                         
   11 entries                                                                   
     n  l   j            E        occ.                                          
     1  0  0.50    -18805.2457   2.0000                                         
     2  0  0.50     -2630.2869   2.0000                                         
     2  1  1.50     -2348.4046   6.0000                                         
     3  0  0.50      -438.8757   2.0000                                         
     3  1  1.50      -346.7588   6.0000                                         
     3  2  2.50      -196.2560  10.0000                                         
     4  0  0.50       -58.3859   2.0000                                         
     5  0  0.50        -3.9816   1.0000                                         
     4  1  1.50       -34.5141   6.0000                                         
     4  2  2.50        -3.0408   4.0000                                         
     4  3  2.50        -1.3606   0.0000                                         
   Description                                                                  
     l       E           TYP  RCUT    TYP  RCUT                                 
     0    -58.3859094     23  2.200                                             
     0     -3.9816262     23  2.200                                             
     1    -34.5140738     23  2.200                                             
     1     13.6058260     23  2.200                                             
     2     -3.0408010     23  2.200                                             
     2     -0.1283038     23  2.200                                             
     3     -1.3605826     23  2.400                                             
  local pseudopotential read in
  partial core-charges read in
  partial kinetic energy density read in
  atomic valenz-charges read in
  non local Contribution for L=           0  read in
    real space projection operators read in
  non local Contribution for L=           0  read in
    real space projection operators read in
  non local Contribution for L=           1  read in
    real space projection operators read in
  non local Contribution for L=           1  read in
    real space projection operators read in
  non local Contribution for L=           2  read in
    real space projection operators read in
  non local Contribution for L=           2  read in
    real space projection operators read in
    PAW grid and wavefunctions read in
 
   number of l-projection  operators is LMAX  =           6
   number of lm-projection operators is LMMAX =          18
 
 POTCAR:    PAW_PBE Ta 17Jan2003                  
   VRHFIN =Ta:  6s5d                                                            
   LEXCH  = PE                                                                  
   EATOM  =   130.6506 eV,    9.6025 Ry                                         
                                                                                
   TITEL  = PAW_PBE Ta 17Jan2003                                                
   LULTRA =        F    use ultrasoft PP ?                                      
   IUNSCR =        1    unscreen: 0-lin 1-nonlin 2-no                           
   RPACOR =    2.330    partial core radius                                     
   POMASS =  180.948; ZVAL   =    5.000    mass and valenz                      
   RCORE  =    2.900    outmost cutoff radius                                   
   RWIGS  =    2.840; RWIGS  =    1.503    wigner-seitz radius (au A)           
   ENMAX  =  223.667; ENMIN  =  167.750 eV                                      
   RCLOC  =    2.205    cutoff for local pot                                    
   LCOR   =        T    correct aug charges                                     
   LPAW   =        T    paw PP                                                  
   EAUG   =  332.075                                                            
   DEXC   =    0.000                                                            
   RMAX   =    2.970    core radius for proj-oper                               
   RAUG   =    1.300    factor for augmentation sphere                          
   RDEP   =    3.060    radius for radial grids                                 
   RDEPT  =    2.354    core radius for aug-charge                              
                                                                                
   Atomic configuration                                                         
   16 entries                                                                   
     n  l   j            E        occ.                                          
     1  0  0.50    -67341.2807   2.0000                                         
     2  0  0.50    -11566.9376   2.0000                                         
     2  1  1.50    -10134.1182   6.0000                                         
     3  0  0.50     -2648.5620   2.0000                                         
     3  1  1.50     -2222.6012   6.0000                                         
     3  2  2.50     -1726.3120  10.0000                                         
     4  0  0.50      -538.6961   2.0000                                         
     4  1  1.50      -399.0129   6.0000                                         
     4  2  2.50      -220.3959  10.0000                                         
     4  3  3.50       -23.0374  14.0000                                         
     5  0  0.50       -71.2901   2.0000                                         
     5  1  1.50       -37.8225   6.0000                                         
     5  2  2.50        -2.6455   4.0000                                         
     6  0  0.50        -4.9623   1.0000                                         
     6  1  1.50        -1.3606   0.0000                                         
     5  3  2.50        -1.3606   0.0000                                         
   Description                                                                  
     l       E           TYP  RCUT    TYP  RCUT                                 
     2     -2.6455043     23  2.500                                             
     2     -0.6258895     23  2.500                                             
     0     -4.9622780     23  2.500                                             
     0      4.7531321     23  2.500                                             
     1     -1.3605826     23  2.900                                             
     1     27.2116520     23  2.900                                             
  local pseudopotential read in
  partial core-charges read in
  partial kinetic energy density read in
  atomic valenz-charges read in
  non local Contribution for L=           2  read in
    real space projection operators read in
  non local Contribution for L=           2  read in
    real space projection operators read in
  non local Contribution for L=           0  read in
    real space projection operators read in
  non local Contribution for L=           0  read in
    real space projection operators read in
  non local Contribution for L=           1  read in
    real space projection operators read in
  non local Contribution for L=           1  read in
    real space projection operators read in
    PAW grid and wavefunctions read in
 
   number of l-projection  operators is LMAX  =           6
   number of lm-projection operators is LMMAX =          18
 
 POTCAR:    PAW_PBE Zr_sv 04Jan2005               
   VRHFIN =Zr: 4s4p5s4d                                                         
   LEXCH  = PE                                                                  
   EATOM  =  1284.2219 eV,   94.3876 Ry                                         
                                                                                
   TITEL  = PAW_PBE Zr_sv 04Jan2005                                             
   LULTRA =        F    use ultrasoft PP ?                                      
   IUNSCR =        1    unscreen: 0-lin 1-nonlin 2-no                           
   RPACOR =    2.200    partial core radius                                     
   POMASS =   91.224; ZVAL   =   12.000    mass and valenz                      
   RCORE  =    2.500    outmost cutoff radius                                   
   RWIGS  =    3.070; RWIGS  =    1.625    wigner-seitz radius (au A)           
   ENMAX  =  229.898; ENMIN  =  172.424 eV                                      
   ICORE  =        3    local potential                                         
   LCOR   =        T    correct aug charges                                     
   LPAW   =        T    paw PP                                                  
   EAUG   =  461.257                                                            
   DEXC   =    0.000                                                            
   RMAX   =    2.561    core radius for proj-oper                               
   RAUG   =    1.300    factor for augmentation sphere                          
   RDEP   =    2.597    radius for radial grids                                 
   RDEPT  =    2.007    core radius for aug-charge                              
                                                                                
   Atomic configuration                                                         
   11 entries                                                                   
     n  l   j            E        occ.                                          
     1  0  0.50    -17820.0161   2.0000                                         
     2  0  0.50     -2467.0882   2.0000                                         
     2  1  1.50     -2199.6095   6.0000                                         
     3  0  0.50      -402.4863   2.0000                                         
     3  1  1.50      -315.3675   6.0000                                         
     3  2  2.50      -172.4472  10.0000                                         
     4  0  0.50       -52.4146   2.0000                                         
     5  0  0.50        -3.8421   1.0000                                         
     4  1  1.50       -30.5054   6.0000                                         
     4  2  2.50        -2.3341   3.0000                                         
     4  3  2.50        -1.3606   0.0000                                         
   Description                                                                  
     l       E           TYP  RCUT    TYP  RCUT                                 
     0    -52.4145962     23  2.200                                             
     0     -3.8421270     23  2.500                                             
     1    -30.5053914     23  2.200                                             
     1     20.4087390     23  2.200                                             
     2     -2.3340816     23  2.500                                             
     2     -0.6120942     23  2.500                                             
     3     -4.0817478     23  2.500                                             
  local pseudopotential read in
  partial core-charges read in
  partial kinetic energy density read in
  atomic valenz-charges read in
  non local Contribution for L=           0  read in
    real space projection operators read in
  non local Contribution for L=           0  read in
    real space projection operators read in
  non local Contribution for L=           1  read in
    real space projection operators read in
  non local Contribution for L=           1  read in
    real space projection operators read in
  non local Contribution for L=           2  read in
    real space projection operators read in
  non local Contribution for L=           2  read in
    real space projection operators read in
    PAW grid and wavefunctions read in
 
   number of l-projection  operators is LMAX  =           6
   number of lm-projection operators is LMMAX =          18
 
 POTCAR:    PAW_PBE Hf 20Jan2003                  
   VRHFIN =Hf: 6s5d                                                             
   LEXCH  = PE                                                                  
   EATOM  =    75.9011 eV,    5.5786 Ry                                         
                                                                                
   TITEL  = PAW_PBE Hf 20Jan2003                                                
   LULTRA =        F    use ultrasoft PP ?                                      
   IUNSCR =        1    unscreen: 0-lin 1-nonlin 2-no                           
   RPACOR =    2.500    partial core radius                                     
   POMASS =  178.490; ZVAL   =    4.000    mass and valenz                      
   RCORE  =    3.000    outmost cutoff radius                                   
   RWIGS  =    3.050; RWIGS  =    1.614    wigner-seitz radius (au A)           
   ENMAX  =  220.334; ENMIN  =  165.250 eV                                      
   RCLOC  =    2.212    cutoff for local pot                                    
   LCOR   =        T    correct aug charges                                     
   LPAW   =        T    paw PP                                                  
   EAUG   =  335.116                                                            
   DEXC   =    0.000                                                            
   RMAX   =    3.077    core radius for proj-oper                               
   RAUG   =    1.300    factor for augmentation sphere                          
   RDEP   =    3.047    radius for radial grids                                 
   RDEPT  =    2.344    core radius for aug-charge                              
                                                                                
   Atomic configuration                                                         
   16 entries                                                                   
     n  l   j            E        occ.                                          
     1  0  0.50    -65259.4397   2.0000                                         
     2  0  0.50    -11157.9882   2.0000                                         
     2  1  1.50     -9795.2113   6.0000                                         
     3  0  0.50     -2541.4058   2.0000                                         
     3  1  1.50     -2134.4770   6.0000                                         
     3  2  2.50     -1653.5418  10.0000                                         
     4  0  0.50      -510.9575   2.0000                                         
     4  1  1.50      -377.5023   6.0000                                         
     4  2  2.50      -205.2085  10.0000                                         
     4  3  3.50       -15.4905  14.0000                                         
     5  0  0.50       -65.6020   2.0000                                         
     5  1  1.50       -34.2798   6.0000                                         
     5  2  2.50        -1.9877   3.0000                                         
     6  0  0.50        -4.7357   1.0000                                         
     6  1  1.50        -1.3606   0.0000                                         
     5  3  2.50        -1.3606   0.0000                                         
   Description                                                                  
     l       E           TYP  RCUT    TYP  RCUT                                 
     2     -1.9876627     23  2.500                                             
     2      0.0744703     23  2.500                                             
     0     -4.7356889     23  2.600                                             
     0      3.2364747     23  2.600                                             
     1     -1.3605826     23  3.000                                             
     1     27.2116520     23  3.000                                             
  local pseudopotential read in
  partial core-charges read in
  partial kinetic energy density read in
  atomic valenz-charges read in
  non local Contribution for L=           2  read in
    real space projection operators read in
  non local Contribution for L=           2  read in
    real space projection operators read in
  non local Contribution for L=           0  read in
    real space projection operators read in
  non local Contribution for L=           0  read in
    real space projection operators read in
  non local Contribution for L=           1  read in
    real space projection operators read in
  non local Contribution for L=           1  read in
    real space projection operators read in
    PAW grid and wavefunctions read in
 
   number of l-projection  operators is LMAX  =           6
   number of lm-projection operators is LMMAX =          18
 
 Optimization of the real space projectors (new method)

 maximal supplied QI-value         = 15.68
 optimisation between [QCUT,QGAM] = [  8.78, 17.72] = [ 21.60, 87.97] Ry 
 Optimized for a Real-space Cutoff    1.96 Angstroem

   l    n(q)    QCUT    max X(q) W(low)/X(q) W(high)/X(q)  e(spline) 
   0     10     8.783    10.201    0.29E-04    0.25E-05    0.69E-07
   0     10     8.783     8.174    0.45E-04    0.57E-05    0.14E-06
   1     10     8.783     3.488    0.76E-05    0.24E-04    0.95E-07
   1     10     8.783     4.917    0.78E-04    0.14E-03    0.46E-06
   2      9     8.783   153.744    0.22E-03    0.34E-04    0.15E-05
   2      9     8.783   126.342    0.22E-03    0.35E-04    0.15E-05
 Optimization of the real space projectors (new method)

 maximal supplied QI-value         = 12.85
 optimisation between [QCUT,QGAM] = [  8.87, 17.73] = [ 22.01, 88.06] Ry 
 Optimized for a Real-space Cutoff    1.90 Angstroem

   l    n(q)    QCUT    max X(q) W(low)/X(q) W(high)/X(q)  e(spline) 
   2      9     8.867    62.315    0.23E-03    0.62E-04    0.11E-05
   2      9     8.867    52.185    0.23E-03    0.62E-04    0.11E-05
   0     10     8.867   103.837    0.15E-04    0.23E-04    0.98E-07
   0     10     8.867    59.728    0.12E-04    0.21E-04    0.89E-07
   1     10     8.867    13.958    0.50E-04    0.22E-04    0.14E-06
   1     10     8.867     8.441    0.36E-04    0.19E-04    0.98E-07
 Optimization of the real space projectors (new method)

 maximal supplied QI-value         = 15.12
 optimisation between [QCUT,QGAM] = [  8.77, 17.69] = [ 21.53, 87.61] Ry 
 Optimized for a Real-space Cutoff    1.74 Angstroem

   l    n(q)    QCUT    max X(q) W(low)/X(q) W(high)/X(q)  e(spline) 
   0      9     8.768    12.107    0.28E-04    0.53E-06    0.29E-07
   0      9     8.768     9.948    0.36E-04    0.50E-05    0.64E-07
   1      9     8.768     3.563    0.14E-04    0.16E-04    0.88E-07
   1      9     8.768     4.524    0.21E-03    0.33E-03    0.19E-06
   2      8     8.768    87.261    0.19E-03    0.25E-03    0.24E-06
   2      8     8.768    70.950    0.19E-03    0.24E-03    0.24E-06
 Optimization of the real space projectors (new method)

 maximal supplied QI-value         = 12.47
 optimisation between [QCUT,QGAM] = [  8.86, 17.71] = [ 21.96, 87.83] Ry 
 Optimized for a Real-space Cutoff    1.90 Angstroem

   l    n(q)    QCUT    max X(q) W(low)/X(q) W(high)/X(q)  e(spline) 
   2      9     8.855    48.111    0.22E-03    0.80E-04    0.10E-05
   2      9     8.855    40.545    0.21E-03    0.76E-04    0.95E-06
   0     10     8.855   121.658    0.27E-04    0.12E-04    0.11E-06
   0     10     8.855    71.177    0.22E-04    0.11E-04    0.99E-07
   1     10     8.855    14.183    0.65E-04    0.10E-03    0.98E-07
   1     10     8.855     8.257    0.43E-04    0.73E-04    0.72E-07
  PAW_PBE Nb_sv 25May2007               :
 energy of atom  1       EATOM=-1555.1913
 kinetic energy error for atom=    0.0655 (will be added to EATOM!!)
  PAW_PBE Ta 17Jan2003                  :
 energy of atom  2       EATOM= -130.6506
 kinetic energy error for atom=    0.0121 (will be added to EATOM!!)
  PAW_PBE Zr_sv 04Jan2005               :
 energy of atom  3       EATOM=-1284.2219
 kinetic energy error for atom=    0.0483 (will be added to EATOM!!)
  PAW_PBE Hf 20Jan2003                  :
 energy of atom  4       EATOM=  -75.9011
 kinetic energy error for atom=    0.0071 (will be added to EATOM!!)
 
 
 POSCAR: generated by pypospack                  
  positions in direct lattice
  No initial velocities read in
 exchange correlation table for  LEXCH =        8
   RHO(1)=    0.500       N(1)  =     2000
   RHO(2)=  100.500       N(2)  =     4000
 


--------------------------------------------------------------------------------------------------------


 ion  position               nearest neighbor table
   1  0.258  0.170  0.178-  21 2.94   8 2.96   7 2.97  11 2.99  22 3.00  31 3.08  30 3.12  25 3.26

   2  0.992  0.659  0.664-  18 2.81  14 2.88  35 2.88  28 2.89  27 2.92  29 2.98  10 2.99  36 3.02
                            20 3.29
   3  0.530  0.662  0.008-  15 2.78  14 2.84   6 2.86  13 2.93  33 2.94  27 2.98  29 2.98  36 3.03
                            32 3.06
   4  0.997  0.979  0.327-   6 2.77  35 2.86  10 2.88  33 2.91  23 2.97  30 3.00  25 3.11  19 3.19
                            22 3.33
   5  0.500  0.986  0.346-   6 2.77  10 2.83  35 2.90  33 2.92  30 2.98  23 3.02  25 3.02  34 3.22
                            17 3.27
   6  0.734  0.835  0.180-   4 2.77   5 2.77  17 2.86   3 2.86  19 2.91  32 2.92  22 3.16  21 3.17
                            33 3.22  35 3.30  25 3.39
   7  0.507  0.349  0.335-  15 2.70  13 2.88  18 2.89  28 2.90  25 2.93   1 2.97  30 3.04  23 3.10
                            17 3.25  26 3.33
   8  0.989  0.352  0.314-  15 2.73  13 2.87  18 2.88  28 2.95   1 2.96  25 2.98  23 3.05  30 3.06
                            31 3.17  19 3.22
   9  0.999  0.336  0.683-  14 2.84  12 2.86  24 2.88  29 2.98  28 3.00  23 3.04  18 3.07  30 3.08
                            31 3.24  26 3.42
  10  0.244  0.828  0.495-   5 2.83  16 2.86   4 2.88  17 2.88  34 2.93  19 2.94   2 2.99  20 3.07
                            35 3.32  33 3.35  28 3.38
  11  0.494  0.336  0.996-  12 2.88  13 2.92  29 2.93  15 2.96  14 2.96  24 2.98  25 2.98   1 2.99
                            26 3.39  31 3.42
  12  0.249  0.174  0.834-  21 2.83   9 2.86  16 2.86  11 2.88  34 2.90  22 2.93  31 2.94  26 2.98
                            24 3.44  24 3.45  29 3.45
  13  0.264  0.505  0.169-   8 2.87   7 2.88  11 2.92  17 2.92   3 2.93  19 2.94  32 3.01  31 3.02
                            15 3.21  33 3.31  28 3.35  29 3.37
  14  0.745  0.502  0.829-   9 2.84   3 2.84  20 2.86   2 2.88  26 2.92  11 2.96  32 2.97  31 3.00
                            29 3.36  18 3.38  27 3.40  24 3.45  15 3.52  29 3.54
  15  0.730  0.498  0.175-   7 2.70   8 2.73   3 2.78  17 2.86  32 2.87  19 2.94  11 2.96  31 3.01
                            13 3.21  18 3.28  25 3.39  14 3.52
  16  0.036  1.000  0.668-  10 2.86  12 2.86  30 2.89  36 2.97  34 3.01  27 3.04  23 3.06  35 3.06
                            24 3.06  22 3.39
  17  0.504  0.666  0.341-  15 2.86   6 2.86  10 2.88  18 2.90  13 2.92  33 2.95  35 2.96  28 2.97
                            20 3.20   7 3.25   5 3.27  19 3.39  19 3.51
  18  0.761  0.506  0.497-  20 2.78   2 2.81   8 2.88   7 2.89  19 2.89  17 2.90  26 2.99   9 3.07
                            15 3.28  28 3.29  35 3.32  14 3.38  23 3.50  28 3.60
  19  0.995  0.667  0.325-  18 2.89   6 2.91  13 2.94  10 2.94  15 2.94  35 2.94  33 2.97  28 2.99
                            32 3.13   4 3.19   8 3.22  17 3.39  17 3.51
  20  0.515  0.655  0.655-  18 2.78  14 2.86  35 2.91  29 2.95  28 2.97  27 2.99  36 3.02  10 3.07
                            17 3.20  26 3.27   2 3.29  34 3.58
  21  0.479  0.008  0.990-  12 2.83  36 2.92   1 2.94  24 2.94  33 2.95  25 3.00  27 3.07   6 3.17
                            22 3.21  34 3.35  22 3.69
  22  0.013  0.003  0.001-  12 2.93   1 3.00  24 3.02  33 3.03  36 3.04  25 3.07  27 3.09   6 3.16
                            21 3.21   4 3.33  16 3.39  31 3.44  32 3.51  21 3.69
  23  0.771  0.164  0.495-   4 2.97   5 3.02   9 3.04  26 3.05   8 3.05  16 3.06   7 3.10  34 3.13
                            30 3.18  25 3.32  35 3.41  24 3.42  18 3.50  30 3.72
  24  0.749  0.165  0.831-   9 2.88  21 2.94  11 2.98  26 2.99  22 3.02  31 3.03  34 3.06  16 3.06
                            27 3.38  23 3.42  12 3.44  14 3.45  25 3.45  12 3.45
  25  0.731  0.167  0.170-   7 2.93  11 2.98   8 2.98  21 3.00   5 3.02  31 3.07  22 3.07   4 3.11
                             1 3.26  23 3.32  15 3.39   6 3.39  24 3.45
  26  0.504  0.336  0.662-  14 2.92  12 2.98  24 2.99  18 2.99  28 3.00  29 3.03  23 3.05  30 3.11
                            20 3.27   7 3.33  11 3.39  34 3.41   9 3.42
  27  0.750  0.834  0.824-   2 2.92   3 2.98  20 2.99  16 3.04  21 3.07  32 3.07  22 3.09  34 3.09
                            35 3.26  36 3.38  24 3.38  14 3.40  36 3.52
  28  0.238  0.498  0.498-   2 2.89   7 2.90   8 2.95  20 2.97  17 2.97  19 2.99  26 3.00   9 3.00
                            18 3.29  13 3.35  30 3.36  10 3.38  29 3.46  18 3.60
  29  0.258  0.512  0.838-  11 2.93  20 2.95   2 2.98   3 2.98   9 2.98  31 3.02  26 3.03  32 3.07
                            36 3.13  14 3.36  13 3.37  12 3.45  28 3.46  14 3.54
  30  0.232  0.170  0.485-  16 2.89   5 2.98  34 2.99   4 3.00   7 3.04   8 3.06   9 3.08  26 3.11
                             1 3.12  23 3.18  28 3.36  23 3.72
  31  0.998  0.339  0.002-  12 2.94  14 3.00  15 3.01  13 3.02  29 3.02  24 3.03  25 3.07   1 3.08
                             8 3.17   9 3.24  32 3.31  11 3.42  22 3.44
  32  0.974  0.662  0.017-  15 2.87   6 2.92  14 2.97  13 3.01  33 3.04   3 3.06  27 3.07  29 3.07
                            19 3.13  36 3.14  31 3.31  22 3.51
  33  0.267  0.828  0.166-   4 2.91   5 2.92   3 2.94  21 2.95  17 2.95  19 2.97  22 3.03  32 3.04
                             6 3.22  13 3.31  10 3.35  36 3.36
  34  0.472  0.004  0.661-  12 2.90  10 2.93  36 2.98  30 2.99  16 3.01  24 3.06  27 3.09  35 3.09
                            23 3.13   5 3.22  21 3.35  26 3.41  20 3.58
  35  0.761  0.831  0.504-   4 2.86   2 2.88   5 2.90  20 2.91  19 2.94  17 2.96  16 3.06  34 3.09
                            27 3.26   6 3.30  18 3.32  10 3.32  23 3.41
  36  0.260  0.818  0.835-  21 2.92  16 2.97  34 2.98   2 3.02  20 3.02   3 3.03  22 3.04  29 3.13
                            32 3.14  33 3.36  27 3.38  27 3.52
 
  LATTYP: Found a triclinic cell.
 ALAT       =    19.8593809835
 B/A-ratio  =     0.3470768125
 C/A-ratio  =     0.5150054817
 COS(alpha) =     0.0003972649
 COS(beta)  =     0.5117715479
 COS(gamma) =     0.6900183199
  
  Lattice vectors:
  
 A1 = (  13.7445549234, -10.1950780481, -10.0768351479)
 A2 = (   6.8926671788,  -0.0014216683,   0.0295457601)
 A3 = (   0.0018057682, -10.2276317592,   0.0344891753)


Analysis of symmetry for initial positions (statically):
=====================================================================
 Subroutine PRICEL returns:
 Original cell was already a primitive cell.
 

 Routine SETGRP: Setting up the symmetry group for a 
 triclinic supercell.


 Subroutine GETGRP returns: Found  1 space group operations
 (whereof  1 operations were pure point group operations)
 out of a pool of  2 trial point group operations.


The static configuration has the point symmetry C_1 .


Analysis of symmetry for dynamics (positions and initial velocities):
=====================================================================
 Subroutine PRICEL returns:
 Original cell was already a primitive cell.
 

 Routine SETGRP: Setting up the symmetry group for a 
 triclinic supercell.


 Subroutine GETGRP returns: Found  1 space group operations
 (whereof  1 operations were pure point group operations)
 out of a pool of  2 trial point group operations.


The dynamic configuration has the point symmetry C_1 .


 Subroutine INISYM returns: Found  1 space group operations
 (whereof  1 operations are pure point group operations),
 and found     1 'primitive' translations

 
 
 KPOINTS: k-points                                

Automatic generation of k-mesh.
Space group operators:
 irot       det(A)        alpha          n_x          n_y          n_z        tau_x        tau_y        tau_z
    1     1.000000     0.000000     1.000000     0.000000     0.000000     0.000000     0.000000     0.000000
 
 Subroutine IBZKPT returns following result:
 ===========================================
 
 Found     14 irreducible k-points:
 
 Following reciprocal coordinates:
            Coordinates               Weight
  0.000000  0.000000  0.000000      1.000000
  0.333333  0.000000  0.000000      2.000000
  0.000000  0.333333 -0.000000      2.000000
  0.333333  0.333333  0.000000      2.000000
 -0.333333  0.333333 -0.000000      2.000000
  0.000000  0.000000  0.333333      2.000000
  0.333333  0.000000  0.333333      2.000000
 -0.333333  0.000000  0.333333      2.000000
 -0.000000  0.333333  0.333333      2.000000
  0.333333  0.333333  0.333333      2.000000
 -0.333333  0.333333  0.333333      2.000000
  0.000000 -0.333333  0.333333      2.000000
  0.333333 -0.333333  0.333333      2.000000
 -0.333333 -0.333333  0.333333      2.000000
 
 Following cartesian coordinates:
            Coordinates               Weight
  0.000000  0.000000  0.000000      1.000000
  0.241242  0.000039 -0.001010      2.000000
  0.000031  0.162578  0.000566      2.000000
  0.241273  0.162617 -0.000444      2.000000
 -0.241211  0.162539  0.001576      2.000000
 -0.000701  0.000551  0.163496      2.000000
  0.240541  0.000590  0.162486      2.000000
 -0.241943  0.000512  0.164506      2.000000
 -0.000670  0.163129  0.164061      2.000000
  0.240572  0.163169  0.163051      2.000000
 -0.241911  0.163090  0.165071      2.000000
 -0.000732 -0.162027  0.162930      2.000000
  0.240510 -0.161988  0.161920      2.000000
 -0.241974 -0.162066  0.163940      2.000000
 


--------------------------------------------------------------------------------------------------------




 Dimension of arrays:
   k-points           NKPTS =     14   k-points in BZ     NKDIM =     14   number of bands    NBANDS=    192
   number of dos      NEDOS =    301   number of ions     NIONS =     36
   non local maximal  LDIM  =      6   non local SUM 2l+1 LMDIM =     18
   total plane-waves  NPLWV = 144000
   max r-space proj   IRMAX =   6390   max aug-charges    IRDMAX=  13870
   dimension x,y,z NGX =    40 NGY =   60 NGZ =   60
   dimension x,y,z NGXF=    80 NGYF=  120 NGZF=  120
   support grid    NGXF=    80 NGYF=  120 NGZF=  120
   ions per type =              12   9   7   8
 NGX,Y,Z   is equivalent  to a cutoff of   9.65,  9.75,  9.81 a.u.
 NGXF,Y,Z  is equivalent  to a cutoff of  19.30, 19.51, 19.61 a.u.


 I would recommend the setting:
   dimension x,y,z NGX =    39 NGY =   58 NGZ =   57
 SYSTEM =  automatically generated by mexm         
 POSCAR =  generated by pypospack                  

 Startparameter for this run:
   NWRITE =      2    write-flag & timer
   PREC   = accura    normal or accurate (medium, high low for compatibility)
   ISTART =      0    job   : 0-new  1-cont  2-samecut
   ICHARG =      2    charge: 1-file 2-atom 10-const
   ISPIN  =      1    spin polarized calculation?
   LNONCOLLINEAR =      F non collinear calculations
   LSORBIT =      F    spin-orbit coupling
   INIWAV =      1    electr: 0-lowe 1-rand  2-diag
   LASPH  =      F    aspherical Exc in radial PAW
   METAGGA=      F    non-selfconsistent MetaGGA calc.

 Electronic Relaxation 1
   ENCUT  =  300.0 eV  22.05 Ry    4.70 a.u.   9.73 14.44 14.36*2*pi/ulx,y,z
   ENINI  =  300.0     initial cutoff
   ENAUG  =  461.3 eV  augmentation charge cutoff
   NELM   =     70;   NELMIN=  2; NELMDL= -5     # of ELM steps 
   EDIFF  = 0.1E-04   stopping-criterion for ELM
   LREAL  =      T    real-space projection
   NLSPLINE    = F    spline interpolate recip. space projectors
   LCOMPAT=      F    compatible to vasp.4.4
   GGA_COMPAT  = T    GGA compatible to vasp.4.4-vasp.4.6
   LMAXPAW     = -100 max onsite density
   LMAXMIX     =    2 max onsite mixed and CHGCAR
   VOSKOWN=      0    Vosko Wilk Nusair interpolation
   ROPT   =   -0.00025  -0.00025  -0.00025  -0.00025
 Ionic relaxation
   EDIFFG = -.1E-01   stopping-criterion for IOM
   NSW    =    300    number of steps for IOM
   NBLOCK =      1;   KBLOCK =    300    inner block; outer block 
   IBRION =      2    ionic relax: 0-MD 1-quasi-New 2-CG
   NFREE  =      1    steps in history (QN), initial steepest desc. (CG)
   ISIF   =      3    stress and relaxation
   IWAVPR =     11    prediction:  0-non 1-charg 2-wave 3-comb
   ISYM   =      1    0-nonsym 1-usesym 2-fastsym
   LCORR  =      T    Harris-Foulkes like correction to forces

   POTIM  = 0.1500    time-step for ionic-motion
   TEIN   =    0.0    initial temperature
   TEBEG  =    0.0;   TEEND  =   0.0 temperature during run
   SMASS  =  -3.00    Nose mass-parameter (am)
   estimated Nose-frequenzy (Omega)   =  0.10E-29 period in steps =****** mass=  -0.109E-26a.u.
   SCALEE = 1.0000    scale energy and forces
   NPACO  =    256;   APACO  = 16.0  distance and # of slots for P.C.
   PSTRESS=    0.0 pullay stress

  Mass of Ions in am
   POMASS =  92.91180.95 91.22178.49
  Ionic Valenz
   ZVAL   =  13.00  5.00 12.00  4.00
  Atomic Wigner-Seitz radii
   RWIGS  =  -1.00 -1.00 -1.00 -1.00
  virtual crystal weights 
   VCA    =   1.00  1.00  1.00  1.00
   NELECT =     317.0000    total number of electrons
   NUPDOWN=      -1.0000    fix difference up-down

 DOS related values:
   EMIN   =  10.00;   EMAX   =-10.00  energy-range for DOS
   EFERMI =   0.00
   ISMEAR =     1;   SIGMA  =   0.15  broadening in eV -4-tet -1-fermi 0-gaus

 Electronic relaxation 2 (details)
   IALGO  =     68    algorithm
   LDIAG  =      T    sub-space diagonalisation (order eigenvalues)
   LSUBROT=      F    optimize rotation matrix (better conditioning)
   TURBO    =      0    0=normal 1=particle mesh
   IRESTART =      0    0=no restart 2=restart with 2 vectors
   NREBOOT  =      0    no. of reboots
   NMIN     =      0    reboot dimension
   EREF     =   0.00    reference energy to select bands
   IMIX   =      4    mixing-type and parameters
     AMIX     =   0.40;   BMIX     =  1.00
     AMIX_MAG =   1.60;   BMIX_MAG =  1.00
     AMIN     =   0.10
     WC   =   100.;   INIMIX=   1;  MIXPRE=   1;  MAXMIX= -45

 Intra band minimization:
   WEIMIN = 0.0010     energy-eigenvalue tresh-hold
   EBREAK =  0.13E-07  absolut break condition
   DEPER  =   0.30     relativ break condition  

   TIME   =   0.40     timestep for ELM

  volume/ion in A,a.u.               =      19.92       134.39
  Fermi-wavevector in a.u.,A,eV,Ry     =   1.247188  2.356843 21.163555  1.555477
  Thomas-Fermi vector in A             =   2.381331
 
 Write flags
   LWAVE  =      F    write WAVECAR
   LCHARG =      F    write CHGCAR
   LVTOT  =      F    write LOCPOT, total local potential
   LVHAR  =      F    write LOCPOT, Hartree potential only
   LELF   =      F    write electronic localiz. function (ELF)
   LORBIT =      0    0 simple, 1 ext, 2 COOP (PROOUT)


 Dipole corrections
   LMONO  =      F    monopole corrections only (constant potential shift)
   LDIPOL =      F    correct potential (dipole corrections)
   IDIPOL =      0    1-x, 2-y, 3-z, 4-all directions 
   EPSILON=  1.0000000 bulk dielectric constant

 Exchange correlation treatment:
   GGA     =    --    GGA type
   LEXCH   =     8    internal setting for exchange type
   VOSKOWN=      0    Vosko Wilk Nusair interpolation
   LHFCALC =     F    Hartree Fock is set to
   LHFONE  =     F    Hartree Fock one center treatment
   AEXX    =    0.0000 exact exchange contribution

 Linear response parameters
   LEPSILON=     F    determine dielectric tensor
   LRPA    =     F    only Hartree local field effects (RPA)
   LNABLA  =     F    use nabla operator in PAW spheres
   LVEL    =     F    velocity operator in full k-point grid
   LINTERFAST=   F  fast interpolation
   KINTER  =     0    interpolate to denser k-point grid
   CSHIFT  =0.1000    complex shift for real part using Kramers Kronig
   OMEGAMAX=  -1.0    maximum frequency
   DEG_THRESHOLD= 0.2000000E-02 threshold for treating states as degnerate
   RTIME   =    0.100 relaxation time in fs

 Orbital magnetization related:
   ORBITALMAG=     F  switch on orbital magnetization
   LCHIMAG   =     F  perturbation theory with respect to B field
   DQ        =  0.001000  dq finite difference perturbation B field



--------------------------------------------------------------------------------------------------------


 conjugate gradient relaxation of ions
 charge density and potential will be updated during run
 non-spin polarized calculation
 RMM-DIIS sequential band-by-band and
  variant of blocked Davidson during initial phase
 perform sub-space diagonalisation
    before iterative eigenvector-optimisation
 modified Broyden-mixing scheme, WC =      100.0
 initial mixing is a Kerker type mixing with AMIX =  0.4000 and BMIX =      1.0000
 Hartree-type preconditioning will be used
 using additional bands           33
 real space projection scheme for non local part
 use partial core corrections
 calculate Harris-corrections to forces 
   (improved forces if not selfconsistent)
 use gradient corrections 
 use of overlap-Matrix (Vanderbilt PP)
 Methfessel and Paxton  Order N= 1 SIGMA  =   0.15


--------------------------------------------------------------------------------------------------------


  energy-cutoff  :      300.00
  volume of cell :      716.95
      direct lattice vectors                 reciprocal lattice vectors
     6.892667179 -0.001421668  0.029545760     0.145084327  0.000023567 -0.000607410
    -0.001805768 10.227631759 -0.034489175     0.000018709  0.097775496  0.000340219
     0.042585202 -0.035397048 10.170415844    -0.000421417  0.000331501  0.098327315

  length of vectors
     6.892730650 10.227690070 10.170566596     0.145085601  0.097776090  0.098328777


 
 k-points in units of 2pi/SCALE and weight: k-points                                
   0.00000000  0.00000000  0.00000000       0.037
   0.24124187  0.00003919 -0.00100998       0.074
   0.00003111  0.16257816  0.00056571       0.074
   0.24127297  0.16261735 -0.00044428       0.074
  -0.24121076  0.16253897  0.00157569       0.074
  -0.00070072  0.00055121  0.16349571       0.074
   0.24054115  0.00059040  0.16248573       0.074
  -0.24194259  0.00051202  0.16450569       0.074
  -0.00066961  0.16312937  0.16406141       0.074
   0.24057226  0.16316856  0.16305143       0.074
  -0.24191148  0.16309018  0.16507140       0.074
  -0.00073183 -0.16202695  0.16293000       0.074
   0.24051004 -0.16198776  0.16192002       0.074
  -0.24197369 -0.16206614  0.16393999       0.074
 
 k-points in reciprocal lattice and weights: k-points                                
   0.00000000  0.00000000  0.00000000       0.037
   0.33333333  0.00000000  0.00000000       0.074
   0.00000000  0.33333333 -0.00000000       0.074
   0.33333333  0.33333333  0.00000000       0.074
  -0.33333333  0.33333333 -0.00000000       0.074
   0.00000000  0.00000000  0.33333333       0.074
   0.33333333  0.00000000  0.33333333       0.074
  -0.33333333  0.00000000  0.33333333       0.074
  -0.00000000  0.33333333  0.33333333       0.074
   0.33333333  0.33333333  0.33333333       0.074
  -0.33333333  0.33333333  0.33333333       0.074
   0.00000000 -0.33333333  0.33333333       0.074
   0.33333333 -0.33333333  0.33333333       0.074
  -0.33333333 -0.33333333  0.33333333       0.074
 
 position of ions in fractional coordinates (direct lattice) 
   0.25837100  0.16990600  0.17834400
   0.99198700  0.65937700  0.66391400
   0.52976600  0.66182700  0.00781000
   0.99677600  0.97889900  0.32722200
   0.50044900  0.98564000  0.34561500
   0.73386600  0.83528000  0.18048600
   0.50687400  0.34874700  0.33493800
   0.98886500  0.35193500  0.31389200
   0.99860700  0.33621200  0.68326900
   0.24354600  0.82790200  0.49491100
   0.49398600  0.33563300  0.99583900
   0.24932000  0.17410800  0.83434400
   0.26418200  0.50479400  0.16852400
   0.74508000  0.50196600  0.82916300
   0.73006600  0.49770600  0.17530600
   0.03552300  0.99962700  0.66827000
   0.50381300  0.66613800  0.34121400
   0.76054100  0.50574900  0.49669700
   0.99538100  0.66652900  0.32489600
   0.51543000  0.65505500  0.65543500
   0.47859900  0.00766500  0.99032600
   0.01288400  0.00338100  0.00137300
   0.77116200  0.16400200  0.49475700
   0.74886700  0.16466500  0.83067200
   0.73100300  0.16659400  0.16985300
   0.50381900  0.33602800  0.66222900
   0.75009000  0.83387700  0.82446600
   0.23798200  0.49782300  0.49766000
   0.25785300  0.51161700  0.83773800
   0.23196300  0.16994300  0.48472500
   0.99838300  0.33917400  0.00231000
   0.97386300  0.66209700  0.01738500
   0.26729100  0.82820100  0.16585200
   0.47206100  0.00356900  0.66093800
   0.76136800  0.83054800  0.50413100
   0.26037000  0.81779100  0.83549200
 
 position of ions in cartesian coordinates  (Angst):
   1.78815332  1.73105583  1.81560649
   6.86451847  6.71895427  6.75884911
   3.65063820  6.76789324  0.07225742
   6.88261237  9.99881872  3.32367290
   3.46236664 10.06781774  3.49584051
   5.06447180  8.53550427  1.82849218
   3.50734743  3.55427947  3.40940672
   6.82864897  3.58694489  3.20949099
   6.91155572  3.41304714  6.96703879
   1.69826241  8.44961216  5.01209277
   3.44668302  3.39677869 10.13111623
   1.75369609  1.75082475  8.48698694
   1.82718369  5.15650631  1.70435469
   5.16999210  5.10351422  8.43763407
   5.03866866  5.08311047  1.78733981
   0.27150153 10.20011157  6.76315704
   3.48594311  6.80021994  3.46219926
   5.26239467  5.15395169  5.05664293
   6.87346211  6.80409771  3.31074868
   3.57941640  6.67572809  6.65868297
   3.34098301  0.04265977 10.08590345
   0.08885749  0.03451271  0.01422804
   5.33613618  1.65874279  5.04901271
   5.19676798  1.65366501  8.46472635
   5.04549278  1.69681055  1.74332799
   3.50025105  3.41261343  6.73844070
   5.20372499  8.49833685  8.37856432
   1.66062472  5.07359630  5.05127100
   1.81204629  5.20261024  8.51011704
   1.61917899  1.72062682  4.93084715
   6.88100764  3.46744564  0.04129381
   6.71205829  6.76968442  0.18275102
   1.84791520  8.46428418  1.66611715
   3.28189909  0.01243605  6.73583862
   5.26782497  8.47561194  5.12107219
   1.82874661  8.33412109  8.47678897
 


--------------------------------------------------------------------------------------------------------


 k-point  1 :   0.0000 0.0000 0.0000  plane waves:    8527
 k-point  2 :   0.3333 0.0000 0.0000  plane waves:    8463
 k-point  3 :   0.0000 0.3333-0.0000  plane waves:    8457
 k-point  4 :   0.3333 0.3333 0.0000  plane waves:    8453
 k-point  5 :  -0.3333 0.3333-0.0000  plane waves:    8457
 k-point  6 :   0.0000 0.0000 0.3333  plane waves:    8472
 k-point  7 :   0.3333 0.0000 0.3333  plane waves:    8459
 k-point  8 :  -0.3333 0.0000 0.3333  plane waves:    8452
 k-point  9 :  -0.0000 0.3333 0.3333  plane waves:    8453
 k-point 10 :   0.3333 0.3333 0.3333  plane waves:    8457
 k-point 11 :  -0.3333 0.3333 0.3333  plane waves:    8455
 k-point 12 :   0.0000-0.3333 0.3333  plane waves:    8455
 k-point 13 :   0.3333-0.3333 0.3333  plane waves:    8456
 k-point 14 :  -0.3333-0.3333 0.3333  plane waves:    8465

 maximum and minimum number of plane-waves per node :      1722     1672

 maximum number of plane-waves:      8527
 maximum index in each direction: 
   IXMAX=   10   IYMAX=   14   IZMAX=   14
   IXMIN=  -10   IYMIN=  -14   IZMIN=  -14

 WARNING: aliasing errors must be expected set NGX to  42 to avoid them
 NGY is ok and might be reduce to  58
 NGZ is ok and might be reduce to  58
 aliasing errors are usually negligible using standard VASP settings
 and one can safely disregard these warnings

 real space projection operators:
  total allocation   :      28077.75 KBytes
  max/ min on nodes  :       5651.30       5583.66


 parallel 3D FFT for wavefunctions:
    minimum data exchange during FFTs selected (reduces bandwidth)
 parallel 3D FFT for charge:
    minimum data exchange during FFTs selected (reduces bandwidth)


 total amount of memory used by VASP on root node    68892. kBytes
========================================================================

   base      :      30000. kBytes
   nonlr-proj:      10768. kBytes
   fftplans  :       2814. kBytes
   grid      :       5360. kBytes
   one-center:        124. kBytes
   wavefun   :      19826. kBytes
 
     INWAV:  cpu time    0.0000: real time    0.0000
 Broyden mixing: mesh for mixing (old mesh)
   NGX = 19   NGY = 29   NGZ = 29
  (NGX  = 80   NGY  =120   NGZ  =120)
  gives a total of  15979 points

 initial charge density was supplied:
 charge density of overlapping atoms calculated
 number of electron     317.0000000 magnetization 
 keeping initial charge density in first step


--------------------------------------------------------------------------------------------------------


 Maximum index for non-local projection operator         1252
 Maximum index for augmentation-charges          685 (set IRDMAX)


--------------------------------------------------------------------------------------------------------


 First call to EWALD:  gamma=   0.198
 Maximum number of real-space cells 3x 2x 2
 Maximum number of reciprocal cells 2x 3x 3

 FEWALD executed in parallel
    FEWALD:  cpu time    0.0575: real time    0.0578


----------------------------------------- Iteration    1(   1)  ---------------------------------------


    POTLOK:  cpu time    0.0468: real time    0.0612
    SETDIJ:  cpu time    0.0921: real time    0.0925
     EDDAV:  cpu time    1.2606: real time    1.2870
       DOS:  cpu time    0.0010: real time    0.0010
    --------------------------------------------
      LOOP:  cpu time    1.4084: real time    1.7498

 eigenvalue-minimisations  :  5912
 total energy-change (2. order) : 0.2165148E+04  (-0.1222295E+05)
 number of electron     317.0000000 magnetization 
 augmentation part      317.0000000 magnetization 

 Free energy of the ion-electron system (eV)
  ---------------------------------------------------
  alpha Z        PSCENC =      1684.34946387
  Ewald energy   TEWEN  =    -22682.54205248
  -Hartree energ DENC   =     -7548.15264909
  -exchange      EXHF   =         0.00000000
  -V(xc)+E(xc)   XCENC  =         6.23261912
  PAW double counting   =     24525.89943898   -23028.34694697
  entropy T*S    EENTRO =        -0.01000467
  eigenvalues    EBANDS =      -225.90515161
  atomic energy  EATOM  =     29433.62331934
  Solvation  Ediel_sol  =         0.00000000
  ---------------------------------------------------
  free energy    TOTEN  =      2165.14803649 eV

  energy without entropy =     2165.15804117  energy(sigma->0) =     2165.15137138


--------------------------------------------------------------------------------------------------------




----------------------------------------- Iteration    1(   2)  ---------------------------------------


     EDDAV:  cpu time    1.1411: real time    1.1869
       DOS:  cpu time    0.0009: real time    0.0010
    --------------------------------------------
      LOOP:  cpu time    1.1445: real time    1.4126

 eigenvalue-minimisations  :  6224
 total energy-change (2. order) :-0.2242764E+04  (-0.2169267E+04)
 number of electron     317.0000000 magnetization 
 augmentation part      317.0000000 magnetization 

 Free energy of the ion-electron system (eV)
  ---------------------------------------------------
  alpha Z        PSCENC =      1684.34946387
  Ewald energy   TEWEN  =    -22682.54205248
  -Hartree energ DENC   =     -7548.15264909
  -exchange      EXHF   =         0.00000000
  -V(xc)+E(xc)   XCENC  =         6.23261912
  PAW double counting   =     24525.89943898   -23028.34694697
  entropy T*S    EENTRO =         0.00435988
  eigenvalues    EBANDS =     -2468.68311473
  atomic energy  EATOM  =     29433.62331934
  Solvation  Ediel_sol  =         0.00000000
  ---------------------------------------------------
  free energy    TOTEN  =       -77.61556208 eV

  energy without entropy =      -77.61992195  energy(sigma->0) =      -77.61701537


--------------------------------------------------------------------------------------------------------




----------------------------------------- Iteration    1(   3)  ---------------------------------------


     EDDAV:  cpu time    1.7642: real time    1.8109
       DOS:  cpu time    0.0011: real time    0.0011
    --------------------------------------------
      LOOP:  cpu time    1.7659: real time    1.8431

 eigenvalue-minimisations  :  9200
 total energy-change (2. order) :-0.2697068E+03  (-0.2564711E+03)
 number of electron     317.0000000 magnetization 
 augmentation part      317.0000000 magnetization 

 Free energy of the ion-electron system (eV)
  ---------------------------------------------------
  alpha Z        PSCENC =      1684.34946387
  Ewald energy   TEWEN  =    -22682.54205248
  -Hartree energ DENC   =     -7548.15264909
  -exchange      EXHF   =         0.00000000
  -V(xc)+E(xc)   XCENC  =         6.23261912
  PAW double counting   =     24525.89943898   -23028.34694697
  entropy T*S    EENTRO =         0.00186783
  eigenvalues    EBANDS =     -2738.38746719
  atomic energy  EATOM  =     29433.62331934
  Solvation  Ediel_sol  =         0.00000000
  ---------------------------------------------------
  free energy    TOTEN  =      -347.32240659 eV

  energy without entropy =     -347.32427442  energy(sigma->0) =     -347.32302920


--------------------------------------------------------------------------------------------------------




----------------------------------------- Iteration    1(   4)  ---------------------------------------


     EDDAV:  cpu time    1.5708: real time    1.6252
       DOS:  cpu time    0.0013: real time    0.0013
    --------------------------------------------
      LOOP:  cpu time    1.5730: real time    1.6627

 eigenvalue-minimisations  :  8960
 total energy-change (2. order) :-0.2998918E+02  (-0.2862810E+02)
 number of electron     317.0000000 magnetization 
 augmentation part      317.0000000 magnetization 

 Free energy of the ion-electron system (eV)
  ---------------------------------------------------
  alpha Z        PSCENC =      1684.34946387
  Ewald energy   TEWEN  =    -22682.54205248
  -Hartree energ DENC   =     -7548.15264909
  -exchange      EXHF   =         0.00000000
  -V(xc)+E(xc)   XCENC  =         6.23261912
  PAW double counting   =     24525.89943898   -23028.34694697
  entropy T*S    EENTRO =         0.00656845
  eigenvalues    EBANDS =     -2768.38134485
  atomic energy  EATOM  =     29433.62331934
  Solvation  Ediel_sol  =         0.00000000
  ---------------------------------------------------
  free energy    TOTEN  =      -377.31158363 eV

  energy without entropy =     -377.31815208  energy(sigma->0) =     -377.31377311


--------------------------------------------------------------------------------------------------------




----------------------------------------- Iteration    1(   5)  ---------------------------------------


     EDDAV:  cpu time    1.4914: real time    1.5472
       DOS:  cpu time    0.0015: real time    0.0015
    CHARGE:  cpu time    0.1141: real time    0.1151
    MIXING:  cpu time    0.0013: real time    0.0014
    --------------------------------------------
      LOOP:  cpu time    1.6090: real time    1.7338

 eigenvalue-minimisations  :  8728
 total energy-change (2. order) :-0.2978693E+01  (-0.2930219E+01)
 number of electron     317.0000003 magnetization 
 augmentation part       20.4290626 magnetization 

 Broyden mixing:
  rms(total) = 0.63148E+01    rms(broyden)= 0.63143E+01
  rms(prec ) = 0.66017E+01
  weight for this iteration     100.00

 Free energy of the ion-electron system (eV)
  ---------------------------------------------------
  alpha Z        PSCENC =      1684.34946387
  Ewald energy   TEWEN  =    -22682.54205248
  -Hartree energ DENC   =     -7548.15264909
  -exchange      EXHF   =         0.00000000
  -V(xc)+E(xc)   XCENC  =         6.23261912
  PAW double counting   =     24525.89943898   -23028.34694697
  entropy T*S    EENTRO =         0.00737729
  eigenvalues    EBANDS =     -2771.36084694
  atomic energy  EATOM  =     29433.62331934
  Solvation  Ediel_sol  =         0.00000000
  ---------------------------------------------------
  free energy    TOTEN  =      -380.29027687 eV

  energy without entropy =     -380.29765417  energy(sigma->0) =     -380.29273597


--------------------------------------------------------------------------------------------------------




----------------------------------------- Iteration    1(   6)  ---------------------------------------


    POTLOK:  cpu time    0.0358: real time    0.0370
    SETDIJ:  cpu time    0.0303: real time    0.0308
    EDDIAG:  cpu time    0.0915: real time    0.0943
  RMM-DIIS:  cpu time    0.7944: real time    0.8271
    ORTHCH:  cpu time    0.0139: real time    0.0143
       DOS:  cpu time    0.0028: real time    0.0028
    CHARGE:  cpu time    0.0321: real time    0.0328
    MIXING:  cpu time    0.0022: real time    0.0031
    --------------------------------------------
      LOOP:  cpu time    1.0040: real time    1.0981

 eigenvalue-minimisations  :  7438
 total energy-change (2. order) : 0.1055538E+02  (-0.2870137E+01)
 number of electron     317.0000003 magnetization 
 augmentation part       21.2761122 magnetization 

 Broyden mixing:
  rms(total) = 0.29343E+01    rms(broyden)= 0.29342E+01
  rms(prec ) = 0.32667E+01
  weight for this iteration     100.00

 eigenvalues of (default mixing * dielectric matrix)
  average eigenvalue GAMMA=   1.7655
  1.7655

 Free energy of the ion-electron system (eV)
  ---------------------------------------------------
  alpha Z        PSCENC =      1684.34946387
  Ewald energy   TEWEN  =    -22682.54205248
  -Hartree energ DENC   =     -7327.05661330
  -exchange      EXHF   =         0.00000000
  -V(xc)+E(xc)   XCENC  =         0.05173167
  PAW double counting   =     29852.84929632   -28362.21106171
  entropy T*S    EENTRO =         0.00426796
  eigenvalues    EBANDS =     -2968.80324733
  atomic energy  EATOM  =     29433.62331934
  Solvation  Ediel_sol  =         0.00000000
  ---------------------------------------------------
  free energy    TOTEN  =      -369.73489567 eV

  energy without entropy =     -369.73916362  energy(sigma->0) =     -369.73631832


--------------------------------------------------------------------------------------------------------




----------------------------------------- Iteration    1(   7)  ---------------------------------------


    POTLOK:  cpu time    0.0283: real time    0.0293
    SETDIJ:  cpu time    0.0036: real time    0.0037
    EDDIAG:  cpu time    0.0825: real time    0.1377
  RMM-DIIS:  cpu time    0.8610: real time    0.9069
    ORTHCH:  cpu time    0.0142: real time    0.0143
       DOS:  cpu time    0.0097: real time    0.0097
    CHARGE:  cpu time    0.0620: real time    0.0622
    MIXING:  cpu time    0.0014: real time    0.0014
    --------------------------------------------
      LOOP:  cpu time    1.0634: real time    1.2047

 eigenvalue-minimisations  :  7755
 total energy-change (2. order) :-0.1989274E+01  (-0.2477270E+01)
 number of electron     317.0000003 magnetization 
 augmentation part       21.7083463 magnetization 

 Broyden mixing:
  rms(total) = 0.13200E+01    rms(broyden)= 0.13196E+01
  rms(prec ) = 0.36506E+01
  weight for this iteration     100.00

 eigenvalues of (default mixing * dielectric matrix)
  average eigenvalue GAMMA=   1.1557
  1.8148  0.4967

 Free energy of the ion-electron system (eV)
  ---------------------------------------------------
  alpha Z        PSCENC =      1684.34946387
  Ewald energy   TEWEN  =    -22682.54205248
  -Hartree energ DENC   =     -7298.23052619
  -exchange      EXHF   =         0.00000000
  -V(xc)+E(xc)   XCENC  =         0.96930984
  PAW double counting   =     34575.95921853   -33075.76350919
  entropy T*S    EENTRO =         0.00160965
  eigenvalues    EBANDS =     -3010.09100325
  atomic energy  EATOM  =     29433.62331934
  Solvation  Ediel_sol  =         0.00000000
  ---------------------------------------------------
  free energy    TOTEN  =      -371.72416988 eV

  energy without entropy =     -371.72577953  energy(sigma->0) =     -371.72470643


--------------------------------------------------------------------------------------------------------




----------------------------------------- Iteration    1(   8)  ---------------------------------------


    POTLOK:  cpu time    0.0276: real time    0.0285
    SETDIJ:  cpu time    0.0036: real time    0.0037
    EDDIAG:  cpu time    0.1111: real time    0.1135
  RMM-DIIS:  cpu time    0.9308: real time    0.9645
    ORTHCH:  cpu time    0.0173: real time    0.0173
       DOS:  cpu time    0.0359: real time    0.0360
    CHARGE:  cpu time    0.0696: real time    0.0698
    MIXING:  cpu time    0.0012: real time    0.0012
    --------------------------------------------
      LOOP:  cpu time    1.1978: real time    1.2912

 eigenvalue-minimisations  :  7919
 total energy-change (2. order) : 0.6230510E+01  (-0.7659008E+00)
 number of electron     317.0000003 magnetization 
 augmentation part       21.5539003 magnetization 

 Broyden mixing:
  rms(total) = 0.47310E+00    rms(broyden)= 0.47235E+00
  rms(prec ) = 0.85766E+00
  weight for this iteration     100.00

 eigenvalues of (default mixing * dielectric matrix)
  average eigenvalue GAMMA=   1.0948
  1.8104  1.1111  0.3628

 Free energy of the ion-electron system (eV)
  ---------------------------------------------------
  alpha Z        PSCENC =      1684.34946387
  Ewald energy   TEWEN  =    -22682.54205248
  -Hartree energ DENC   =     -7242.64942275
  -exchange      EXHF   =         0.00000000
  -V(xc)+E(xc)   XCENC  =         0.29192869
  PAW double counting   =     35663.09950340   -34160.18576185
  entropy T*S    EENTRO =         0.00277843
  eigenvalues    EBANDS =     -3061.48341672
  atomic energy  EATOM  =     29433.62331934
  Solvation  Ediel_sol  =         0.00000000
  ---------------------------------------------------
  free energy    TOTEN  =      -365.49366007 eV

  energy without entropy =     -365.49643850  energy(sigma->0) =     -365.49458621


--------------------------------------------------------------------------------------------------------




----------------------------------------- Iteration    1(   9)  ---------------------------------------


    POTLOK:  cpu time    0.0282: real time    0.0293
    SETDIJ:  cpu time    0.0035: real time    0.0036
    EDDIAG:  cpu time    0.1033: real time    0.1063
  RMM-DIIS:  cpu time    0.8664: real time    0.9122
    ORTHCH:  cpu time    0.0135: real time    0.0140
       DOS:  cpu time    0.0026: real time    0.0027
    CHARGE:  cpu time    0.0337: real time    0.0344
    MIXING:  cpu time    0.0013: real time    0.0014
    --------------------------------------------
      LOOP:  cpu time    1.0532: real time    1.1385

 eigenvalue-minimisations  :  8076
 total energy-change (2. order) : 0.3104814E+00  (-0.2341307E+00)
 number of electron     317.0000003 magnetization 
 augmentation part       21.4213973 magnetization 

 Broyden mixing:
  rms(total) = 0.32264E+00    rms(broyden)= 0.32250E+00
  rms(prec ) = 0.46674E+00
  weight for this iteration     100.00

 eigenvalues of (default mixing * dielectric matrix)
  average eigenvalue GAMMA=   1.1141
  1.8212  1.8212  0.4678  0.3464

 Free energy of the ion-electron system (eV)
  ---------------------------------------------------
  alpha Z        PSCENC =      1684.34946387
  Ewald energy   TEWEN  =    -22682.54205248
  -Hartree energ DENC   =     -7242.23416199
  -exchange      EXHF   =         0.00000000
  -V(xc)+E(xc)   XCENC  =         0.56428563
  PAW double counting   =     35876.00426245   -34368.84951906
  entropy T*S    EENTRO =         0.00747002
  eigenvalues    EBANDS =     -3066.10624648
  atomic energy  EATOM  =     29433.62331934
  Solvation  Ediel_sol  =         0.00000000
  ---------------------------------------------------
  free energy    TOTEN  =      -365.18317870 eV

  energy without entropy =     -365.19064872  energy(sigma->0) =     -365.18566871


--------------------------------------------------------------------------------------------------------




----------------------------------------- Iteration    1(  10)  ---------------------------------------


    POTLOK:  cpu time    0.0278: real time    0.0288
    SETDIJ:  cpu time    0.0138: real time    0.0140
    EDDIAG:  cpu time    0.0888: real time    0.0915
  RMM-DIIS:  cpu time    1.5556: real time    1.6056
    ORTHCH:  cpu time    0.0135: real time    0.0139
       DOS:  cpu time    0.0036: real time    0.0037
    CHARGE:  cpu time    0.0353: real time    0.0360
    MIXING:  cpu time    0.0014: real time    0.0014
    --------------------------------------------
      LOOP:  cpu time    1.7403: real time    1.8427

 eigenvalue-minimisations  :  8069
 total energy-change (2. order) : 0.5904534E-01  (-0.6086496E-01)
 number of electron     317.0000003 magnetization 
 augmentation part       21.3090552 magnetization 

 Broyden mixing:
  rms(total) = 0.17131E+00    rms(broyden)= 0.17121E+00
  rms(prec ) = 0.30662E+00
  weight for this iteration     100.00

 eigenvalues of (default mixing * dielectric matrix)
  average eigenvalue GAMMA=   1.0568
  1.9895  1.8537  0.6574  0.3440  0.4394

 Free energy of the ion-electron system (eV)
  ---------------------------------------------------
  alpha Z        PSCENC =      1684.34946387
  Ewald energy   TEWEN  =    -22682.54205248
  -Hartree energ DENC   =     -7260.67988933
  -exchange      EXHF   =         0.00000000
  -V(xc)+E(xc)   XCENC  =         1.76140431
  PAW double counting   =     36138.04418134   -34622.49735803
  entropy T*S    EENTRO =         0.00787794
  eigenvalues    EBANDS =     -3057.19108032
  atomic energy  EATOM  =     29433.62331934
  Solvation  Ediel_sol  =         0.00000000
  ---------------------------------------------------
  free energy    TOTEN  =      -365.12413335 eV

  energy without entropy =     -365.13201129  energy(sigma->0) =     -365.12675933


--------------------------------------------------------------------------------------------------------




----------------------------------------- Iteration    1(  11)  ---------------------------------------


    POTLOK:  cpu time    0.0285: real time    0.0295
    SETDIJ:  cpu time    0.0082: real time    0.0083
    EDDIAG:  cpu time    0.2068: real time    0.2134
  RMM-DIIS:  cpu time    0.8475: real time    0.9349
    ORTHCH:  cpu time    0.0153: real time    0.0484
       DOS:  cpu time    0.0102: real time    0.0103
    CHARGE:  cpu time    0.0328: real time    0.0340
    MIXING:  cpu time    0.0014: real time    0.0014
    --------------------------------------------
      LOOP:  cpu time    1.1512: real time    1.3200

 eigenvalue-minimisations  :  7928
 total energy-change (2. order) : 0.6171862E-01  (-0.1440316E-01)
 number of electron     317.0000003 magnetization 
 augmentation part       21.2678695 magnetization 

 Broyden mixing:
  rms(total) = 0.71985E-01    rms(broyden)= 0.71904E-01
  rms(prec ) = 0.11182E+00
  weight for this iteration     100.00

 eigenvalues of (default mixing * dielectric matrix)
  average eigenvalue GAMMA=   1.0594
  2.2057  1.7917  1.0976  0.5013  0.3373  0.4226

 Free energy of the ion-electron system (eV)
  ---------------------------------------------------
  alpha Z        PSCENC =      1684.34946387
  Ewald energy   TEWEN  =    -22682.54205248
  -Hartree energ DENC   =     -7267.27683035
  -exchange      EXHF   =         0.00000000
  -V(xc)+E(xc)   XCENC  =         2.25856668
  PAW double counting   =     36301.77616317   -34781.99086399
  entropy T*S    EENTRO =         0.00791786
  eigenvalues    EBANDS =     -3055.26809883
  atomic energy  EATOM  =     29433.62331934
  Solvation  Ediel_sol  =         0.00000000
  ---------------------------------------------------
  free energy    TOTEN  =      -365.06241473 eV

  energy without entropy =     -365.07033259  energy(sigma->0) =     -365.06505402


--------------------------------------------------------------------------------------------------------




----------------------------------------- Iteration    1(  12)  ---------------------------------------


    POTLOK:  cpu time    0.0279: real time    0.0331
    SETDIJ:  cpu time    0.0036: real time    0.0036
    EDDIAG:  cpu time    0.1186: real time    0.1258
  RMM-DIIS:  cpu time    0.9942: real time    1.0487
    ORTHCH:  cpu time    0.0143: real time    0.0147
       DOS:  cpu time    0.0021: real time    0.0022
    CHARGE:  cpu time    0.0397: real time    0.0405
    MIXING:  cpu time    0.0015: real time    0.0015
    --------------------------------------------
      LOOP:  cpu time    1.2024: real time    1.3055

 eigenvalue-minimisations  :  8099
 total energy-change (2. order) :-0.5146249E-03  (-0.6290538E-02)
 number of electron     317.0000003 magnetization 
 augmentation part       21.2624324 magnetization 

 Broyden mixing:
  rms(total) = 0.42448E-01    rms(broyden)= 0.42425E-01
  rms(prec ) = 0.81847E-01
  weight for this iteration     100.00

 eigenvalues of (default mixing * dielectric matrix)
  average eigenvalue GAMMA=   1.0296
  2.2711  1.8064  1.2869  0.5925  0.3336  0.4941  0.4228

 Free energy of the ion-electron system (eV)
  ---------------------------------------------------
  alpha Z        PSCENC =      1684.34946387
  Ewald energy   TEWEN  =    -22682.54205248
  -Hartree energ DENC   =     -7270.00749826
  -exchange      EXHF   =         0.00000000
  -V(xc)+E(xc)   XCENC  =         2.44531411
  PAW double counting   =     36423.52980547   -34901.46956994
  entropy T*S    EENTRO =         0.00747989
  eigenvalues    EBANDS =     -3054.99919135
  atomic energy  EATOM  =     29433.62331934
  Solvation  Ediel_sol  =         0.00000000
  ---------------------------------------------------
  free energy    TOTEN  =      -365.06292936 eV

  energy without entropy =     -365.07040924  energy(sigma->0) =     -365.06542265


--------------------------------------------------------------------------------------------------------




----------------------------------------- Iteration    1(  13)  ---------------------------------------


    POTLOK:  cpu time    0.0278: real time    0.0287
    SETDIJ:  cpu time    0.0036: real time    0.0036
    EDDIAG:  cpu time    0.0990: real time    0.1004
  RMM-DIIS:  cpu time    0.8930: real time    0.9308
    ORTHCH:  cpu time    0.0136: real time    0.0142
       DOS:  cpu time    0.0048: real time    0.0049
    CHARGE:  cpu time    0.0323: real time    0.0331
    MIXING:  cpu time    0.0014: real time    0.0015
    --------------------------------------------
      LOOP:  cpu time    1.0761: real time    1.1545

 eigenvalue-minimisations  :  8159
 total energy-change (2. order) : 0.2475244E-02  (-0.1720242E-02)
 number of electron     317.0000003 magnetization 
 augmentation part       21.2607262 magnetization 

 Broyden mixing:
  rms(total) = 0.25888E-01    rms(broyden)= 0.25874E-01
  rms(prec ) = 0.41076E-01
  weight for this iteration     100.00

 eigenvalues of (default mixing * dielectric matrix)
  average eigenvalue GAMMA=   1.0337
  2.2918  1.9042  1.4564  0.9218  0.5282  0.4582  0.3357  0.3736

 Free energy of the ion-electron system (eV)
  ---------------------------------------------------
  alpha Z        PSCENC =      1684.34946387
  Ewald energy   TEWEN  =    -22682.54205248
  -Hartree energ DENC   =     -7270.11950773
  -exchange      EXHF   =         0.00000000
  -V(xc)+E(xc)   XCENC  =         2.47343622
  PAW double counting   =     36479.07439381   -34956.05528338
  entropy T*S    EENTRO =         0.00756511
  eigenvalues    EBANDS =     -3055.87178888
  atomic energy  EATOM  =     29433.62331934
  Solvation  Ediel_sol  =         0.00000000
  ---------------------------------------------------
  free energy    TOTEN  =      -365.06045411 eV

  energy without entropy =     -365.06801922  energy(sigma->0) =     -365.06297581


--------------------------------------------------------------------------------------------------------




----------------------------------------- Iteration    1(  14)  ---------------------------------------


    POTLOK:  cpu time    0.0282: real time    0.0291
    SETDIJ:  cpu time    0.0036: real time    0.0036
    EDDIAG:  cpu time    0.1126: real time    0.1139
  RMM-DIIS:  cpu time    0.9714: real time    0.9796
    ORTHCH:  cpu time    0.0139: real time    0.0460
       DOS:  cpu time    0.0009: real time    0.0014
    CHARGE:  cpu time    0.0339: real time    0.0571
    MIXING:  cpu time    0.0016: real time    0.0024
    --------------------------------------------
      LOOP:  cpu time    1.1667: real time    1.3102

 eigenvalue-minimisations  :  8466
 total energy-change (2. order) :-0.3481593E-04  (-0.7442068E-03)
 number of electron     317.0000003 magnetization 
 augmentation part       21.2616189 magnetization 

 Broyden mixing:
  rms(total) = 0.16645E-01    rms(broyden)= 0.16639E-01
  rms(prec ) = 0.25649E-01
  weight for this iteration     100.00

 eigenvalues of (default mixing * dielectric matrix)
  average eigenvalue GAMMA=   1.0453
  2.4611  2.0908  1.4162  1.2563  0.5299  0.5299  0.4241  0.3343  0.3654

 Free energy of the ion-electron system (eV)
  ---------------------------------------------------
  alpha Z        PSCENC =      1684.34946387
  Ewald energy   TEWEN  =    -22682.54205248
  -Hartree energ DENC   =     -7270.19852374
  -exchange      EXHF   =         0.00000000
  -V(xc)+E(xc)   XCENC  =         2.47190280
  PAW double counting   =     36511.10160809   -34987.55310276
  entropy T*S    EENTRO =         0.00772133
  eigenvalues    EBANDS =     -3056.32082539
  atomic energy  EATOM  =     29433.62331934
  Solvation  Ediel_sol  =         0.00000000
  ---------------------------------------------------
  free energy    TOTEN  =      -365.06048893 eV

  energy without entropy =     -365.06821026  energy(sigma->0) =     -365.06306270


--------------------------------------------------------------------------------------------------------




----------------------------------------- Iteration    1(  15)  ---------------------------------------


    POTLOK:  cpu time    0.0410: real time    0.0466
    SETDIJ:  cpu time    0.1213: real time    0.1237
    EDDIAG:  cpu time    0.0953: real time    0.0967
  RMM-DIIS:  cpu time    0.9092: real time    0.9187
    ORTHCH:  cpu time    0.0148: real time    0.0149
       DOS:  cpu time    0.0016: real time    0.0016
    CHARGE:  cpu time    0.0313: real time    0.0328
    MIXING:  cpu time    0.0020: real time    0.0020
    --------------------------------------------
      LOOP:  cpu time    1.2170: real time    1.2776

 eigenvalue-minimisations  :  8107
 total energy-change (2. order) : 0.4391752E-04  (-0.3181235E-03)
 number of electron     317.0000003 magnetization 
 augmentation part       21.2600312 magnetization 

 Broyden mixing:
  rms(total) = 0.80344E-02    rms(broyden)= 0.80277E-02
  rms(prec ) = 0.12966E-01
  weight for this iteration     100.00

 eigenvalues of (default mixing * dielectric matrix)
  average eigenvalue GAMMA=   1.0340
  2.5378  2.1825  1.6130  1.1803  0.6427  0.6427  0.4587  0.4017  0.3340  0.3463

 Free energy of the ion-electron system (eV)
  ---------------------------------------------------
  alpha Z        PSCENC =      1684.34946387
  Ewald energy   TEWEN  =    -22682.54205248
  -Hartree energ DENC   =     -7270.88459466
  -exchange      EXHF   =         0.00000000
  -V(xc)+E(xc)   XCENC  =         2.49548903
  PAW double counting   =     36532.97092004   -35008.93681340
  entropy T*S    EENTRO =         0.00763057
  eigenvalues    EBANDS =     -3056.14380733
  atomic energy  EATOM  =     29433.62331934
  Solvation  Ediel_sol  =         0.00000000
  ---------------------------------------------------
  free energy    TOTEN  =      -365.06044501 eV

  energy without entropy =     -365.06807558  energy(sigma->0) =     -365.06298853


--------------------------------------------------------------------------------------------------------




----------------------------------------- Iteration    1(  16)  ---------------------------------------


    POTLOK:  cpu time    0.0287: real time    0.0304
    SETDIJ:  cpu time    0.1799: real time    0.1829
    EDDIAG:  cpu time    0.0980: real time    0.1001
  RMM-DIIS:  cpu time    0.8341: real time    0.8656
    ORTHCH:  cpu time    0.0145: real time    0.0148
       DOS:  cpu time    0.0029: real time    0.0029
    CHARGE:  cpu time    0.0332: real time    0.0336
    MIXING:  cpu time    0.0017: real time    0.0017
    --------------------------------------------
      LOOP:  cpu time    1.1936: real time    1.2739

 eigenvalue-minimisations  :  7768
 total energy-change (2. order) :-0.1304010E-04  (-0.1244224E-03)
 number of electron     317.0000003 magnetization 
 augmentation part       21.2602844 magnetization 

 Broyden mixing:
  rms(total) = 0.34845E-02    rms(broyden)= 0.34819E-02
  rms(prec ) = 0.70584E-02
  weight for this iteration     100.00

 eigenvalues of (default mixing * dielectric matrix)
  average eigenvalue GAMMA=   1.0125
  2.5711  2.1679  1.6442  1.1284  0.9226  0.6556  0.4812  0.4812  0.4069  0.3332
  0.3446

 Free energy of the ion-electron system (eV)
  ---------------------------------------------------
  alpha Z        PSCENC =      1684.34946387
  Ewald energy   TEWEN  =    -22682.54205248
  -Hartree energ DENC   =     -7271.07134725
  -exchange      EXHF   =         0.00000000
  -V(xc)+E(xc)   XCENC  =         2.49875751
  PAW double counting   =     36547.23589965   -35022.96984029
  entropy T*S    EENTRO =         0.00769038
  eigenvalues    EBANDS =     -3056.19234878
[...]
    114       6.1178      2.00000
    115       6.1693      2.00000
    116       6.2256      2.00000
    117       6.2895      2.00000
    118       6.4512      2.00000
    119       6.4683      2.00000
    120       6.5246      2.00000
    121       6.5750      2.00000
    122       6.6042      2.00000
    123       6.6320      2.00000
    124       6.6711      2.00000
    125       6.6843      2.00000
    126       6.7378      2.00000
    127       6.7998      2.00000
    128       6.8061      2.00000
    129       6.8266      2.00000
    130       6.8512      2.00000
    131       6.8877      2.00000
    132       6.9371      2.00000
    133       6.9483      2.00000
    134       6.9791      2.00000
    135       7.0239      2.00000
    136       7.0869      2.00000
    137       7.1406      2.00000
    138       7.1596      2.00000
    139       7.2094      2.00000
    140       7.2546      2.00000
    141       7.2812      2.00000
    142       7.3231      2.00000
    143       7.3652      2.00000
    144       7.3999      2.00000
    145       7.4475      2.00000
    146       7.4735      2.00001
    147       7.5336      2.00016
    148       7.5695      2.00057
    149       7.6051      2.00180
    150       7.6172      2.00259
    151       7.6606      2.00840
    152       7.6910      2.01690
    153       7.7269      2.03340
    154       7.7582      2.05214
    155       7.7820      2.06522
    156       7.8364      2.05303
    157       7.8574      2.01301
    158       7.8916      1.87885
    159       7.9097      1.76720
    160       7.9704      1.20152
    161       8.0203      0.64995
    162       8.0461      0.39951
    163       8.0797      0.15270
    164       8.1100      0.01460
    165       8.1270     -0.03047
    166       8.1645     -0.07005
    167       8.2329     -0.04342
    168       8.2613     -0.02741
    169       8.3019     -0.01183
    170       8.3380     -0.00478
    171       8.3642     -0.00227
    172       8.4024     -0.00067
    173       8.4691     -0.00006
    174       8.5003     -0.00002
    175       8.5174     -0.00001
    176       8.6036     -0.00000
    177       8.6720     -0.00000
    178       8.7433     -0.00000
    179       8.8694     -0.00000
    180       8.8981     -0.00000
    181       9.0358     -0.00000
    182       9.1940     -0.00000
    183       9.2932     -0.00000
    184       9.8326     -0.00000
    185       9.8705     -0.00000
    186       9.9416     -0.00000
    187      10.0061     -0.00000
    188      10.0993     -0.00000
    189      10.1581     -0.00000
    190      10.2304     -0.00000
    191      10.2555     -0.00000
    192      10.3091     -0.00000


--------------------------------------------------------------------------------------------------------


 soft charge-density along one line, spin component           1
         0         1         2         3         4         5         6         7         8         9
 total charge-density along one line
 
 pseudopotential strength for first ion, spin component:           1
  5.770 -20.766   0.000   0.001  -0.000  -0.000  -0.004   0.000
-20.766   9.640   0.000   0.003  -0.000   0.000  -0.000  -0.000
  0.000   0.000 -10.127   0.002  -0.000   6.432  -0.002   0.000
  0.001   0.003   0.002 -10.131  -0.002  -0.002   6.438   0.002
 -0.000  -0.000  -0.000  -0.002 -10.128   0.000   0.002   6.434
 -0.000   0.000   6.432  -0.002   0.000   7.672   0.001  -0.000
 -0.004  -0.000  -0.002   6.438   0.002   0.001   7.668  -0.001
  0.000  -0.000   0.000   0.002   6.434  -0.000  -0.001   7.671
 -0.000  -0.000   0.000  -0.000  -0.000  -0.000  -0.000   0.000
  0.002   0.001   0.002   0.001  -0.000  -0.003  -0.000  -0.000
 -0.001  -0.001   0.001   0.001  -0.000  -0.000  -0.002   0.000
 -0.001  -0.001  -0.000  -0.001   0.002  -0.000  -0.000  -0.003
 -0.000  -0.000  -0.000   0.000  -0.000   0.000  -0.000  -0.000
 -0.000  -0.000   0.000  -0.000  -0.000  -0.000  -0.000   0.000
  0.002   0.001   0.002   0.001  -0.000  -0.003  -0.000  -0.000
 -0.002  -0.001   0.001   0.001  -0.000  -0.000  -0.002   0.000
 -0.002  -0.001  -0.000  -0.001   0.003  -0.000  -0.000  -0.003
 -0.000  -0.000  -0.000   0.000  -0.000   0.000  -0.000  -0.000
 total augmentation occupancy for first ion, spin component:           1
  1.998  -0.031   0.000  -0.000  -0.000   0.000  -0.000  -0.001  -0.001   0.011   0.000  -0.002   0.001   0.001  -0.009   0.000
 -0.031   1.404   0.002  -0.004  -0.005  -0.004   0.006   0.009  -0.017   0.073   0.050  -0.026   0.019   0.011  -0.030  -0.022
  0.000   0.002   1.997  -0.000   0.000  -0.025   0.002   0.000  -0.009  -0.009   0.001  -0.002  -0.001   0.006   0.006   0.000
 -0.000  -0.004  -0.000   1.997   0.000   0.002  -0.024   0.000  -0.000   0.006   0.002  -0.017   0.000   0.000  -0.002  -0.002
 -0.000  -0.005   0.000   0.000   1.997   0.000   0.000  -0.024   0.001  -0.000   0.003  -0.008  -0.010  -0.001   0.000  -0.003
  0.000  -0.004  -0.025   0.002   0.000   0.058  -0.001  -0.000   0.005  -0.001  -0.007   0.007   0.002  -0.002   0.001   0.003
 -0.000   0.006   0.002  -0.024   0.000  -0.001   0.057  -0.000   0.002  -0.016  -0.001   0.028  -0.000  -0.002   0.005   0.003
 -0.001   0.009   0.000   0.000  -0.024  -0.000  -0.000   0.056   0.004   0.003   0.004  -0.005   0.011  -0.001  -0.001  -0.000
 -0.001  -0.017  -0.009  -0.000   0.001   0.005   0.002   0.004   2.616  -0.095   0.013   0.105   0.000  -0.946   0.040  -0.007
  0.011   0.073  -0.009   0.006  -0.000  -0.001  -0.016   0.003  -0.095   2.584   0.025  -0.024  -0.055   0.040  -0.946  -0.018
  0.000   0.050   0.001   0.002   0.003  -0.007  -0.001   0.004   0.013   0.025   2.164  -0.004  -0.024  -0.007  -0.018  -0.863
 -0.002  -0.026  -0.002  -0.017  -0.008   0.007   0.028  -0.005   0.105  -0.024  -0.004   2.470   0.003  -0.036   0.013   0.006
  0.001   0.019  -0.001   0.000  -0.010   0.002  -0.000   0.011   0.000  -0.055  -0.024   0.003   2.054   0.001   0.032   0.002
  0.001   0.011   0.006   0.000  -0.001  -0.002  -0.002  -0.001  -0.946   0.040  -0.007  -0.036   0.001   0.355  -0.016   0.003
 -0.009  -0.030   0.006  -0.002   0.000   0.001   0.005  -0.001   0.040  -0.946  -0.018   0.013   0.032  -0.016   0.359   0.010
  0.000  -0.022   0.000  -0.002  -0.003   0.003   0.003  -0.000  -0.007  -0.018  -0.863   0.006   0.002   0.003   0.010   0.352
  0.002   0.017   0.000   0.009   0.006  -0.002  -0.010   0.002  -0.036   0.014   0.006  -0.903   0.007   0.013  -0.007  -0.004
 -0.000  -0.002   0.001  -0.000   0.006  -0.000   0.000  -0.005   0.001   0.032   0.002   0.007  -0.819  -0.000  -0.016   0.003


------------------------ aborting loop because EDIFF is reached ----------------------------------------


    CHARGE:  cpu time    0.0300: real time    0.0306
    FORLOC:  cpu time    0.0133: real time    0.0135
    FORNL :  cpu time    0.3257: real time    0.3344
    STRESS:  cpu time    0.9934: real time    1.0034
    FORCOR:  cpu time    0.0426: real time    0.0427
    FORHAR:  cpu time    0.0182: real time    0.0182
    MIXING:  cpu time    0.0014: real time    0.0014
    OFIELD:  cpu time    0.0000: real time    0.0000

  FORCE on cell =-STRESS in cart. coord.  units (eV):
  Direction    XX          YY          ZZ          XY          YZ          ZX
  --------------------------------------------------------------------------------------
  Alpha Z  1696.25749  1696.25749  1696.25749
  Ewald   -6785.32869 -8460.62923 -7352.02897   276.18331   -54.09603  -268.63480
  Hartree  3163.15353  1570.44128  2661.47855   245.54709   -72.59572  -223.17028
  E(xc)   -1397.63386 -1397.98288 -1398.13137    -0.22056     0.51576     0.43644
  Local   -2130.54353  1133.99679 -1064.59699  -522.40660   125.20087   493.70396
  n-local  -307.41138  -306.55097  -309.05933     0.74924    -4.11783     0.57647
  augment   275.90084   276.06671   276.08931    -0.15123     0.62360    -0.17725
  Kinetic  5485.90987  5488.69003  5490.29972     0.29108     4.48874    -2.74238
  Fock        0.00000     0.00000     0.00000     0.00000     0.00000     0.00000
  -------------------------------------------------------------------------------------
  Total       0.30426     0.28921     0.30840    -0.00767     0.01938    -0.00785
  in kB       0.68475     0.65087     0.69407    -0.01726     0.04361    -0.01767
  external pressure =        0.68 kB  Pullay stress =        0.00 kB


 VOLUME and BASIS-vectors are now :
 -----------------------------------------------------------------------------
  energy-cutoff  :      300.00
  volume of cell :      711.92
      direct lattice vectors                 reciprocal lattice vectors
     6.882488394 -0.002570027  0.020685432     0.145297575  0.000048642 -0.000422811
    -0.003485033 10.192877934 -0.024975371     0.000035884  0.098108343  0.000249971
     0.029539805 -0.025867663 10.148290154    -0.000296074  0.000241350  0.098540244

  length of vectors
     6.882519959 10.192909128 10.148366114     0.145298198  0.098108668  0.098540984


 FORCES acting on ions
    electron-ion (+dipol)            ewald-force                    non-local-force                 convergence-correction
 -----------------------------------------------------------------------------------------------
   0.473E+02 0.709E+01 0.106E+03   -.467E+02 -.732E+01 -.106E+03   -.642E+00 0.220E+00 -.498E+00   -.720E-03 0.876E-02 0.629E-02
   0.139E+02 -.874E+02 -.151E+03   -.150E+02 0.869E+02 0.151E+03   0.112E+01 0.504E+00 0.101E+00   -.101E-02 -.686E-02 -.102E-01
   0.148E+03 0.147E+02 0.979E+02   -.147E+03 -.154E+02 -.974E+02   -.114E+01 0.680E+00 -.439E+00   -.461E-02 -.752E-02 -.118E-01
   -.541E+02 0.237E+03 -.138E+03   0.544E+02 -.237E+03 0.138E+03   -.233E+00 0.582E+00 0.308E+00   0.286E-02 -.809E-03 0.283E-01
   0.519E+02 0.228E+03 -.179E+03   -.521E+02 -.229E+03 0.179E+03   0.240E+00 0.717E+00 -.919E-01   -.321E-02 -.104E-02 0.318E-01
   -.292E+02 0.338E+03 0.886E+02   0.287E+02 -.339E+03 -.873E+02   0.590E+00 0.318E+00 -.133E+01   -.201E-02 -.117E-01 0.986E-02
   -.150E+02 -.288E+03 -.837E+02   0.149E+02 0.289E+03 0.830E+02   0.673E-01 -.859E+00 0.668E+00   -.104E-02 0.967E-02 0.300E-01
   0.166E+02 -.314E+03 0.384E+02   -.165E+02 0.315E+03 -.395E+02   -.930E-01 -.785E+00 0.111E+01   0.393E-03 0.110E-01 0.236E-01
   -.132E+02 -.156E+03 -.787E+02   0.129E+02 0.157E+03 0.796E+02   0.240E+00 -.482E+00 -.894E+00   0.258E-02 0.109E-02 -.901E-02
   -.747E+02 0.138E+03 -.185E+03   0.742E+02 -.138E+03 0.184E+03   0.457E+00 -.279E+00 0.632E+00   0.611E-02 -.134E-02 0.207E-01
   -.151E+02 -.334E+03 0.110E+03   0.146E+02 0.334E+03 -.110E+03   0.463E+00 -.440E-01 -.249E+00   0.386E-03 0.615E-02 -.198E-01
   0.197E+00 0.140E+03 0.112E+03   -.180E+00 -.141E+03 -.112E+03   -.189E-01 0.173E+00 0.888E-01   0.140E-03 0.202E-02 -.323E-01
   0.626E+02 -.147E+03 0.651E+02   -.621E+02 0.147E+03 -.646E+02   -.583E+00 -.960E-02 -.509E+00   -.930E-03 0.620E-03 0.345E-02
   -.226E+02 -.793E+02 -.411E+02   0.224E+02 0.795E+02 0.407E+02   0.185E+00 -.271E+00 0.348E+00   -.144E-04 -.246E-02 -.900E-02
   -.614E+02 -.119E+03 0.404E+02   0.607E+02 0.119E+03 -.397E+02   0.703E+00 0.127E+00 -.638E+00   0.971E-03 0.228E-03 0.453E-02
   -.829E+01 0.762E+02 -.149E+02   0.924E+01 -.764E+02 0.150E+02   -.947E+00 0.175E+00 -.114E+00   0.218E-02 0.246E-02 -.248E-02
   -.141E+02 0.143E+02 -.752E+01   0.146E+02 -.145E+02 0.755E+01   -.447E+00 0.239E+00 -.387E-01   0.425E-03 -.312E-02 0.925E-02
   0.328E+02 -.113E+03 0.504E+01   -.327E+02 0.113E+03 -.533E+01   -.118E+00 -.689E+00 0.282E+00   -.166E-02 -.289E-03 0.523E-02
   0.898E+01 0.204E+02 0.513E+02   -.930E+01 -.206E+02 -.517E+02   0.323E+00 0.184E+00 0.384E+00   -.453E-03 -.373E-02 0.778E-02
   0.542E+01 -.464E+02 -.313E+02   -.484E+01 0.459E+02 0.311E+02   -.583E+00 0.494E+00 0.238E+00   -.237E-03 -.234E-02 -.385E-02
   0.122E+02 0.142E+03 0.828E+02   -.130E+02 -.142E+03 -.829E+02   0.745E+00 -.433E+00 0.117E+00   -.730E-03 0.579E-04 -.849E-02
   -.629E+02 0.296E+03 0.176E+03   0.641E+02 -.296E+03 -.176E+03   -.126E+01 -.290E+00 -.138E+00   0.277E-02 0.163E-02 -.203E-01
   0.135E+02 0.118E+03 -.217E+03   -.128E+02 -.118E+03 0.217E+03   -.681E+00 0.308E+00 0.339E+00   -.311E-02 0.567E-02 0.246E-01
   0.643E+01 0.120E+03 0.552E+02   -.644E+01 -.120E+03 -.551E+02   0.128E-01 -.881E-01 -.856E-01   -.326E-03 0.380E-02 -.250E-01
   -.486E+02 -.350E+02 0.162E+03   0.480E+02 0.353E+02 -.161E+03   0.641E+00 -.302E+00 -.307E+00   0.101E-02 0.944E-02 0.203E-02
   0.137E+02 -.151E+03 -.329E+02   -.134E+02 0.152E+03 0.332E+02   -.318E+00 -.529E+00 -.262E+00   -.295E-02 0.605E-03 -.884E-02
   0.510E+02 0.793E+02 0.922E+02   -.513E+02 -.796E+02 -.929E+02   0.278E+00 0.351E+00 0.737E+00   -.393E-02 0.257E-02 -.244E-01
   -.578E+02 -.226E+03 -.218E+02   0.575E+02 0.226E+03 0.216E+02   0.374E+00 -.117E+00 0.187E+00   0.431E-02 -.456E-02 0.143E-01
   0.221E+02 -.898E+02 -.409E+02   -.219E+02 0.897E+02 0.406E+02   -.238E+00 0.286E-01 0.326E+00   0.461E-04 -.148E-02 -.676E-02
   -.118E+02 0.340E+02 -.803E+02   0.113E+02 -.341E+02 0.800E+02   0.424E+00 0.142E+00 0.266E+00   0.109E-02 0.190E-02 0.810E-02
   0.944E+01 -.130E+03 0.234E+02   -.904E+01 0.130E+03 -.233E+02   -.396E+00 -.298E+00 -.125E+00   -.101E-03 0.182E-02 -.511E-02
   -.680E+02 0.347E+02 0.172E+02   0.673E+02 -.351E+02 -.167E+02   0.707E+00 0.490E+00 -.465E+00   0.104E-02 -.269E-02 -.278E-02
   0.207E+02 0.109E+03 0.585E+02   -.201E+02 -.109E+03 -.580E+02   -.572E+00 -.696E-02 -.516E+00   0.222E-03 -.291E-02 0.155E-02
   -.210E+01 0.743E+02 -.223E+02   0.929E+00 -.743E+02 0.222E+02   0.117E+01 -.502E-01 0.108E+00   -.107E-02 0.154E-02 -.171E-02
   0.306E+02 0.524E+02 -.583E+02   -.303E+02 -.529E+02 0.579E+02   -.310E+00 0.513E+00 0.361E+00   -.151E-02 -.174E-02 0.524E-02
   -.840E+01 0.410E+02 0.129E+01   0.852E+01 -.410E+02 -.133E+01   -.122E+00 0.217E-02 0.511E-01   0.828E-03 0.310E-03 -.705E-02
 -----------------------------------------------------------------------------------------------
   -.478E-01 -.732E+00 0.206E-01   -.764E-13 -.661E-12 0.111E-12   0.484E-01 0.715E+00 -.489E-01   -.227E-02 0.167E-01 0.277E-01
 
 
 POSITION                                       TOTAL-FORCE (eV/Angst)
 -----------------------------------------------------------------------------------
      1.77715      1.72129      1.78517        -0.004249     -0.000221      0.003047
      6.81720      6.73123      6.73593         0.000645      0.001955     -0.000444
      3.65465      6.72134      0.07487        -0.003939     -0.001421     -0.002351
      0.02760     10.05527      3.26339        -0.002344      0.004665     -0.002602
      3.42180     10.09262      3.39676         0.000558      0.002828     -0.001745
      5.07071      8.50839      1.83089         0.000089      0.002906     -0.002761
      3.43796      3.47707      3.35098        -0.003457     -0.002014      0.001580
      6.87963      3.50729      3.18614         0.000979     -0.005128      0.002776
      6.87247      3.41410      6.94756        -0.001378      0.001770     -0.000696
      1.68280      8.44180      4.97794         0.001819      0.001562     -0.004430
      3.36243      3.37150     -0.00398         0.001061     -0.004434      0.002033
      1.73555      1.74468      8.45347        -0.001482      0.001131     -0.000098
      1.82770      5.13056      1.70977        -0.001069      0.000893      0.001245
      5.15369      5.08506      8.42541         0.001577     -0.000129      0.000538
      5.03430      5.03231      1.80130         0.001783     -0.000504     -0.001132
      0.26064     10.15563      6.74817        -0.001588     -0.003689     -0.000332
      3.48124      6.77545      3.46654        -0.001394     -0.001474     -0.000241
      5.25590      5.13749      5.04313         0.001050     -0.005088     -0.001168
      6.86451      6.77256      3.32355         0.002053      0.000103     -0.001708
      3.58417      6.67450      6.64355        -0.003300      0.003506     -0.000875
      3.26548      0.12438      0.01546         0.001101      0.001509      0.003335
      0.12454      0.05404      0.05236        -0.000200      0.000387      0.003575
      5.29329      1.66430      5.02607        -0.001706      0.002735      0.000853
      5.17217      1.63662      8.45686         0.001642     -0.000751      0.003289
      5.07457      1.69708      1.74380         0.002625      0.000364      0.000113
      3.49501      3.42586      6.73624         0.002097     -0.003667     -0.002492
      5.17087      8.50470      8.38334        -0.000389     -0.000426     -0.000020
      1.64685      5.05340      5.05543         0.001018     -0.004054     -0.000592
      1.79008      5.20218      8.48734        -0.000563      0.001288      0.002351
      1.60595      1.74334      4.92056         0.001280      0.001788     -0.001491
      0.02876      3.43713      0.02646         0.002146      0.001647      0.001412
      6.68629      6.72700      0.17755         0.002206     -0.000323      0.002997
      1.83290      8.40523      1.66396        -0.001088      0.001791      0.000263
      3.24781      0.00499      6.69350         0.002345     -0.000895     -0.003151
      5.25107      8.48136      5.07536        -0.000304     -0.000399     -0.001406
      1.81856      8.32453      8.48261         0.000375      0.001789      0.000328
 -----------------------------------------------------------------------------------
    total drift:                               -0.001727      0.000016     -0.000626


--------------------------------------------------------------------------------------------------------



  FREE ENERGIE OF THE ION-ELECTRON SYSTEM (eV)
  ---------------------------------------------------
  free  energy   TOTEN  =      -365.24604263 eV

  energy  without entropy=     -365.25532971  energy(sigma->0) =     -365.24913832
 
 d Force = 0.7709642E-04[ 0.284E-04, 0.126E-03]  d Energy =-0.1011222E-04 0.872E-04
 d Force =-0.7089836E+00[-0.710E+00,-0.708E+00]  d Ewald  = 0.5094796E+01-0.580E+01


--------------------------------------------------------------------------------------------------------


    POTLOK:  cpu time    0.0475: real time    0.0476


--------------------------------------------------------------------------------------------------------


 Conjugate gradient step on ions:
 trial-energy change:    0.000010  1 .order   -0.000022   -0.000243    0.000199
  (g-gl).g = 0.118E-04      g.g   = 0.533E-04  gl.gl    = 0.973E-04
 g(Force)  = 0.269E-04   g(Stress)= 0.264E-04 ortho     = 0.746E-05
 gamma     =   0.12164
 trial     =   4.48695
 opt step  =   2.46662  (harmonic =   2.46662) maximal distance =0.00048678
 next E    =  -365.246120   (d E  =  -0.00007)


--------------------------------------------------------------------------------------------------------


  
 reached required accuracy - stopping structural energy minimisation
     LOOP+:  cpu time    9.0499: real time   10.0426
    4ORBIT:  cpu time    0.0000: real time    0.0000

 total amount of memory used by VASP on root node    68892. kBytes
========================================================================

   base      :      30000. kBytes
   nonlr-proj:      10768. kBytes
   fftplans  :       2814. kBytes
   grid      :       5360. kBytes
   one-center:        124. kBytes
   wavefun   :      19826. kBytes
 
  
  
 General timing and accounting informations for this job:
 ========================================================
  
                  Total CPU time used (sec):      313.422
                            User time (sec):      311.346
                          System time (sec):        2.076
                         Elapsed time (sec):      356.193
  
                   Maximum memory used (kb):      302052.
                   Average memory used (kb):           0.
  
                          Minor page faults:       141200
                          Major page faults:           39
                 Voluntary context switches:         9564
