<?xml version="1.0" encoding="ISO-8859-1"?>
<modeling>
 <generator>
  <i name="program" type="string">vasp </i>
  <i name="version" type="string">5.4.1  </i>
  <i name="subversion" type="string">05Feb16 (build Jan 29 2020 16:04:39) complex                          parallel </i>
  <i name="platform" type="string">IFC91_ompi </i>
  <i name="date" type="string">2020 06 15 </i>
  <i name="time" type="string">06:32:23 </i>
 </generator>
 <incar>
  <i type="string" name="SYSTEM"> automatically generated by mexm</i>
  <i type="int" name="ISTART">     0</i>
  <i type="string" name="PREC">accurate               ! avoid wrap aro</i>
  <i type="string" name="ALGO"> Fast                   ! blocked Davids</i>
  <i type="int" name="ISPIN">     1</i>
  <i type="int" name="ICHARG">     2</i>
  <i type="int" name="NELM">    70</i>
  <i type="int" name="IBRION">     2</i>
  <i name="EDIFF">      0.00001000</i>
  <i name="EDIFFG">     -0.01000000</i>
  <i type="int" name="NSW">   300</i>
  <i type="int" name="ISIF">     3</i>
  <i type="int" name="ISYM">     1</i>
  <i name="ENCUT">    300.00000000</i>
  <i name="POTIM">      0.15000000</i>
  <i type="string" name="LREAL"> Auto                  ! unpublished met</i>
  <i type="int" name="ISMEAR">     1</i>
  <i name="SIGMA">      0.15000000</i>
  <i type="logical" name="LWAVE"> F  </i>
  <i type="logical" name="LCHARG"> F  </i>
  <i type="logical" name="LVTOT"> F  </i>
  <v type="int" name="KPOINT_BSE">    -1     0     0     0</v>
  <i type="int" name="NELM">    70</i>
 </incar>
 <kpoints>
  <generation param="Gamma">
   <v type="int" name="divisions">       3        3        3 </v>
   <v name="usershift">      0.00000000       0.00000000       0.00000000 </v>
   <v name="genvec1">      0.33333333       0.00000000      -0.00000000 </v>
   <v name="genvec2">      0.00000000       0.33333333       0.00000000 </v>
   <v name="genvec3">      0.00000000       0.00000000       0.33333333 </v>
   <v name="shift">      0.00000000       0.00000000       0.00000000 </v>
  </generation>
  <varray name="kpointlist" >
   <v>       0.00000000       0.00000000       0.00000000 </v>
   <v>       0.33333333      -0.00000000       0.00000000 </v>
   <v>      -0.00000000       0.33333333      -0.00000000 </v>
   <v>       0.33333333       0.33333333       0.00000000 </v>
   <v>      -0.33333333       0.33333333      -0.00000000 </v>
   <v>      -0.00000000       0.00000000       0.33333333 </v>
   <v>       0.33333333       0.00000000       0.33333333 </v>
   <v>      -0.33333333       0.00000000       0.33333333 </v>
   <v>       0.00000000       0.33333333       0.33333333 </v>
   <v>       0.33333333       0.33333333       0.33333333 </v>
   <v>      -0.33333333       0.33333333       0.33333333 </v>
   <v>       0.00000000      -0.33333333       0.33333333 </v>
   <v>       0.33333333      -0.33333333       0.33333333 </v>
   <v>      -0.33333333      -0.33333333       0.33333333 </v>
  </varray>
  <varray name="weights" >
   <v>       0.03703704 </v>
   <v>       0.07407407 </v>
   <v>       0.07407407 </v>
   <v>       0.07407407 </v>
   <v>       0.07407407 </v>
   <v>       0.07407407 </v>
   <v>       0.07407407 </v>
   <v>       0.07407407 </v>
   <v>       0.07407407 </v>
   <v>       0.07407407 </v>
   <v>       0.07407407 </v>
   <v>       0.07407407 </v>
   <v>       0.07407407 </v>
   <v>       0.07407407 </v>
  </varray>
 </kpoints>
 <parameters>
  <separator name="general" >
   <i type="string" name="SYSTEM">automatically generated by mexm</i>
   <i type="logical" name="LCOMPAT"> F  </i>
  </separator>
  <separator name="electronic" >
   <i type="string" name="PREC">accura</i>
   <i name="ENMAX">    300.00000000</i>
   <i name="ENAUG">    461.25700000</i>
   <i name="EDIFF">      0.00001000</i>
   <i type="int" name="IALGO">    68</i>
   <i type="int" name="IWAVPR">    11</i>
   <i type="int" name="NBANDS">   172</i>
   <i name="NELECT">    284.00000000</i>
   <i type="int" name="TURBO">     0</i>
   <i type="int" name="IRESTART">     0</i>
   <i type="int" name="NREBOOT">     0</i>
   <i type="int" name="NMIN">     0</i>
   <i name="EREF">      0.00000000</i>
   <separator name="electronic smearing" >
    <i type="int" name="ISMEAR">     1</i>
    <i name="SIGMA">      0.15000000</i>
    <i name="KSPACING">      0.50000000</i>
    <i type="logical" name="KGAMMA"> T  </i>
   </separator>
   <separator name="electronic projectors" >
    <i type="logical" name="LREAL"> T  </i>
    <v name="ROPT">     -0.00025000     -0.00025000     -0.00025000     -0.00025000</v>
    <i type="int" name="LMAXPAW">  -100</i>
    <i type="int" name="LMAXMIX">     2</i>
    <i type="logical" name="NLSPLINE"> F  </i>
   </separator>
   <separator name="electronic startup" >
    <i type="int" name="ISTART">     0</i>
    <i type="int" name="ICHARG">     2</i>
    <i type="int" name="INIWAV">     1</i>
   </separator>
   <separator name="electronic spin" >
    <i type="int" name="ISPIN">     1</i>
    <i type="logical" name="LNONCOLLINEAR"> F  </i>
    <v name="MAGMOM">      1.00000000      1.00000000      1.00000000      1.00000000      1.00000000      1.00000000      1.00000000      1.00000000      1.00000000      1.00000000      1.00000000      1.00000000      1.00000000      1.00000000      1.00000000      1.00000000      1.00000000      1.00000000      1.00000000      1.00000000
      1.00000000      1.00000000      1.00000000      1.00000000      1.00000000      1.00000000      1.00000000      1.00000000      1.00000000      1.00000000      1.00000000      1.00000000      1.00000000      1.00000000      1.00000000      1.00000000</v>
    <i name="NUPDOWN">     -1.00000000</i>
    <i type="logical" name="LSORBIT"> F  </i>
    <v name="SAXIS">      0.00000000      0.00000000      1.00000000</v>
    <i type="logical" name="LSPIRAL"> F  </i>
    <v name="QSPIRAL">      0.00000000      0.00000000      0.00000000</v>
    <i type="logical" name="LZEROZ"> F  </i>
   </separator>
   <separator name="electronic exchange-correlation" >
    <i type="logical" name="LASPH"> F  </i>
    <i type="logical" name="LMETAGGA"> F  </i>
   </separator>
   <separator name="electronic convergence" >
    <i type="int" name="NELM">    70</i>
    <i type="int" name="NELMDL">    -5</i>
    <i type="int" name="NELMIN">     2</i>
    <i name="ENINI">    300.00000000</i>
    <separator name="electronic convergence detail" >
     <i type="logical" name="LDIAG"> T  </i>
     <i type="logical" name="LSUBROT"> F  </i>
     <i name="WEIMIN">      0.00100000</i>
     <i name="EBREAK">      0.00000001</i>
     <i name="DEPER">      0.30000000</i>
     <i type="int" name="NRMM">     4</i>
     <i name="TIME">      0.40000000</i>
    </separator>
   </separator>
   <separator name="electronic mixer" >
    <i name="AMIX">      0.40000000</i>
    <i name="BMIX">      1.00000000</i>
    <i name="AMIN">      0.10000000</i>
    <i name="AMIX_MAG">      1.60000000</i>
    <i name="BMIX_MAG">      1.00000000</i>
    <separator name="electronic mixer details" >
     <i type="int" name="IMIX">     4</i>
     <i type="logical" name="MIXFIRST"> F  </i>
     <i type="int" name="MAXMIX">   -45</i>
     <i name="WC">    100.00000000</i>
     <i type="int" name="INIMIX">     1</i>
     <i type="int" name="MIXPRE">     1</i>
     <i type="int" name="MREMOVE">     5</i>
    </separator>
   </separator>
   <separator name="electronic dipolcorrection" >
    <i type="logical" name="LDIPOL"> F  </i>
    <i type="logical" name="LMONO"> F  </i>
    <i type="int" name="IDIPOL">     0</i>
    <i name="EPSILON">      1.00000000</i>
    <v name="DIPOL">   -100.00000000   -100.00000000   -100.00000000</v>
    <i name="EFIELD">      0.00000000</i>
   </separator>
  </separator>
  <separator name="grids" >
   <i type="int" name="NGX">    40</i>
   <i type="int" name="NGY">    60</i>
   <i type="int" name="NGZ">    60</i>
   <i type="int" name="NGXF">    80</i>
   <i type="int" name="NGYF">   120</i>
   <i type="int" name="NGZF">   120</i>
   <i type="logical" name="ADDGRID"> F  </i>
  </separator>
  <separator name="ionic" >
   <i type="int" name="NSW">   300</i>
   <i type="int" name="IBRION">     2</i>
   <i type="int" name="ISIF">     3</i>
   <i name="PSTRESS">      0.00000000</i>
   <i name="EDIFFG">     -0.01000000</i>
   <i type="int" name="NFREE">     1</i>
   <i name="POTIM">      0.15000000</i>
   <i name="SMASS">     -3.00000000</i>
   <i name="SCALEE">      1.00000000</i>
  </separator>
  <separator name="ionic md" >
   <i name="TEBEG">      0.00010000</i>
   <i name="TEEND">      0.00010000</i>
   <i type="int" name="NBLOCK">     1</i>
   <i type="int" name="KBLOCK">   300</i>
   <i type="int" name="NPACO">   256</i>
   <i name="APACO">     16.00000000</i>
  </separator>
  <separator name="symmetry" >
   <i type="int" name="ISYM">     1</i>
   <i name="SYMPREC">      0.00001000</i>
  </separator>
  <separator name="dos" >
   <i type="logical" name="LORBIT"> F  </i>
   <v name="RWIGS">     -1.00000000     -1.00000000     -1.00000000     -1.00000000</v>
   <i type="int" name="NEDOS">   301</i>
   <i name="EMIN">     10.00000000</i>
   <i name="EMAX">    -10.00000000</i>
   <i name="EFERMI">      0.00000000</i>
  </separator>
  <separator name="writing" >
   <i type="int" name="NWRITE">     2</i>
   <i type="logical" name="LWAVE"> F  </i>
   <i type="logical" name="LCHARG"> F  </i>
   <i type="logical" name="LPARD"> F  </i>
   <i type="logical" name="LVTOT"> F  </i>
   <i type="logical" name="LVHAR"> F  </i>
   <i type="logical" name="LELF"> F  </i>
   <i type="logical" name="LOPTICS"> F  </i>
   <v name="STM">      0.00000000      0.00000000      0.00000000      0.00000000      0.00000000      0.00000000      0.00000000</v>
  </separator>
  <separator name="performance" >
   <i type="int" name="NPAR">     4</i>
   <i type="int" name="NSIM">     4</i>
   <i type="int" name="NBLK">    -1</i>
   <i type="logical" name="LPLANE"> T  </i>
   <i type="logical" name="LSCALAPACK"> T  </i>
   <i type="logical" name="LSCAAWARE"> F  </i>
   <i type="logical" name="LSCALU"> F  </i>
   <i type="logical" name="LASYNC"> F  </i>
   <i type="logical" name="LORBITALREAL"> F  </i>
  </separator>
  <separator name="miscellaneous" >
   <i type="int" name="IDIOT">     3</i>
   <i type="logical" name="LMUSIC"> F  </i>
   <v name="POMASS">    180.94800000    178.49000000     91.22400000     92.91000000</v>
   <v name="DARWINR">      0.00000000      0.00000000      0.00000000      0.00000000</v>
   <v name="DARWINV">      1.00000000      1.00000000      1.00000000      1.00000000</v>
   <i type="logical" name="LCORR"> T  </i>
  </separator>
  <i type="logical" name="GGA_COMPAT"> T  </i>
  <i type="logical" name="LBERRY"> F  </i>
  <i type="int" name="ICORELEVEL">     0</i>
  <i type="logical" name="LDAU"> F  </i>
  <i type="int" name="I_CONSTRAINED_M">     0</i>
  <separator name="electronic exchange-correlation" >
   <i type="string" name="GGA">--</i>
   <i type="int" name="VOSKOWN">     0</i>
   <i type="logical" name="LHFCALC"> F  </i>
   <i type="string" name="PRECFOCK"></i>
   <i type="logical" name="LSYMGRAD"> F  </i>
   <i type="logical" name="LHFONE"> F  </i>
   <i type="logical" name="LRHFCALC"> F  </i>
   <i type="logical" name="LTHOMAS"> F  </i>
   <i type="logical" name="LMODELHF"> F  </i>
   <i name="ENCUT4O">     -1.00000000</i>
   <i type="int" name="EXXOEP">     0</i>
   <i type="int" name="FOURORBIT">     0</i>
   <i name="AEXX">      0.00000000</i>
   <i name="HFALPHA">      0.00000000</i>
   <i name="MCALPHA">      0.00000000</i>
   <i name="ALDAX">      1.00000000</i>
   <i name="AGGAX">      1.00000000</i>
   <i name="ALDAC">      1.00000000</i>
   <i name="AGGAC">      1.00000000</i>
   <i type="int" name="NKREDX">     1</i>
   <i type="int" name="NKREDY">     1</i>
   <i type="int" name="NKREDZ">     1</i>
   <i type="logical" name="SHIFTRED"> F  </i>
   <i type="logical" name="ODDONLY"> F  </i>
   <i type="logical" name="EVENONLY"> F  </i>
   <i type="int" name="LMAXFOCK">     0</i>
   <i type="int" name="NMAXFOCKAE">     0</i>
   <i type="logical" name="LFOCKAEDFT"> F  </i>
   <i name="HFSCREEN">      0.00000000</i>
   <i name="HFSCREENC">      0.00000000</i>
   <i type="int" name="NBANDSGWLOW">     0</i>
  </separator>
  <separator name="vdW DFT" >
   <i type="logical" name="LUSE_VDW"> F  </i>
   <i name="Zab_VDW">     -0.84910000</i>
   <i name="PARAM1">      0.12340000</i>
   <i name="PARAM2">      1.00000000</i>
   <i name="PARAM3">      0.00000000</i>
  </separator>
  <separator name="model GW" >
   <i type="int" name="MODEL_GW">     0</i>
   <i name="MODEL_EPS0">     11.94127802</i>
   <i name="MODEL_ALPHA">      1.00000000</i>
  </separator>
  <separator name="linear response parameters" >
   <i type="logical" name="LEPSILON"> F  </i>
   <i type="logical" name="LRPA"> F  </i>
   <i type="logical" name="LNABLA"> F  </i>
   <i type="logical" name="LVEL"> F  </i>
   <i type="int" name="KINTER">     0</i>
   <i name="CSHIFT">      0.10000000</i>
   <i name="OMEGAMAX">     -1.00000000</i>
   <i name="DEG_THRESHOLD">      0.00200000</i>
  </separator>
  <separator name="orbital magnetization" >
   <i type="logical" name="NUCIND"> F  </i>
   <v name="MAGPOS">      0.00000000      0.00000000      0.00000000</v>
   <i type="logical" name="LNICSALL"> T  </i>
   <i type="logical" name="ORBITALMAG"> F  </i>
   <i type="logical" name="LMAGBLOCH"> F  </i>
   <i type="logical" name="LCHIMAG"> F  </i>
   <i type="logical" name="LGAUGE"> T  </i>
   <i type="int" name="MAGATOM">     0</i>
   <v name="MAGDIPOL">      0.00000000      0.00000000      0.00000000</v>
   <v name="AVECCONST">      0.00000000      0.00000000      0.00000000</v>
  </separator>
  <separator name="response functions" >
   <i type="logical" name="LADDER"> F  </i>
   <i type="logical" name="LFXC"> F  </i>
   <i type="logical" name="LHARTREE"> T  </i>
   <i type="int" name="IBSE">     0</i>
   <v type="int" name="KPOINT">    -1     0     0     0</v>
   <i type="logical" name="LTCTE"> F  </i>
   <i type="logical" name="LTETE"> F  </i>
   <i type="logical" name="LTRIPLET"> F  </i>
   <i type="logical" name="LFXCEPS"> F  </i>
   <i type="logical" name="LFXHEG"> F  </i>
   <i type="int" name="NATURALO">     0</i>
   <i type="logical" name="L2ORDER"> F  </i>
   <i type="logical" name="LUSEW"> F  </i>
   <i name="ENCUTGW">     -2.00000000</i>
   <i name="ENCUTGWSOFT">     -2.00000000</i>
   <i name="ENCUTLF">     -1.00000000</i>
   <i type="int" name="LMAXMP2">    -1</i>
   <i name="SCISSOR">      0.00000000</i>
   <i type="int" name="NOMEGA">     0</i>
   <i type="int" name="NOMEGAR">     0</i>
   <i type="int" name="NBANDSGW">    -1</i>
   <i type="int" name="NBANDSO">    -1</i>
   <i type="int" name="NBANDSV">    -1</i>
   <i type="int" name="NELM">    70</i>
   <i type="int" name="NELMHF">     1</i>
   <i type="int" name="DIM">     3</i>
   <i type="int" name="ANTIRES">     0</i>
   <i name="OMEGAMAX">    -30.00000000</i>
   <i name="OMEGAMIN">    -30.00000000</i>
   <i name="OMEGATL">   -200.00000000</i>
   <i type="int" name="OMEGAGRID">     0</i>
   <i name="CSHIFT">     -0.10000000</i>
   <i type="logical" name="SELFENERGY"> F  </i>
   <i type="logical" name="LSPECTRAL"> F  </i>
   <i type="logical" name="LSPECTRALGW"> F  </i>
   <i type="logical" name="LSINGLES"> F  </i>
   <i type="logical" name="LFERMIGW"> F  </i>
   <i type="logical" name="ODDONLYGW"> F  </i>
   <i type="logical" name="EVENONLYGW"> F  </i>
   <i type="int" name="NKREDLFX">     1</i>
   <i type="int" name="NKREDLFY">     1</i>
   <i type="int" name="NKREDLFZ">     1</i>
   <i type="int" name="MAXMEM">  1800</i>
   <i type="int" name="TELESCOPE">     0</i>
   <i type="int" name="TAUPAR">     1</i>
   <i type="int" name="OMEGAPAR">    -1</i>
   <i name="LAMBDA">      1.00000000</i>
  </separator>
  <separator name="External order field" >
   <i name="OFIELD_KAPPA">      0.00000000</i>
   <v name="OFIELD_K">      0.00000000      0.00000000      0.00000000</v>
   <i name="OFIELD_Q6_NEAR">      0.00000000</i>
   <i name="OFIELD_Q6_FAR">      0.00000000</i>
   <i name="OFIELD_A">      0.00000000</i>
  </separator>
 </parameters>
 <atominfo>
  <atoms>      36 </atoms>
  <types>       4 </types>
  <array name="atoms" >
   <dimension dim="1">ion</dimension>
   <field type="string">element</field>
   <field type="int">atomtype</field>
   <set>
    <rc><c>Ta</c><c>   1</c></rc>
    <rc><c>Ta</c><c>   1</c></rc>
    <rc><c>Ta</c><c>   1</c></rc>
    <rc><c>Ta</c><c>   1</c></rc>
    <rc><c>Ta</c><c>   1</c></rc>
    <rc><c>Ta</c><c>   1</c></rc>
    <rc><c>Ta</c><c>   1</c></rc>
    <rc><c>Ta</c><c>   1</c></rc>
    <rc><c>Ta</c><c>   1</c></rc>
    <rc><c>Ta</c><c>   1</c></rc>
    <rc><c>Ta</c><c>   1</c></rc>
    <rc><c>Ta</c><c>   1</c></rc>
    <rc><c>Hf</c><c>   2</c></rc>
    <rc><c>Hf</c><c>   2</c></rc>
    <rc><c>Hf</c><c>   2</c></rc>
    <rc><c>Hf</c><c>   2</c></rc>
    <rc><c>Hf</c><c>   2</c></rc>
    <rc><c>Hf</c><c>   2</c></rc>
    <rc><c>Hf</c><c>   2</c></rc>
    <rc><c>Hf</c><c>   2</c></rc>
    <rc><c>Hf</c><c>   2</c></rc>
    <rc><c>Zr</c><c>   3</c></rc>
    <rc><c>Zr</c><c>   3</c></rc>
    <rc><c>Zr</c><c>   3</c></rc>
    <rc><c>Zr</c><c>   3</c></rc>
    <rc><c>Zr</c><c>   3</c></rc>
    <rc><c>Zr</c><c>   3</c></rc>
    <rc><c>Zr</c><c>   3</c></rc>
    <rc><c>Nb</c><c>   4</c></rc>
    <rc><c>Nb</c><c>   4</c></rc>
    <rc><c>Nb</c><c>   4</c></rc>
    <rc><c>Nb</c><c>   4</c></rc>
    <rc><c>Nb</c><c>   4</c></rc>
    <rc><c>Nb</c><c>   4</c></rc>
    <rc><c>Nb</c><c>   4</c></rc>
    <rc><c>Nb</c><c>   4</c></rc>
   </set>
  </array>
  <array name="atomtypes" >
   <dimension dim="1">type</dimension>
   <field type="int">atomspertype</field>
   <field type="string">element</field>
   <field>mass</field>
   <field>valence</field>
   <field type="string">pseudopotential</field>
   <set>
    <rc><c>  12</c><c>Ta</c><c>    180.94800000</c><c>      5.00000000</c><c>  PAW_PBE Ta 17Jan2003                  </c></rc>
    <rc><c>   9</c><c>Hf</c><c>    178.49000000</c><c>      4.00000000</c><c>  PAW_PBE Hf 20Jan2003                  </c></rc>
    <rc><c>   7</c><c>Zr</c><c>     91.22400000</c><c>     12.00000000</c><c>  PAW_PBE Zr_sv 04Jan2005               </c></rc>
    <rc><c>   8</c><c>Nb</c><c>     92.91000000</c><c>     13.00000000</c><c>  PAW_PBE Nb_sv 25May2007               </c></rc>
   </set>
  </array>
 </atominfo>
 <structure name="initialpos" >
  <crystal>
   <varray name="basis" >
    <v>       6.89551052      -0.00154638       0.00306282 </v>
    <v>      -0.00183071      10.16117251      -0.00543726 </v>
    <v>       0.00458426      -0.00561684      10.22567634 </v>
   </varray>
   <i name="volume">    716.47668149 </i>
   <varray name="rec_basis" >
    <v>       0.14502193       0.00002609      -0.00006500 </v>
    <v>       0.00002205       0.09841387       0.00005405 </v>
    <v>      -0.00004343       0.00005232       0.09779309 </v>
   </varray>
  </crystal>
  <varray name="positions" >
   <v>       0.76269900       0.84271100       0.50270700 </v>
   <v>       0.23939100       0.49532200       0.17502700 </v>
   <v>       0.99889500       0.66554700       0.00784000 </v>
   <v>       0.22426400       0.83459000       0.17621600 </v>
   <v>       0.75883600       0.49237500       0.49258000 </v>
   <v>       0.77377400       0.83360600       0.16980500 </v>
   <v>       0.01470700       0.99388400       0.00963000 </v>
   <v>       0.76519700       0.51472500       0.83377900 </v>
   <v>       0.99385500       0.66638900       0.33304500 </v>
   <v>       0.25819100       0.15952200       0.49455300 </v>
   <v>       0.25019200       0.14672900       0.82696900 </v>
   <v>       0.49784000       0.00587800       0.66213800 </v>
   <v>       0.49374100       0.33670100       0.67126700 </v>
   <v>       0.48954900       0.98781600       0.01140200 </v>
   <v>       0.74330200       0.16550500       0.49143500 </v>
   <v>       0.76297700       0.83453500       0.82675000 </v>
   <v>       0.25402800       0.17058600       0.18063900 </v>
   <v>       0.00782400       0.33217500       0.66672200 </v>
   <v>       0.23655600       0.84116600       0.50190600 </v>
   <v>       0.75564400       0.15199000       0.83795500 </v>
   <v>       0.50877600       0.65959700       0.65931700 </v>
   <v>       0.75167100       0.16608000       0.17037800 </v>
   <v>       0.23991300       0.83433200       0.82343700 </v>
   <v>       0.75381500       0.48895700       0.17136500 </v>
   <v>       0.50165600       0.66984700       0.33515800 </v>
   <v>       0.02149700       0.33743400       0.98545600 </v>
   <v>       0.49632000       0.66610500       0.00254200 </v>
   <v>       0.48108700       0.34253900       0.98162900 </v>
   <v>       0.23914900       0.50254300       0.49366900 </v>
   <v>       0.50411200       0.98443500       0.32889500 </v>
   <v>       0.99590700       0.99259800       0.33063800 </v>
   <v>       0.00652300       0.01683600       0.66095200 </v>
   <v>       0.98936000       0.65640700       0.65870100 </v>
   <v>       0.01530700       0.34178400       0.34707200 </v>
   <v>       0.48383300       0.34548200       0.34937500 </v>
   <v>       0.22960700       0.52328200       0.82904400 </v>
  </varray>
 </structure>
 <calculation>
  <scstep>
   <time name="dav">    1.05    1.06</time>
   <time name="total">    1.14    1.58</time>
   <energy>
    <i name="alphaZ">   1492.81460270 </i>
    <i name="ewald"> -18387.05440014 </i>
    <i name="hartreedc">  -6315.00243316 </i>
    <i name="XCdc">   -473.42704386 </i>
    <i name="pawpsdc">  20282.09419738 </i>
    <i name="pawaedc"> -18579.53631097 </i>
    <i name="eentropy">     -0.00382655 </i>
    <i name="bandstr">      1.86574297 </i>
    <i name="atom">  23680.92984019 </i>
    <i name="e_fr_energy">   1702.68036856 </i>
    <i name="e_wo_entrp">   1702.68419511 </i>
    <i name="e_0_energy">   1702.68164407 </i>
   </energy>
  </scstep>
  <scstep>
   <time name="dav">    1.12    1.12</time>
   <time name="total">    1.12    1.33</time>
   <energy>
    <i name="e_fr_energy">   -118.27177319 </i>
    <i name="e_wo_entrp">   -118.26724815 </i>
    <i name="e_0_energy">   -118.27026485 </i>
   </energy>
  </scstep>
  <scstep>
   <time name="dav">    1.35    1.36</time>
   <time name="total">    1.35    1.41</time>
   <energy>
    <i name="e_fr_energy">   -354.47944420 </i>
    <i name="e_wo_entrp">   -354.48560768 </i>
    <i name="e_0_energy">   -354.48149870 </i>
   </energy>
  </scstep>
  <scstep>
   <time name="dav">    1.39    1.42</time>
   <time name="total">    1.39    1.47</time>
   <energy>
    <i name="e_fr_energy">   -382.40994073 </i>
    <i name="e_wo_entrp">   -382.42761909 </i>
    <i name="e_0_energy">   -382.41583352 </i>
   </energy>
  </scstep>
  <scstep>
   <time name="dav">    1.32    1.33</time>
   <time name="total">    1.35    1.41</time>
   <energy>
    <i name="e_fr_energy">   -385.11956708 </i>
    <i name="e_wo_entrp">   -385.13902032 </i>
    <i name="e_0_energy">   -385.12605150 </i>
   </energy>
  </scstep>
  <scstep>
   <time name="diag">    0.07    0.08</time>
   <time name="diis">    0.79    0.79</time>
   <time name="orth">    0.01    0.01</time>
   <time name="total">    0.97    1.04</time>
   <energy>
    <i name="e_fr_energy">   -374.62170830 </i>
    <i name="e_wo_entrp">   -374.64500504 </i>
    <i name="e_0_energy">   -374.62947388 </i>
   </energy>
  </scstep>
  <scstep>
   <time name="diag">    0.08    0.08</time>
   <time name="diis">    0.81    0.82</time>
   <time name="orth">    0.01    0.01</time>
   <time name="total">    0.98    1.03</time>
   <energy>
    <i name="e_fr_energy">   -375.73521971 </i>
    <i name="e_wo_entrp">   -375.74185216 </i>
    <i name="e_0_energy">   -375.73743052 </i>
   </energy>
  </scstep>
  <scstep>
   <time name="diag">    0.08    0.08</time>
   <time name="diis">    0.79    0.80</time>
   <time name="orth">    0.01    0.01</time>
   <time name="total">    0.96    1.01</time>
   <energy>
    <i name="e_fr_energy">   -370.19428450 </i>
    <i name="e_wo_entrp">   -370.21793928 </i>
    <i name="e_0_energy">   -370.20216943 </i>
   </energy>
  </scstep>
  <scstep>
   <time name="diag">    0.10    0.10</time>
   <time name="diis">    0.84    0.86</time>
   <time name="orth">    0.01    0.01</time>
   <time name="total">    1.03    1.11</time>
   <energy>
    <i name="e_fr_energy">   -370.12735384 </i>
    <i name="e_wo_entrp">   -370.14867325 </i>
    <i name="e_0_energy">   -370.13446031 </i>
   </energy>
  </scstep>
  <scstep>
   <time name="diag">    0.07    0.07</time>
   <time name="diis">    0.76    0.77</time>
   <time name="orth">    0.01    0.01</time>
   <time name="total">    0.94    0.99</time>
   <energy>
    <i name="e_fr_energy">   -370.07165782 </i>
    <i name="e_wo_entrp">   -370.09626757 </i>
    <i name="e_0_energy">   -370.07986107 </i>
   </energy>
  </scstep>
  <scstep>
   <time name="diag">    0.11    0.12</time>
   <time name="diis">    0.85    0.86</time>
   <time name="orth">    0.01    0.01</time>
   <time name="total">    1.03    1.13</time>
   <energy>
    <i name="e_fr_energy">   -370.04464050 </i>
    <i name="e_wo_entrp">   -370.06787826 </i>
    <i name="e_0_energy">   -370.05238642 </i>
   </energy>
  </scstep>
  <scstep>
   <time name="diag">    0.08    0.08</time>
   <time name="diis">    0.78    0.78</time>
   <time name="orth">    0.01    0.01</time>
   <time name="total">    0.93    0.99</time>
   <energy>
    <i name="e_fr_energy">   -370.04061038 </i>
    <i name="e_wo_entrp">   -370.06389400 </i>
    <i name="e_0_energy">   -370.04837159 </i>
   </energy>
  </scstep>
  <scstep>
   <time name="diag">    0.07    0.07</time>
   <time name="diis">    0.78    0.78</time>
   <time name="orth">    0.01    0.01</time>
   <time name="total">    0.93    0.98</time>
   <energy>
    <i name="e_fr_energy">   -370.04004606 </i>
    <i name="e_wo_entrp">   -370.06349005 </i>
    <i name="e_0_energy">   -370.04786072 </i>
   </energy>
  </scstep>
  <scstep>
   <time name="diag">    0.08    0.08</time>
   <time name="diis">    0.81    0.82</time>
   <time name="orth">    0.02    0.02</time>
   <time name="total">    0.98    1.04</time>
   <energy>
    <i name="e_fr_energy">   -370.04018926 </i>
    <i name="e_wo_entrp">   -370.06359289 </i>
    <i name="e_0_energy">   -370.04799047 </i>
   </energy>
  </scstep>
  <scstep>
   <time name="diag">    0.08    0.08</time>
   <time name="diis">    0.78    0.79</time>
   <time name="orth">    0.01    0.01</time>
   <time name="total">    0.94    0.99</time>
   <energy>
    <i name="e_fr_energy">   -370.04031732 </i>
    <i name="e_wo_entrp">   -370.06371935 </i>
    <i name="e_0_energy">   -370.04811800 </i>
   </energy>
  </scstep>
  <scstep>
   <time name="diag">    0.08    0.08</time>
   <time name="diis">    0.79    0.80</time>
   <time name="orth">    0.01    0.01</time>
   <time name="total">    0.95    1.00</time>
   <energy>
    <i name="e_fr_energy">   -370.04031856 </i>
    <i name="e_wo_entrp">   -370.06373975 </i>
    <i name="e_0_energy">   -370.04812562 </i>
   </energy>
  </scstep>
  <scstep>
   <time name="diag">    0.07    0.07</time>
   <time name="diis">    0.64    0.64</time>
   <time name="orth">    0.01    0.01</time>
   <time name="total">    0.79    0.84</time>
   <energy>
    <i name="e_fr_energy">   -370.04033317 </i>
    <i name="e_wo_entrp">   -370.06378516 </i>
    <i name="e_0_energy">   -370.04815050 </i>
   </energy>
  </scstep>
  <scstep>
   <time name="diag">    0.08    0.08</time>
   <time name="diis">    0.57    0.57</time>
   <time name="orth">    0.01    0.01</time>
   <time name="total">    0.72    0.77</time>
   <energy>
    <i name="e_fr_energy">   -370.04034139 </i>
    <i name="e_wo_entrp">   -370.06377842 </i>
    <i name="e_0_energy">   -370.04815374 </i>
   </energy>
  </scstep>
  <scstep>
   <time name="diag">    0.07    0.07</time>
   <time name="diis">    0.39    0.53</time>
   <time name="orth">    0.01    0.01</time>
   <time name="total">    0.51    0.69</time>
   <energy>
    <i name="alphaZ">   1492.81460270 </i>
    <i name="ewald"> -18387.05440014 </i>
    <i name="hartreedc">  -6099.60228855 </i>
    <i name="XCdc">   -470.97797395 </i>
    <i name="pawpsdc">  32758.95887322 </i>
    <i name="pawaedc"> -31041.04563573 </i>
    <i name="eentropy">      0.02344373 </i>
    <i name="bandstr">  -2304.08680634 </i>
    <i name="atom">  23680.92984019 </i>
    <i name="e_fr_energy">   -370.04034488 </i>
    <i name="e_wo_entrp">   -370.06378861 </i>
    <i name="e_0_energy">   -370.04815945 </i>
   </energy>
  </scstep>
  <structure>
   <crystal>
    <varray name="basis" >
     <v>       6.89551052      -0.00154638       0.00306282 </v>
     <v>      -0.00183071      10.16117251      -0.00543726 </v>
     <v>       0.00458426      -0.00561684      10.22567634 </v>
    </varray>
    <i name="volume">    716.47668149 </i>
    <varray name="rec_basis" >
     <v>       0.14502193       0.00002609      -0.00006500 </v>
     <v>       0.00002205       0.09841387       0.00005405 </v>
     <v>      -0.00004343       0.00005232       0.09779309 </v>
    </varray>
   </crystal>
   <varray name="positions" >
    <v>       0.76269900       0.84271100       0.50270700 </v>
    <v>       0.23939100       0.49532200       0.17502700 </v>
    <v>       0.99889500       0.66554700       0.00784000 </v>
    <v>       0.22426400       0.83459000       0.17621600 </v>
    <v>       0.75883600       0.49237500       0.49258000 </v>
    <v>       0.77377400       0.83360600       0.16980500 </v>
    <v>       0.01470700       0.99388400       0.00963000 </v>
    <v>       0.76519700       0.51472500       0.83377900 </v>
    <v>       0.99385500       0.66638900       0.33304500 </v>
    <v>       0.25819100       0.15952200       0.49455300 </v>
    <v>       0.25019200       0.14672900       0.82696900 </v>
    <v>       0.49784000       0.00587800       0.66213800 </v>
    <v>       0.49374100       0.33670100       0.67126700 </v>
    <v>       0.48954900       0.98781600       0.01140200 </v>
    <v>       0.74330200       0.16550500       0.49143500 </v>
    <v>       0.76297700       0.83453500       0.82675000 </v>
    <v>       0.25402800       0.17058600       0.18063900 </v>
    <v>       0.00782400       0.33217500       0.66672200 </v>
    <v>       0.23655600       0.84116600       0.50190600 </v>
    <v>       0.75564400       0.15199000       0.83795500 </v>
    <v>       0.50877600       0.65959700       0.65931700 </v>
    <v>       0.75167100       0.16608000       0.17037800 </v>
    <v>       0.23991300       0.83433200       0.82343700 </v>
    <v>       0.75381500       0.48895700       0.17136500 </v>
    <v>       0.50165600       0.66984700       0.33515800 </v>
    <v>       0.02149700       0.33743400       0.98545600 </v>
    <v>       0.49632000       0.66610500       0.00254200 </v>
    <v>       0.48108700       0.34253900       0.98162900 </v>
    <v>       0.23914900       0.50254300       0.49366900 </v>
    <v>       0.50411200       0.98443500       0.32889500 </v>
    <v>       0.99590700       0.99259800       0.33063800 </v>
    <v>       0.00652300       0.01683600       0.66095200 </v>
    <v>       0.98936000       0.65640700       0.65870100 </v>
    <v>       0.01530700       0.34178400       0.34707200 </v>
    <v>       0.48383300       0.34548200       0.34937500 </v>
    <v>       0.22960700       0.52328200       0.82904400 </v>
   </varray>
  </structure>
  <varray name="forces" >
   <v>       0.01563497       0.00364366      -0.00349097 </v>
   <v>      -0.04027287       0.05458886       0.05510920 </v>
   <v>       0.00390967      -0.02463941      -0.00595261 </v>
   <v>       0.00418908      -0.00558579       0.00217172 </v>
   <v>       0.00182509      -0.00458095       0.00568913 </v>
   <v>      -0.00180208      -0.00505877       0.01827788 </v>
   <v>       0.00798455       0.01606891      -0.00181042 </v>
   <v>       0.03585630       0.05308877      -0.04514942 </v>
   <v>      -0.00178985      -0.01657757      -0.00676878 </v>
   <v>      -0.00615314      -0.01383540      -0.00220288 </v>
   <v>      -0.05791846      -0.04598783      -0.04349953 </v>
   <v>      -0.00394550       0.02784390       0.01705056 </v>
   <v>       0.00439637      -0.01190179      -0.10784308 </v>
   <v>      -0.00026571      -0.05298160      -0.01020611 </v>
   <v>      -0.00219301      -0.00646524      -0.00311139 </v>
   <v>       0.00336553       0.00680853      -0.01031424 </v>
   <v>      -0.02111090      -0.02992701       0.03418468 </v>
   <v>      -0.00353407       0.00759701       0.02591364 </v>
   <v>      -0.01221261       0.00394870      -0.00267477 </v>
   <v>       0.04143173      -0.02863904      -0.02565459 </v>
   <v>      -0.00432200      -0.01814543       0.00459700 </v>
   <v>       0.01063705      -0.02665313       0.01575364 </v>
   <v>      -0.01035052      -0.00056333      -0.01008397 </v>
   <v>       0.00731286       0.02455883       0.00268723 </v>
   <v>       0.00312946      -0.00599195      -0.01716887 </v>
   <v>      -0.06520542       0.00445497       0.00569955 </v>
   <v>      -0.00027849       0.10330166       0.01132222 </v>
   <v>       0.08859823      -0.05838200       0.08424512 </v>
   <v>       0.00772331      -0.00026097       0.01579753 </v>
   <v>       0.00303545       0.01047601      -0.00183563 </v>
   <v>       0.00675732       0.01358374      -0.00341648 </v>
   <v>      -0.00094435       0.00620183       0.00791291 </v>
   <v>      -0.01216703      -0.01372741       0.02263156 </v>
   <v>       0.00374762       0.00974987      -0.01831822 </v>
   <v>      -0.00882561      -0.00413503       0.02316628 </v>
   <v>       0.00375706       0.02812439      -0.03270791 </v>
  </varray>
  <varray name="stress" >
   <v>       0.93967587       0.03101374      -0.11498708 </v>
   <v>       0.03101369       0.82143602       0.00381531 </v>
   <v>      -0.11498706       0.00381532       0.82390344 </v>
  </varray>
  <energy>
   <i name="e_fr_energy">   -370.04034488 </i>
   <i name="e_wo_entrp">   -370.04815945 </i>
   <i name="e_0_energy">      0.02344373 </i>
  </energy>
  <time name="totalsc">   20.61   22.56</time>
 </calculation>
 <calculation>
  <scstep>
   <time name="dav">    0.99    1.01</time>
   <time name="total">    1.08    1.34</time>
   <energy>
    <i name="alphaZ">   1492.12105663 </i>
    <i name="ewald"> -18384.53666080 </i>
    <i name="hartreedc">  -6098.32644054 </i>
    <i name="XCdc">   -471.10272850 </i>
    <i name="pawpsdc">  32759.04621368 </i>
    <i name="pawaedc"> -31041.12692890 </i>
    <i name="eentropy">      0.02331619 </i>
    <i name="bandstr">  -2307.06958058 </i>
    <i name="atom">  23680.92984019 </i>
    <i name="e_fr_energy">   -370.04191264 </i>
    <i name="e_wo_entrp">   -370.06522883 </i>
    <i name="e_0_energy">   -370.04968471 </i>
   </energy>
  </scstep>
  <scstep>
   <time name="diag">    0.08    0.08</time>
   <time name="diis">    0.72    0.73</time>
   <time name="orth">    0.01    0.01</time>
   <time name="total">    0.97    1.01</time>
   <energy>
    <i name="e_fr_energy">   -370.04187845 </i>
    <i name="e_wo_entrp">   -370.06527400 </i>
    <i name="e_0_energy">   -370.04967697 </i>
   </energy>
  </scstep>
  <scstep>
   <time name="diag">    0.07    0.07</time>
   <time name="diis">    0.73    0.77</time>
   <time name="orth">    0.01    0.01</time>
   <time name="total">    0.89    0.96</time>
   <energy>
    <i name="e_fr_energy">   -370.04173773 </i>
    <i name="e_wo_entrp">   -370.06510308 </i>
    <i name="e_0_energy">   -370.04952618 </i>
   </energy>
  </scstep>
  <scstep>
   <time name="diag">    0.07    0.07</time>
   <time name="diis">    0.75    0.76</time>
   <time name="orth">    0.01    0.01</time>
   <time name="total">    0.91    0.95</time>
   <energy>
    <i name="e_fr_energy">   -370.04166990 </i>
    <i name="e_wo_entrp">   -370.06508739 </i>
    <i name="e_0_energy">   -370.04947573 </i>
   </energy>
  </scstep>
  <scstep>
   <time name="diag">    0.07    0.07</time>
   <time name="diis">    0.64    0.64</time>
   <time name="orth">    0.01    0.01</time>
   <time name="total">    0.81    0.87</time>
   <energy>
    <i name="e_fr_energy">   -370.04165347 </i>
    <i name="e_wo_entrp">   -370.06504506 </i>
    <i name="e_0_energy">   -370.04945067 </i>
   </energy>
  </scstep>
  <scstep>
   <time name="diag">    0.10    0.11</time>
   <time name="diis">    0.40    0.41</time>
   <time name="orth">    0.01    0.01</time>
   <time name="total">    0.55    0.61</time>
   <energy>
    <i name="alphaZ">   1492.12105663 </i>
    <i name="ewald"> -18384.53666080 </i>
    <i name="hartreedc">  -6100.15533078 </i>
    <i name="XCdc">   -471.02728800 </i>
    <i name="pawpsdc">  32736.69951972 </i>
    <i name="pawaedc"> -31018.71181524 </i>
    <i name="eentropy">      0.02339865 </i>
    <i name="bandstr">  -2305.38436965 </i>
    <i name="atom">  23680.92984019 </i>
    <i name="e_fr_energy">   -370.04164927 </i>
    <i name="e_wo_entrp">   -370.06504791 </i>
    <i name="e_0_energy">   -370.04944882 </i>
   </energy>
  </scstep>
  <structure>
   <crystal>
    <varray name="basis" >
     <v>       6.89667534      -0.00150816       0.00292073 </v>
     <v>      -0.00177425      10.16267307      -0.00543106 </v>
     <v>       0.00437361      -0.00561063      10.22719088 </v>
    </varray>
    <i name="volume">    716.80970379 </i>
    <varray name="rec_basis" >
     <v>       0.14499743       0.00002528      -0.00006199 </v>
     <v>       0.00002149       0.09839934       0.00005397 </v>
     <v>      -0.00004140       0.00005225       0.09777861 </v>
    </varray>
   </crystal>
   <varray name="positions" >
    <v>       0.76273182       0.84271619       0.50270205 </v>
    <v>       0.23930644       0.49539978       0.17510506 </v>
    <v>       0.99890320       0.66551190       0.00783155 </v>
    <v>       0.22427279       0.83458205       0.17621907 </v>
    <v>       0.75883982       0.49236848       0.49258805 </v>
    <v>       0.77377020       0.83359881       0.16983087 </v>
    <v>       0.01472377       0.99390689       0.00962744 </v>
    <v>       0.76527232       0.51480059       0.83371512 </v>
    <v>       0.99385124       0.66636538       0.33303541 </v>
    <v>       0.25817808       0.15950229       0.49454988 </v>
    <v>       0.25007046       0.14666345       0.82690743 </v>
    <v>       0.49783171       0.00591767       0.66216216 </v>
    <v>       0.49375032       0.33668397       0.67111435 </v>
    <v>       0.48954843       0.98774053       0.01138751 </v>
    <v>       0.74329740       0.16549579       0.49143059 </v>
    <v>       0.76298408       0.83454469       0.82673540 </v>
    <v>       0.25398365       0.17054339       0.18068737 </v>
    <v>       0.00781656       0.33218584       0.66675868 </v>
    <v>       0.23653037       0.84117162       0.50190222 </v>
    <v>       0.75573097       0.15194920       0.83791864 </v>
    <v>       0.50876692       0.65957116       0.65932350 </v>
    <v>       0.75169330       0.16604205       0.17040027 </v>
    <v>       0.23989128       0.83433119       0.82342273 </v>
    <v>       0.75383036       0.48899198       0.17136882 </v>
    <v>       0.50166258       0.66983845       0.33513369 </v>
    <v>       0.02136014       0.33744033       0.98546411 </v>
    <v>       0.49631944       0.66625214       0.00255810 </v>
    <v>       0.48127286       0.34245594       0.98174814 </v>
    <v>       0.23916520       0.50254264       0.49369135 </v>
    <v>       0.50411838       0.98444992       0.32889241 </v>
    <v>       0.99592119       0.99261735       0.33063317 </v>
    <v>       0.00652101       0.01684484       0.66096320 </v>
    <v>       0.98933444       0.65638746       0.65873303 </v>
    <v>       0.01531489       0.34179787       0.34704608 </v>
    <v>       0.48381445       0.34547613       0.34940779 </v>
    <v>       0.22961493       0.52332203       0.82899773 </v>
   </varray>
  </structure>
  <varray name="forces" >
   <v>       0.01414988       0.00402785      -0.00446746 </v>
   <v>      -0.03744560       0.04779160       0.04720082 </v>
   <v>       0.00476050      -0.02179995      -0.00625383 </v>
   <v>       0.00012266      -0.00438746       0.00283299 </v>
   <v>       0.00248278      -0.00624847       0.00418801 </v>
   <v>       0.00236972      -0.00358273       0.01684100 </v>
   <v>       0.00816998       0.01314351      -0.00053884 </v>
   <v>       0.02910403       0.04983656      -0.04024835 </v>
   <v>      -0.00170726      -0.01290621      -0.00466318 </v>
   <v>      -0.00570078      -0.01167758      -0.00189485 </v>
   <v>      -0.05273000      -0.03845156      -0.03663710 </v>
   <v>      -0.00485053       0.02585516       0.01467006 </v>
   <v>       0.00336518      -0.01185303      -0.09356935 </v>
   <v>      -0.00086918      -0.04633173      -0.01082397 </v>
   <v>      -0.00125698      -0.00542768      -0.00490100 </v>
   <v>       0.00280883       0.00616306      -0.00953161 </v>
   <v>      -0.01900142      -0.02688440       0.03107866 </v>
   <v>      -0.00203126       0.00787318       0.02276122 </v>
   <v>      -0.01148826       0.00393870      -0.00326332 </v>
   <v>       0.03801402      -0.02914157      -0.02339353 </v>
   <v>      -0.00266529      -0.01679439       0.00373498 </v>
   <v>       0.00884413      -0.02438684       0.01464270 </v>
   <v>      -0.00920722      -0.00056170      -0.00777397 </v>
   <v>       0.00768341       0.02355897       0.00367319 </v>
   <v>       0.00336970      -0.00282598      -0.01389882 </v>
   <v>      -0.05497035       0.00643453       0.00546184 </v>
   <v>      -0.00029338       0.09192683       0.00954520 </v>
   <v>       0.07728547      -0.05175919       0.07304263 </v>
   <v>       0.00531628      -0.00236259       0.01270000 </v>
   <v>       0.00349360       0.00609606       0.00055575 </v>
   <v>       0.00516293       0.00839709      -0.00263648 </v>
   <v>      -0.00113544       0.00295417       0.00322266 </v>
   <v>      -0.00957506      -0.01144514       0.01923868 </v>
   <v>       0.00393497       0.00997725      -0.01580169 </v>
   <v>      -0.01014199      -0.00308997       0.02277527 </v>
   <v>       0.00463191       0.02394363      -0.02786830 </v>
  </varray>
  <varray name="stress" >
   <v>       0.34381472       0.03699484      -0.10101411 </v>
   <v>       0.03699486       0.24383559       0.02047338 </v>
   <v>      -0.10101413       0.02047339       0.26458775 </v>
  </varray>
  <energy>
   <i name="e_fr_energy">   -370.04164927 </i>
   <i name="e_wo_entrp">   -370.04944882 </i>
   <i name="e_0_energy">      0.02339865 </i>
  </energy>
  <time name="totalsc">    6.75    7.47</time>
 </calculation>
 <calculation>
  <scstep>
   <time name="dav">    1.04    1.05</time>
   <time name="total">    1.11    1.34</time>
   <energy>
    <i name="alphaZ">   1490.04300523 </i>
    <i name="ewald"> -18376.94764267 </i>
    <i name="hartreedc">  -6096.30982458 </i>
    <i name="XCdc">   -471.40133830 </i>
    <i name="pawpsdc">  32737.87217524 </i>
    <i name="pawaedc"> -31019.89863148 </i>
    <i name="eentropy">      0.02296566 </i>
    <i name="bandstr">  -2314.35696843 </i>
    <i name="atom">  23680.92984019 </i>
    <i name="e_fr_energy">   -370.04641914 </i>
    <i name="e_wo_entrp">   -370.06938480 </i>
    <i name="e_0_energy">   -370.05407436 </i>
   </energy>
  </scstep>
  <scstep>
   <time name="diag">    0.07    0.07</time>
   <time name="diis">    0.71    0.72</time>
   <time name="orth">    0.01    0.01</time>
   <time name="total">    0.86    0.90</time>
   <energy>
    <i name="e_fr_energy">   -370.04588907 </i>
    <i name="e_wo_entrp">   -370.06910939 </i>
    <i name="e_0_energy">   -370.05362917 </i>
   </energy>
  </scstep>
  <scstep>
   <time name="diag">    0.10    0.12</time>
   <time name="diis">    0.77    0.77</time>
   <time name="orth">    0.01    0.01</time>
   <time name="total">    0.95    1.03</time>
   <energy>
    <i name="e_fr_energy">   -370.04458501 </i>
    <i name="e_wo_entrp">   -370.06771242 </i>
    <i name="e_0_energy">   -370.05229415 </i>
   </energy>
  </scstep>
  <scstep>
   <time name="diag">    0.07    0.07</time>
   <time name="diis">    0.78    0.78</time>
   <time name="orth">    0.01    0.01</time>
   <time name="total">    0.93    0.98</time>
   <energy>
    <i name="e_fr_energy">   -370.04400398 </i>
    <i name="e_wo_entrp">   -370.06729146 </i>
    <i name="e_0_energy">   -370.05176647 </i>
   </energy>
  </scstep>
  <scstep>
   <time name="diag">    0.08    0.08</time>
   <time name="diis">    0.78    0.78</time>
   <time name="orth">    0.01    0.01</time>
   <time name="total">    0.93    0.98</time>
   <energy>
    <i name="e_fr_energy">   -370.04388023 </i>
    <i name="e_wo_entrp">   -370.06709245 </i>
    <i name="e_0_energy">   -370.05161764 </i>
   </energy>
  </scstep>
  <scstep>
   <time name="diag">    0.09    0.09</time>
   <time name="diis">    0.71    0.71</time>
   <time name="orth">    0.01    0.01</time>
   <time name="total">    0.88    0.93</time>
   <energy>
    <i name="e_fr_energy">   -370.04387993 </i>
    <i name="e_wo_entrp">   -370.06711382 </i>
    <i name="e_0_energy">   -370.05162456 </i>
   </energy>
  </scstep>
  <scstep>
   <time name="diag">    0.08    0.08</time>
   <time name="diis">    0.61    0.61</time>
   <time name="orth">    0.01    0.01</time>
   <time name="total">    0.74    0.79</time>
   <energy>
    <i name="alphaZ">   1490.04300523 </i>
    <i name="ewald"> -18376.94764267 </i>
    <i name="hartreedc">  -6101.59943511 </i>
    <i name="XCdc">   -471.18221745 </i>
    <i name="pawpsdc">  32674.32881942 </i>
    <i name="pawaedc"> -30956.29969333 </i>
    <i name="eentropy">      0.02322941 </i>
    <i name="bandstr">  -2309.33978302 </i>
    <i name="atom">  23680.92984019 </i>
    <i name="e_fr_energy">   -370.04387732 </i>
    <i name="e_wo_entrp">   -370.06710673 </i>
    <i name="e_0_energy">   -370.05162046 </i>
   </energy>
  </scstep>
  <structure>
   <crystal>
    <varray name="basis" >
     <v>       6.90016980      -0.00139349       0.00249445 </v>
     <v>      -0.00160488      10.16717477      -0.00541245 </v>
     <v>       0.00374167      -0.00559200      10.23173451 </v>
    </varray>
    <i name="volume">    717.80938461 </i>
    <varray name="rec_basis" >
     <v>       0.14492399       0.00002285      -0.00005299 </v>
     <v>       0.00001984       0.09835577       0.00005375 </v>
     <v>      -0.00003532       0.00005202       0.09773518 </v>
    </varray>
   </crystal>
   <varray name="positions" >
    <v>       0.76283026       0.84273177       0.50268721 </v>
    <v>       0.23905281       0.49563310       0.17533922 </v>
    <v>       0.99892780       0.66540662       0.00780622 </v>
    <v>       0.22429915       0.83455819       0.17622827 </v>
    <v>       0.75885129       0.49234892       0.49261219 </v>
    <v>       0.77375880       0.83357724       0.16990846 </v>
    <v>       0.01477406       0.99397554       0.00961978 </v>
    <v>       0.76549824       0.51502733       0.83352349 </v>
    <v>       0.99383998       0.66629454       0.33300664 </v>
    <v>       0.25813934       0.15944317       0.49454050 </v>
    <v>       0.24970590       0.14646681       0.82672276 </v>
    <v>       0.49780686       0.00603667       0.66223461 </v>
    <v>       0.49377828       0.33663287       0.67065648 </v>
    <v>       0.48954673       0.98751415       0.01134407 </v>
    <v>       0.74328359       0.16546816       0.49141737 </v>
    <v>       0.76300530       0.83457376       0.82669163 </v>
    <v>       0.25385062       0.17041560       0.18083247 </v>
    <v>       0.00779425       0.33221835       0.66686872 </v>
    <v>       0.23645350       0.84118847       0.50189090 </v>
    <v>       0.75599185       0.15182682       0.83780959 </v>
    <v>       0.50873968       0.65949364       0.65934298 </v>
    <v>       0.75176020       0.16592823       0.17046707 </v>
    <v>       0.23982615       0.83432875       0.82337994 </v>
    <v>       0.75387641       0.48909692       0.17138027 </v>
    <v>       0.50168232       0.66981282       0.33506079 </v>
    <v>       0.02094962       0.33745931       0.98548844 </v>
    <v>       0.49631777       0.66669351       0.00260641 </v>
    <v>       0.48183034       0.34220679       0.98210550 </v>
    <v>       0.23921378       0.50254157       0.49375841 </v>
    <v>       0.50413750       0.98449468       0.32888463 </v>
    <v>       0.99596376       0.99267538       0.33061868 </v>
    <v>       0.00651505       0.01687135       0.66099681 </v>
    <v>       0.98925776       0.65632886       0.65882910 </v>
    <v>       0.01533854       0.34183949       0.34696833 </v>
    <v>       0.48375882       0.34545851       0.34950615 </v>
    <v>       0.22963870       0.52344212       0.82885893 </v>
   </varray>
  </structure>
  <varray name="forces" >
   <v>       0.01038572       0.00674434      -0.00725505 </v>
   <v>      -0.03121434       0.02881078       0.02565713 </v>
   <v>       0.00778889      -0.01228315      -0.00411440 </v>
   <v>      -0.00973825       0.00183148       0.00388770 </v>
   <v>       0.00513114      -0.01091166       0.00043686 </v>
   <v>       0.01204495       0.00261311       0.01256445 </v>
   <v>       0.00799027       0.00566146       0.00216998 </v>
   <v>       0.01259503       0.04036683      -0.02791452 </v>
   <v>      -0.00089773      -0.00214755       0.00052008 </v>
   <v>      -0.00485753      -0.00799984       0.00049618 </v>
   <v>      -0.03925619      -0.01817390      -0.01768513 </v>
   <v>      -0.00789909       0.02212418       0.00924242 </v>
   <v>      -0.00001956      -0.01318851      -0.05526856 </v>
   <v>      -0.00163003      -0.02659912      -0.01317027 </v>
   <v>       0.00190097      -0.00463308      -0.00832721 </v>
   <v>       0.00139907       0.00729987      -0.00731902 </v>
   <v>      -0.01334867      -0.02197400       0.02047382 </v>
   <v>       0.00343548       0.00713054       0.01296871 </v>
   <v>      -0.00956204       0.00543481      -0.00499972 </v>
   <v>       0.02985275      -0.03324986      -0.01862087 </v>
   <v>       0.00105233      -0.01246996      -0.00219152 </v>
   <v>       0.00496861      -0.02191614       0.01212878 </v>
   <v>      -0.00682165       0.00192360      -0.00318333 </v>
   <v>       0.00965882       0.02166380       0.00773567 </v>
   <v>       0.00349772       0.00411848      -0.00326943 </v>
   <v>      -0.02573687       0.01039129       0.00526611 </v>
   <v>      -0.00117215       0.06110035       0.00631405 </v>
   <v>       0.04635865      -0.03625259       0.04385441 </v>
   <v>      -0.00183681      -0.00822135       0.00570381 </v>
   <v>       0.00348016      -0.00527171       0.00849269 </v>
   <v>       0.00197313      -0.00705826      -0.00014433 </v>
   <v>      -0.00217573      -0.00561749      -0.01137592 </v>
   <v>      -0.00389641      -0.00395439       0.00611969 </v>
   <v>       0.00646346       0.01157015      -0.00725419 </v>
   <v>      -0.01553396       0.00096699       0.02287282 </v>
   <v>       0.00561986       0.01217049      -0.01481184 </v>
  </varray>
  <varray name="stress" >
   <v>      -1.41632238       0.04744204      -0.03731232 </v>
   <v>       0.04744202      -1.57141010       0.01239983 </v>
   <v>      -0.03731231       0.01239987      -1.41939354 </v>
  </varray>
  <energy>
   <i name="e_fr_energy">   -370.04387732 </i>
   <i name="e_wo_entrp">   -370.05162046 </i>
   <i name="e_0_energy">      0.02322941 </i>
  </energy>
  <time name="totalsc">    8.03    8.74</time>
 </calculation>
 <calculation>
  <scstep>
   <time name="dav">    1.09    1.10</time>
   <time name="total">    1.17    1.37</time>
   <energy>
    <i name="alphaZ">   1485.89851286 </i>
    <i name="ewald"> -18361.60903178 </i>
    <i name="hartreedc">  -6094.04271836 </i>
    <i name="XCdc">   -471.92877729 </i>
    <i name="pawpsdc">  32675.62638523 </i>
    <i name="pawaedc"> -30957.65219794 </i>
    <i name="eentropy">      0.02223976 </i>
    <i name="bandstr">  -2327.29550625 </i>
    <i name="atom">  23680.92984019 </i>
    <i name="e_fr_energy">   -370.05125357 </i>
    <i name="e_wo_entrp">   -370.07349333 </i>
    <i name="e_0_energy">   -370.05866682 </i>
   </energy>
  </scstep>
  <scstep>
   <time name="diag">    0.09    0.09</time>
   <time name="diis">    0.70    0.71</time>
   <time name="orth">    0.01    0.01</time>
   <time name="total">    0.86    0.91</time>
   <energy>
    <i name="e_fr_energy">   -370.04902005 </i>
    <i name="e_wo_entrp">   -370.07182735 </i>
    <i name="e_0_energy">   -370.05662249 </i>
   </energy>
  </scstep>
  <scstep>
   <time name="diag">    0.08    0.08</time>
   <time name="diis">    0.77    0.77</time>
   <time name="orth">    0.01    0.01</time>
   <time name="total">    0.93    0.99</time>
   <energy>
    <i name="e_fr_energy">   -370.04366660 </i>
    <i name="e_wo_entrp">   -370.06628681 </i>
    <i name="e_0_energy">   -370.05120667 </i>
   </energy>
  </scstep>
  <scstep>
   <time name="diag">    0.07    0.07</time>
   <time name="diis">    0.87    0.87</time>
   <time name="orth">    0.01    0.01</time>
   <time name="total">    1.02    1.07</time>
   <energy>
    <i name="e_fr_energy">   -370.04141376 </i>
    <i name="e_wo_entrp">   -370.06435401 </i>
    <i name="e_0_energy">   -370.04906051 </i>
   </energy>
  </scstep>
  <scstep>
   <time name="diag">    0.07    0.07</time>
   <time name="diis">    0.78    0.79</time>
   <time name="orth">    0.01    0.01</time>
   <time name="total">    0.93    0.98</time>
   <energy>
    <i name="e_fr_energy">   -370.04093419 </i>
    <i name="e_wo_entrp">   -370.06373180 </i>
    <i name="e_0_energy">   -370.04853339 </i>
   </energy>
  </scstep>
  <scstep>
   <time name="diag">    0.08    0.08</time>
   <time name="diis">    0.83    0.84</time>
   <time name="orth">    0.01    0.01</time>
   <time name="total">    0.99    1.03</time>
   <energy>
    <i name="e_fr_energy">   -370.04096030 </i>
    <i name="e_wo_entrp">   -370.06380421 </i>
    <i name="e_0_energy">   -370.04857494 </i>
   </energy>
  </scstep>
  <scstep>
   <time name="diag">    0.08    0.08</time>
   <time name="diis">    0.74    0.75</time>
   <time name="orth">    0.01    0.01</time>
   <time name="total">    0.90    0.94</time>
   <energy>
    <i name="e_fr_energy">   -370.04097585 </i>
    <i name="e_wo_entrp">   -370.06380752 </i>
    <i name="e_0_energy">   -370.04858641 </i>
   </energy>
  </scstep>
  <scstep>
   <time name="diag">    0.08    0.08</time>
   <time name="diis">    0.67    0.68</time>
   <time name="orth">    0.01    0.01</time>
   <time name="total">    0.84    0.88</time>
   <energy>
    <i name="e_fr_energy">   -370.04098758 </i>
    <i name="e_wo_entrp">   -370.06380469 </i>
    <i name="e_0_energy">   -370.04859328 </i>
   </energy>
  </scstep>
  <scstep>
   <time name="diag">    0.07    0.07</time>
   <time name="diis">    0.52    0.52</time>
   <time name="orth">    0.01    0.01</time>
   <time name="total">    0.63    0.68</time>
   <energy>
    <i name="alphaZ">   1485.89851286 </i>
    <i name="ewald"> -18361.60903178 </i>
    <i name="hartreedc">  -6104.43684282 </i>
    <i name="XCdc">   -471.49825059 </i>
    <i name="pawpsdc">  32552.40239906 </i>
    <i name="pawaedc"> -30834.56142187 </i>
    <i name="eentropy">      0.02282042 </i>
    <i name="bandstr">  -2317.18901877 </i>
    <i name="atom">  23680.92984019 </i>
    <i name="e_fr_energy">   -370.04099330 </i>
    <i name="e_wo_entrp">   -370.06381372 </i>
    <i name="e_0_energy">   -370.04860011 </i>
   </energy>
  </scstep>
  <structure>
   <crystal>
    <varray name="basis" >
     <v>       6.90715872      -0.00116417       0.00164188 </v>
     <v>      -0.00126613      10.17617816      -0.00537524 </v>
     <v>       0.00247780      -0.00555474      10.24082177 </v>
    </varray>
    <i name="volume">    719.81151026 </i>
    <varray name="rec_basis" >
     <v>       0.14477734       0.00001799      -0.00003502 </v>
     <v>       0.00001655       0.09826875       0.00005330 </v>
     <v>      -0.00002320       0.00005158       0.09764845 </v>
    </varray>
   </crystal>
   <varray name="positions" >
    <v>       0.76302705       0.84276290       0.50265755 </v>
    <v>       0.23854584       0.49609952       0.17580730 </v>
    <v>       0.99897699       0.66519616       0.00775558 </v>
    <v>       0.22435185       0.83451050       0.17624666 </v>
    <v>       0.75887423       0.49230983       0.49266044 </v>
    <v>       0.77373603       0.83353411       0.17006356 </v>
    <v>       0.01487458       0.99411279       0.00960446 </v>
    <v>       0.76594979       0.51548061       0.83314044 </v>
    <v>       0.99381745       0.66615292       0.33294912 </v>
    <v>       0.25806188       0.15932498       0.49452176 </v>
    <v>       0.24897712       0.14607373       0.82635355 </v>
    <v>       0.49775718       0.00627455       0.66237946 </v>
    <v>       0.49383408       0.33653072       0.66974115 </v>
    <v>       0.48954333       0.98706159       0.01125721 </v>
    <v>       0.74325600       0.16541292       0.49139094 </v>
    <v>       0.76304771       0.83463187       0.82660411 </v>
    <v>       0.25358473       0.17016012       0.18112253 </v>
    <v>       0.00774967       0.33228335       0.66708870 </v>
    <v>       0.23629983       0.84122216       0.50186825 </v>
    <v>       0.75651331       0.15158217       0.83759160 </v>
    <v>       0.50868523       0.65933868       0.65938192 </v>
    <v>       0.75189393       0.16570068       0.17060062 </v>
    <v>       0.23969594       0.83432387       0.82329439 </v>
    <v>       0.75396848       0.48930670       0.17140316 </v>
    <v>       0.50172177       0.66976156       0.33491504 </v>
    <v>       0.02012901       0.33749728       0.98553703 </v>
    <v>       0.49631442       0.66757585       0.00270296 </v>
    <v>       0.48294482       0.34170870       0.98281995 </v>
    <v>       0.23931090       0.50253943       0.49389245 </v>
    <v>       0.50417573       0.98458415       0.32886909 </v>
    <v>       0.99604884       0.99279139       0.33058973 </v>
    <v>       0.00650314       0.01692436       0.66106400 </v>
    <v>       0.98910451       0.65621170       0.65902115 </v>
    <v>       0.01538581       0.34192268       0.34681289 </v>
    <v>       0.48364764       0.34542328       0.34970277 </v>
    <v>       0.22968619       0.52368218       0.82858145 </v>
   </varray>
  </structure>
  <varray name="forces" >
   <v>       0.00205604       0.01110030      -0.01360436 </v>
   <v>      -0.01842097      -0.00738103      -0.01821347 </v>
   <v>       0.01419881       0.00188079      -0.00393654 </v>
   <v>      -0.03066695       0.01128352       0.00634922 </v>
   <v>       0.00957047      -0.01975417      -0.00586627 </v>
   <v>       0.03259124       0.01340617       0.00464493 </v>
   <v>       0.01005665      -0.01008481       0.00955410 </v>
   <v>      -0.02330138       0.02208677      -0.00328573 </v>
   <v>       0.00053661       0.01663022       0.01125081 </v>
   <v>      -0.00139057       0.00155577       0.00389925 </v>
   <v>      -0.01034298       0.02316254       0.01966785 </v>
   <v>      -0.01396520       0.01427106      -0.00335149 </v>
   <v>      -0.00540605      -0.01096446       0.01974621 </v>
   <v>      -0.00485341       0.01204129      -0.01597434 </v>
   <v>       0.00645491      -0.00108714      -0.01704364 </v>
   <v>      -0.00228230       0.00512968      -0.00356339 </v>
   <v>      -0.00264995      -0.00881074       0.00213568 </v>
   <v>       0.01281866       0.01112816      -0.00520236 </v>
   <v>      -0.00554464       0.00699068      -0.00915589 </v>
   <v>       0.01119961      -0.03808794      -0.00809759 </v>
   <v>       0.00982742      -0.00764103      -0.00983668 </v>
   <v>      -0.00243936      -0.01440855       0.00658937 </v>
   <v>      -0.00112279       0.00605104       0.00641674 </v>
   <v>       0.01286459       0.01878869       0.01413934 </v>
   <v>       0.00378365       0.01739521       0.01790208 </v>
   <v>       0.02951545       0.02214056       0.00390769 </v>
   <v>      -0.00148101      -0.00428255      -0.00064597 </v>
   <v>      -0.01442495      -0.00222106      -0.01384496 </v>
   <v>      -0.01675955      -0.01928020      -0.00872988 </v>
   <v>       0.00341509      -0.02966735       0.02480887 </v>
   <v>      -0.00534602      -0.04017846       0.00476051 </v>
   <v>      -0.00359552      -0.02016091      -0.04203780 </v>
   <v>       0.00928318       0.00957933      -0.02071626 </v>
   <v>       0.00910427       0.01580119       0.01247551 </v>
   <v>      -0.02265846       0.00975132       0.02069384 </v>
   <v>       0.00937539      -0.01616391       0.01416462 </v>
  </varray>
  <varray name="stress" >
   <v>      -5.32574847       0.06336487       0.10301695 </v>
   <v>       0.06336491      -5.33835285       0.04136743 </v>
   <v>       0.10301697       0.04136743      -5.07575794 </v>
  </varray>
  <energy>
   <i name="e_fr_energy">   -370.04099330 </i>
   <i name="e_wo_entrp">   -370.04860011 </i>
   <i name="e_0_energy">      0.02282042 </i>
  </energy>
  <time name="totalsc">    9.97   10.74</time>
 </calculation>
 <calculation>
  <scstep>
   <time name="dav">    0.91    1.11</time>
   <time name="total">    0.99    1.40</time>
   <energy>
    <i name="alphaZ">   1489.02875386 </i>
    <i name="ewald"> -18373.22017525 </i>
    <i name="hartreedc">  -6109.97842822 </i>
    <i name="XCdc">   -470.94014856 </i>
    <i name="pawpsdc">  32552.05328943 </i>
    <i name="pawaedc"> -30834.34095343 </i>
    <i name="eentropy">      0.02350295 </i>
    <i name="bandstr">  -2303.60584518 </i>
    <i name="atom">  23680.92984019 </i>
    <i name="e_fr_energy">   -370.05016423 </i>
    <i name="e_wo_entrp">   -370.07366718 </i>
    <i name="e_0_energy">   -370.05799854 </i>
   </energy>
  </scstep>
  <scstep>
   <time name="diag">    0.07    0.07</time>
   <time name="diis">    0.71    0.71</time>
   <time name="orth">    0.01    0.01</time>
   <time name="total">    0.86    0.90</time>
   <energy>
    <i name="e_fr_energy">   -370.04853376 </i>
    <i name="e_wo_entrp">   -370.07162453 </i>
    <i name="e_0_energy">   -370.05623068 </i>
   </energy>
  </scstep>
  <scstep>
   <time name="diag">    0.07    0.07</time>
   <time name="diis">    0.83    0.83</time>
   <time name="orth">    0.01    0.01</time>
   <time name="total">    0.97    1.04</time>
   <energy>
    <i name="e_fr_energy">   -370.04561023 </i>
    <i name="e_wo_entrp">   -370.06887856 </i>
    <i name="e_0_energy">   -370.05336634 </i>
   </energy>
  </scstep>
  <scstep>
   <time name="diag">    0.07    0.07</time>
   <time name="diis">    0.77    0.78</time>
   <time name="orth">    0.01    0.01</time>
   <time name="total">    0.92    0.98</time>
   <energy>
    <i name="e_fr_energy">   -370.04422296 </i>
    <i name="e_wo_entrp">   -370.06726689 </i>
    <i name="e_0_energy">   -370.05190427 </i>
   </energy>
  </scstep>
  <scstep>
   <time name="diag">    0.07    0.07</time>
   <time name="diis">    0.79    0.79</time>
   <time name="orth">    0.01    0.01</time>
   <time name="total">    0.96    1.01</time>
   <energy>
    <i name="e_fr_energy">   -370.04394841 </i>
    <i name="e_wo_entrp">   -370.06710829 </i>
    <i name="e_0_energy">   -370.05166837 </i>
   </energy>
  </scstep>
  <scstep>
   <time name="diag">    0.10    0.11</time>
   <time name="diis">    0.81    0.82</time>
   <time name="orth">    0.01    0.01</time>
   <time name="total">    0.99    1.05</time>
   <energy>
    <i name="e_fr_energy">   -370.04397972 </i>
    <i name="e_wo_entrp">   -370.06710504 </i>
    <i name="e_0_energy">   -370.05168816 </i>
   </energy>
  </scstep>
  <scstep>
   <time name="diag">    0.11    0.11</time>
   <time name="diis">    0.73    0.73</time>
   <time name="orth">    0.01    0.01</time>
   <time name="total">    0.91    0.96</time>
   <energy>
    <i name="e_fr_energy">   -370.04400729 </i>
    <i name="e_wo_entrp">   -370.06713974 </i>
    <i name="e_0_energy">   -370.05171811 </i>
   </energy>
  </scstep>
  <scstep>
   <time name="diag">    0.07    0.07</time>
   <time name="diis">    0.60    0.61</time>
   <time name="orth">    0.01    0.01</time>
   <time name="total">    0.75    0.80</time>
   <energy>
    <i name="e_fr_energy">   -370.04402686 </i>
    <i name="e_wo_entrp">   -370.06716931 </i>
    <i name="e_0_energy">   -370.05174101 </i>
   </energy>
  </scstep>
  <scstep>
   <time name="diag">    0.08    0.08</time>
   <time name="diis">    0.52    0.53</time>
   <time name="orth">    0.01    0.01</time>
   <time name="total">    0.68    0.73</time>
   <energy>
    <i name="e_fr_energy">   -370.04404048 </i>
    <i name="e_wo_entrp">   -370.06718205 </i>
    <i name="e_0_energy">   -370.05175434 </i>
   </energy>
  </scstep>
  <scstep>
   <time name="diag">    0.08    0.08</time>
   <time name="diis">    0.43    0.43</time>
   <time name="orth">    0.01    0.01</time>
   <time name="total">    0.59    0.63</time>
   <energy>
    <i name="e_fr_energy">   -370.04405241 </i>
    <i name="e_wo_entrp">   -370.06718919 </i>
    <i name="e_0_energy">   -370.05176467 </i>
   </energy>
  </scstep>
  <scstep>
   <time name="diag">    0.07    0.07</time>
   <time name="diis">    0.36    0.36</time>
   <time name="orth">    0.01    0.01</time>
   <time name="total">    0.47    0.52</time>
   <energy>
    <i name="alphaZ">   1489.02875386 </i>
    <i name="ewald"> -18373.22017525 </i>
    <i name="hartreedc">  -6101.91547157 </i>
    <i name="XCdc">   -471.27419228 </i>
    <i name="pawpsdc">  32642.84486993 </i>
    <i name="pawaedc"> -30925.23140745 </i>
    <i name="eentropy">      0.02313565 </i>
    <i name="bandstr">  -2311.22941134 </i>
    <i name="atom">  23680.92984019 </i>
    <i name="e_fr_energy">   -370.04405828 </i>
    <i name="e_wo_entrp">   -370.06719392 </i>
    <i name="e_0_energy">   -370.05177016 </i>
   </energy>
  </scstep>
  <structure>
   <crystal>
    <varray name="basis" >
     <v>       6.90187774      -0.00133745       0.00228610 </v>
     <v>      -0.00152209      10.16937500      -0.00540336 </v>
     <v>       0.00343281      -0.00558289      10.23395524 </v>
    </varray>
    <i name="volume">    718.29832020 </i>
    <varray name="rec_basis" >
     <v>       0.14488813       0.00002166      -0.00004859 </v>
     <v>       0.00001904       0.09833449       0.00005364 </v>
     <v>      -0.00003236       0.00005191       0.09771397 </v>
    </varray>
   </crystal>
   <varray name="positions" >
    <v>       0.76287851       0.84273940       0.50267993 </v>
    <v>       0.23892849       0.49574739       0.17545396 </v>
    <v>       0.99893986       0.66535505       0.00779381 </v>
    <v>       0.22431206       0.83454651       0.17623277 </v>
    <v>       0.75885691       0.49233934       0.49262401 </v>
    <v>       0.77375319       0.83356667       0.16994647 </v>
    <v>       0.01479871       0.99400918       0.00961602 </v>
    <v>       0.76560900       0.51513841       0.83342960 </v>
    <v>       0.99383446       0.66625984       0.33299254 </v>
    <v>       0.25812035       0.15941421       0.49453592 </v>
    <v>       0.24952728       0.14637048       0.82663233 </v>
    <v>       0.49779467       0.00609496       0.66227011 </v>
    <v>       0.49379208       0.33660784       0.67043218 </v>
    <v>       0.48954589       0.98740325       0.01132278 </v>
    <v>       0.74327683       0.16545462       0.49141090 </v>
    <v>       0.76301571       0.83458800       0.82667018 </v>
    <v>       0.25378539       0.17035299       0.18090356 </v>
    <v>       0.00778329       0.33223428       0.66692263 </v>
    <v>       0.23641583       0.84119672       0.50188536 </v>
    <v>       0.75611970       0.15176688       0.83775614 </v>
    <v>       0.50872632       0.65945567       0.65935252 </v>
    <v>       0.75179295       0.16587247       0.17049979 </v>
    <v>       0.23979424       0.83432755       0.82335898 </v>
    <v>       0.75389899       0.48914833       0.17138587 </v>
    <v>       0.50169201       0.66980026       0.33502507 </v>
    <v>       0.02074845       0.33746860       0.98550039 </v>
    <v>       0.49631697       0.66690973       0.00263007 </v>
    <v>       0.48210343       0.34208476       0.98228050 </v>
    <v>       0.23923757       0.50254105       0.49379125 </v>
    <v>       0.50414688       0.98451660       0.32888082 </v>
    <v>       0.99598462       0.99270381       0.33061158 </v>
    <v>       0.00651213       0.01688434       0.66101328 </v>
    <v>       0.98922016       0.65630014       0.65887617 </v>
    <v>       0.01535015       0.34185988       0.34693023 </v>
    <v>       0.48373154       0.34544987       0.34955434 </v>
    <v>       0.22965039       0.52350094       0.82879093 </v>
   </varray>
  </structure>
  <varray name="forces" >
   <v>       0.00841296       0.00744924      -0.00909744 </v>
   <v>      -0.02831439       0.02089798       0.01476154 </v>
   <v>       0.00939840      -0.01043883      -0.00461328 </v>
   <v>      -0.01504371       0.00328758       0.00436087 </v>
   <v>       0.00607694      -0.01295384      -0.00066017 </v>
   <v>       0.01698685       0.00461039       0.01077489 </v>
   <v>       0.00897954       0.00224231       0.00437482 </v>
   <v>       0.00353279       0.03665289      -0.02267171 </v>
   <v>      -0.00048776       0.00144126       0.00272452 </v>
   <v>      -0.00369671      -0.00519853       0.00119640 </v>
   <v>      -0.03285774      -0.00810043      -0.00913612 </v>
   <v>      -0.00946123       0.02080525       0.00653650 </v>
   <v>      -0.00116126      -0.01187645      -0.03729703 </v>
   <v>      -0.00271833      -0.01759309      -0.01386207 </v>
   <v>       0.00273018      -0.00300620      -0.01061402 </v>
   <v>       0.00040811       0.00588341      -0.00641174 </v>
   <v>      -0.01086095      -0.01788394       0.01600645 </v>
   <v>       0.00555490       0.00923085       0.00928763 </v>
   <v>      -0.00870657       0.00520602      -0.00631758 </v>
   <v>       0.02524273      -0.03353883      -0.01603999 </v>
   <v>       0.00308267      -0.01250181      -0.00311776 </v>
   <v>       0.00324728      -0.02016984       0.01116221 </v>
   <v>      -0.00562585       0.00275019      -0.00095740 </v>
   <v>       0.00920947       0.02169436       0.00899424 </v>
   <v>       0.00366865       0.00695750       0.00198726 </v>
   <v>      -0.01119102       0.01436723       0.00481219 </v>
   <v>      -0.00131637       0.04374607       0.00441015 </v>
   <v>       0.03135380      -0.02738201       0.02984229 </v>
   <v>      -0.00560472      -0.01080528       0.00267159 </v>
   <v>       0.00367894      -0.01115383       0.01240821 </v>
   <v>       0.00007902      -0.01502146       0.00062207 </v>
   <v>      -0.00213020      -0.00833467      -0.01874818 </v>
   <v>      -0.00074958      -0.00122136      -0.00020066 </v>
   <v>       0.00649385       0.01283564      -0.00241733 </v>
   <v>      -0.01676014       0.00363731       0.02137484 </v>
   <v>       0.00854945       0.00348491      -0.00614621 </v>
  </varray>
  <varray name="stress" >
   <v>      -2.74229535       0.04709127       0.01246450 </v>
   <v>       0.04709122      -2.81475305       0.01895009 </v>
   <v>       0.01246446       0.01895005      -2.65658702 </v>
  </varray>
  <energy>
   <i name="e_fr_energy">   -370.04405828 </i>
   <i name="e_wo_entrp">   -370.05177016 </i>
   <i name="e_0_energy">      0.02313565 </i>
  </energy>
  <time name="totalsc">   10.64   11.73</time>
 </calculation>
 <calculation>
  <scstep>
   <time name="dav">    1.03    1.04</time>
   <time name="total">    1.13    1.34</time>
   <energy>
    <i name="alphaZ">   1489.62909895 </i>
    <i name="ewald"> -18375.96997335 </i>
    <i name="hartreedc">  -6102.45593586 </i>
    <i name="XCdc">   -471.16552024 </i>
    <i name="pawpsdc">  32643.01171782 </i>
    <i name="pawaedc"> -30925.37688967 </i>
    <i name="eentropy">      0.02304411 </i>
    <i name="bandstr">  -2308.67051555 </i>
    <i name="atom">  23680.92984019 </i>
    <i name="e_fr_energy">   -370.04513360 </i>
    <i name="e_wo_entrp">   -370.06817772 </i>
    <i name="e_0_energy">   -370.05281497 </i>
   </energy>
  </scstep>
  <scstep>
   <time name="diag">    0.07    0.07</time>
   <time name="diis">    0.66    0.67</time>
   <time name="orth">    0.01    0.01</time>
   <time name="total">    0.81    0.86</time>
   <energy>
    <i name="e_fr_energy">   -370.04511659 </i>
    <i name="e_wo_entrp">   -370.06819114 </i>
    <i name="e_0_energy">   -370.05280810 </i>
   </energy>
  </scstep>
  <scstep>
   <time name="diag">    0.07    0.08</time>
   <time name="diis">    0.75    0.75</time>
   <time name="orth">    0.01    0.01</time>
   <time name="total">    0.91    0.95</time>
   <energy>
    <i name="e_fr_energy">   -370.04500143 </i>
    <i name="e_wo_entrp">   -370.06804404 </i>
    <i name="e_0_energy">   -370.05268230 </i>
   </energy>
  </scstep>
  <scstep>
   <time name="diag">    0.08    0.08</time>
   <time name="diis">    0.73    0.74</time>
   <time name="orth">    0.01    0.01</time>
   <time name="total">    0.88    0.95</time>
   <energy>
    <i name="e_fr_energy">   -370.04496057 </i>
    <i name="e_wo_entrp">   -370.06800616 </i>
    <i name="e_0_energy">   -370.05264243 </i>
   </energy>
  </scstep>
  <scstep>
   <time name="diag">    0.07    0.08</time>
   <time name="diis">    0.44    0.44</time>
   <time name="orth">    0.01    0.01</time>
   <time name="total">    0.56    0.61</time>
   <energy>
    <i name="alphaZ">   1489.62909895 </i>
    <i name="ewald"> -18375.96997335 </i>
    <i name="hartreedc">  -6100.90108004 </i>
    <i name="XCdc">   -471.23067021 </i>
    <i name="pawpsdc">  32662.97063131 </i>
    <i name="pawaedc"> -30945.36698691 </i>
    <i name="eentropy">      0.02305286 </i>
    <i name="bandstr">  -2310.12886704 </i>
    <i name="atom">  23680.92984019 </i>
    <i name="e_fr_energy">   -370.04495425 </i>
    <i name="e_wo_entrp">   -370.06800711 </i>
    <i name="e_0_energy">   -370.05263853 </i>
   </energy>
  </scstep>
  <structure>
   <crystal>
    <varray name="basis" >
     <v>       6.90102425      -0.00127621       0.00218076 </v>
     <v>      -0.00143189      10.16787690      -0.00537899 </v>
     <v>       0.00327660      -0.00555826      10.23260323 </v>
    </varray>
    <i name="volume">    718.00883413 </i>
    <varray name="rec_basis" >
     <v>       0.14490604       0.00002038      -0.00004639 </v>
     <v>       0.00001817       0.09834898       0.00005342 </v>
     <v>      -0.00003087       0.00005169       0.09772688 </v>
    </varray>
   </crystal>
   <varray name="positions" >
    <v>       0.76291370       0.84274903       0.50266931 </v>
    <v>       0.23883058       0.49582450       0.17552668 </v>
    <v>       0.99895663       0.66531951       0.00778371 </v>
    <v>       0.22430258       0.83454264       0.17623842 </v>
    <v>       0.75886658       0.49232457       0.49262989 </v>
    <v>       0.77376875       0.83356440       0.16997489 </v>
    <v>       0.01482180       0.99402897       0.00961722 </v>
    <v>       0.76567252       0.51522547       0.83336231 </v>
    <v>       0.99383095       0.66624220       0.33298696 </v>
    <v>       0.25810607       0.15939474       0.49453432 </v>
    <v>       0.24939510       0.14631254       0.82657683 </v>
    <v>       0.49777777       0.00614181       0.66229407 </v>
    <v>       0.49379819       0.33658552       0.67028377 </v>
    <v>       0.48954247       0.98733041       0.01130108 </v>
    <v>       0.74327617       0.16544509       0.49139958 </v>
    <v>       0.76302176       0.83460003       0.82665389 </v>
    <v>       0.25373839       0.17030598       0.18095367 </v>
    <v>       0.00778348       0.33224972       0.66695853 </v>
    <v>       0.23638602       0.84120503       0.50187772 </v>
    <v>       0.75621617       0.15170969       0.83771550 </v>
    <v>       0.50872249       0.65942592       0.65935537 </v>
    <v>       0.75181416       0.16582746       0.17052565 </v>
    <v>       0.23977089       0.83432894       0.82334698 </v>
    <v>       0.75392121       0.48919214       0.17139553 </v>
    <v>       0.50170123       0.66979865       0.33500728 </v>
    <v>       0.02062782       0.33748428       0.98551037 </v>
    <v>       0.49631509       0.66705873       0.00264609 </v>
    <v>       0.48228490       0.34199867       0.98239686 </v>
    <v>       0.23924427       0.50253275       0.49381092 </v>
    <v>       0.50415594       0.98452015       0.32888791 </v>
    <v>       0.99599594       0.99270799       0.33060821 </v>
    <v>       0.00650823       0.01688515       0.66100833 </v>
    <v>       0.98919910       0.65628376       0.65890139 </v>
    <v>       0.01536349       0.34188039       0.34690792 </v>
    <v>       0.48369853       0.34544792       0.34959607 </v>
    <v>       0.22966600       0.52353524       0.82874974 </v>
   </varray>
  </structure>
  <varray name="forces" >
   <v>       0.00482615       0.00583467      -0.00883150 </v>
   <v>      -0.02325393       0.01569951       0.00555211 </v>
   <v>       0.00982755      -0.00659013      -0.00549947 </v>
   <v>      -0.01255351       0.00313728       0.00409584 </v>
   <v>       0.00477852      -0.01265982       0.00015841 </v>
   <v>       0.01477902       0.00545947       0.00833775 </v>
   <v>       0.00754803       0.00157791       0.00358152 </v>
   <v>      -0.00517499       0.03029242      -0.01769459 </v>
   <v>      -0.00044234       0.00392984       0.00594391 </v>
   <v>      -0.00393637      -0.00280651       0.00193012 </v>
   <v>      -0.02660744       0.00161842      -0.00163022 </v>
   <v>      -0.00854558       0.01747435       0.00436346 </v>
   <v>      -0.00139637      -0.01173491      -0.02315798 </v>
   <v>      -0.00172357      -0.01012342      -0.01540169 </v>
   <v>       0.00415024      -0.00191856      -0.01141875 </v>
   <v>      -0.00144531       0.00545337      -0.00604959 </v>
   <v>      -0.00806478      -0.01538120       0.01130804 </v>
   <v>       0.00594918       0.00909521       0.00664756 </v>
   <v>      -0.00588033       0.00361922      -0.00560460 </v>
   <v>       0.02133459      -0.03142538      -0.01363078 </v>
   <v>       0.00249655      -0.00911436      -0.00451074 </v>
   <v>       0.00143020      -0.01674258       0.00890612 </v>
   <v>      -0.00312324       0.00253350       0.00059661 </v>
   <v>       0.00909184       0.01982572       0.00888241 </v>
   <v>       0.00349360       0.00882129       0.00453241 </v>
   <v>      -0.00535985       0.01365517       0.00527830 </v>
   <v>      -0.00120184       0.03416881       0.00355465 </v>
   <v>       0.02306505      -0.02238837       0.02098561 </v>
   <v>      -0.00537450      -0.01215055       0.00170789 </v>
   <v>       0.00312003      -0.01299274       0.01499998 </v>
   <v>      -0.00072142      -0.01591336       0.00238665 </v>
   <v>      -0.00392999      -0.01314189      -0.02208661 </v>
   <v>       0.00250163       0.00322606      -0.00457939 </v>
   <v>       0.00440062       0.01011948      -0.00089377 </v>
   <v>      -0.01537890       0.00278503       0.01920485 </v>
   <v>       0.01132143      -0.00324293      -0.00196455 </v>
  </varray>
[...]
       <r>    6.6688    1.0000 </r>
       <r>    6.6976    1.0000 </r>
       <r>    6.7366    1.0000 </r>
       <r>    6.8028    1.0000 </r>
       <r>    6.8260    1.0000 </r>
       <r>    6.8513    1.0000 </r>
       <r>    6.9180    1.0000 </r>
       <r>    6.9600    1.0001 </r>
       <r>    7.0012    1.0006 </r>
       <r>    7.0367    1.0016 </r>
       <r>    7.0841    1.0056 </r>
       <r>    7.1058    1.0091 </r>
       <r>    7.1504    1.0202 </r>
       <r>    7.1994    1.0338 </r>
       <r>    7.2145    1.0354 </r>
       <r>    7.2613    1.0153 </r>
       <r>    7.2840    0.9827 </r>
       <r>    7.3133    0.9096 </r>
       <r>    7.3431    0.7963 </r>
       <r>    7.3508    0.7610 </r>
       <r>    7.4011    0.4932 </r>
       <r>    7.4609    0.1851 </r>
       <r>    7.4894    0.0815 </r>
       <r>    7.5090    0.0309 </r>
       <r>    7.5674   -0.0334 </r>
       <r>    7.5837   -0.0355 </r>
       <r>    7.6306   -0.0259 </r>
       <r>    7.6522   -0.0193 </r>
       <r>    7.6768   -0.0127 </r>
       <r>    7.6981   -0.0083 </r>
       <r>    7.7181   -0.0053 </r>
       <r>    7.7607   -0.0017 </r>
       <r>    7.8122   -0.0004 </r>
       <r>    7.8452   -0.0001 </r>
       <r>    7.9233   -0.0000 </r>
       <r>    7.9598   -0.0000 </r>
       <r>    8.0473   -0.0000 </r>
       <r>    8.0900   -0.0000 </r>
       <r>    8.1708   -0.0000 </r>
       <r>    8.1952   -0.0000 </r>
       <r>    8.2340   -0.0000 </r>
       <r>    8.5351   -0.0000 </r>
       <r>    8.6486   -0.0000 </r>
       <r>    8.7437   -0.0000 </r>
       <r>    9.3676   -0.0000 </r>
       <r>    9.3987   -0.0000 </r>
       <r>    9.4608   -0.0000 </r>
       <r>    9.4907   -0.0000 </r>
       <r>    9.5210   -0.0000 </r>
      </set>
     </set>
    </set>
   </array>
  </eigenvalues>
  <separator name="orbital magnetization" >
   <v name="MAGDIPOLOUT">      0.00000000      0.00000000      0.00000000</v>
  </separator>
  <dos>
   <i name="efermi">      7.39987801 </i>
   <total>
    <array>
     <dimension dim="1">gridpoints</dimension>
     <dimension dim="2">spin</dimension>
     <field>energy</field>
     <field>total</field>
     <field>integrated</field>
     <set>
      <set comment="spin 1">
       <r>   -49.6805     0.0000     0.0000 </r>
       <r>   -49.4737     0.0000     0.0000 </r>
       <r>   -49.2668     0.0000     0.0000 </r>
       <r>   -49.0600     0.0000     0.0000 </r>
       <r>   -48.8532     0.0000     0.0000 </r>
       <r>   -48.6464     0.0000     0.0000 </r>
       <r>   -48.4396     0.0000     0.0000 </r>
       <r>   -48.2328    -0.0000    -0.0000 </r>
       <r>   -48.0259    -0.0000    -0.0000 </r>
       <r>   -47.8191    -0.0000    -0.0000 </r>
       <r>   -47.6123    -0.0000    -0.0000 </r>
       <r>   -47.4055    -0.0000    -0.0000 </r>
       <r>   -47.1987    -0.0366    -0.0076 </r>
       <r>   -46.9919    -0.8865    -0.1909 </r>
       <r>   -46.7850    19.7235     3.8882 </r>
       <r>   -46.5782    53.6124    14.9761 </r>
       <r>   -46.3714     5.4872    16.1109 </r>
       <r>   -46.1646    -0.5349    16.0003 </r>
       <r>   -45.9578    -0.0015    16.0000 </r>
       <r>   -45.7510    -0.0000    16.0000 </r>
       <r>   -45.5442    -0.0000    16.0000 </r>
       <r>   -45.3373     0.0000    16.0000 </r>
       <r>   -45.1305     0.0000    16.0000 </r>
       <r>   -44.9237     0.0000    16.0000 </r>
       <r>   -44.7169     0.0000    16.0000 </r>
       <r>   -44.5101     0.0000    16.0000 </r>
       <r>   -44.3033     0.0000    16.0000 </r>
       <r>   -44.0964     0.0000    16.0000 </r>
       <r>   -43.8896     0.0000    16.0000 </r>
       <r>   -43.6828     0.0000    16.0000 </r>
       <r>   -43.4760     0.0000    16.0000 </r>
       <r>   -43.2692     0.0000    16.0000 </r>
       <r>   -43.0624     0.0000    16.0000 </r>
       <r>   -42.8555     0.0000    16.0000 </r>
       <r>   -42.6487     0.0000    16.0000 </r>
       <r>   -42.4419     0.0000    16.0000 </r>
       <r>   -42.2351     0.0000    16.0000 </r>
       <r>   -42.0283    -0.0000    16.0000 </r>
       <r>   -41.8215    -0.0000    16.0000 </r>
       <r>   -41.6146    -0.0000    16.0000 </r>
       <r>   -41.4078    -0.0000    16.0000 </r>
       <r>   -41.2010    -0.0194    15.9960 </r>
       <r>   -40.9942    -1.3584    15.7150 </r>
       <r>   -40.7874    22.6647    20.4025 </r>
       <r>   -40.5806    46.1029    29.9373 </r>
       <r>   -40.3738     0.5172    30.0443 </r>
       <r>   -40.1669    -0.2137    30.0001 </r>
       <r>   -39.9601    -0.0003    30.0000 </r>
       <r>   -39.7533    -0.0000    30.0000 </r>
       <r>   -39.5465    -0.0000    30.0000 </r>
       <r>   -39.3397     0.0000    30.0000 </r>
       <r>   -39.1329     0.0000    30.0000 </r>
       <r>   -38.9260     0.0000    30.0000 </r>
       <r>   -38.7192     0.0000    30.0000 </r>
       <r>   -38.5124     0.0000    30.0000 </r>
       <r>   -38.3056     0.0000    30.0000 </r>
       <r>   -38.0988     0.0000    30.0000 </r>
       <r>   -37.8920     0.0000    30.0000 </r>
       <r>   -37.6851     0.0000    30.0000 </r>
       <r>   -37.4783     0.0000    30.0000 </r>
       <r>   -37.2715     0.0000    30.0000 </r>
       <r>   -37.0647     0.0000    30.0000 </r>
       <r>   -36.8579     0.0000    30.0000 </r>
       <r>   -36.6511     0.0000    30.0000 </r>
       <r>   -36.4443     0.0000    30.0000 </r>
       <r>   -36.2374     0.0000    30.0000 </r>
       <r>   -36.0306     0.0000    30.0000 </r>
       <r>   -35.8238     0.0000    30.0000 </r>
       <r>   -35.6170     0.0000    30.0000 </r>
       <r>   -35.4102     0.0000    30.0000 </r>
       <r>   -35.2034     0.0000    30.0000 </r>
       <r>   -34.9965     0.0000    30.0000 </r>
       <r>   -34.7897     0.0000    30.0000 </r>
       <r>   -34.5829     0.0000    30.0000 </r>
       <r>   -34.3761     0.0000    30.0000 </r>
       <r>   -34.1693     0.0000    30.0000 </r>
       <r>   -33.9625     0.0000    30.0000 </r>
       <r>   -33.7556     0.0000    30.0000 </r>
       <r>   -33.5488     0.0000    30.0000 </r>
       <r>   -33.3420     0.0000    30.0000 </r>
       <r>   -33.1352     0.0000    30.0000 </r>
       <r>   -32.9284     0.0000    30.0000 </r>
       <r>   -32.7216     0.0000    30.0000 </r>
       <r>   -32.5148     0.0000    30.0000 </r>
       <r>   -32.3079     0.0000    30.0000 </r>
       <r>   -32.1011     0.0000    30.0000 </r>
       <r>   -31.8943     0.0000    30.0000 </r>
       <r>   -31.6875     0.0000    30.0000 </r>
       <r>   -31.4807     0.0000    30.0000 </r>
       <r>   -31.2739     0.0000    30.0000 </r>
       <r>   -31.0670     0.0000    30.0000 </r>
       <r>   -30.8602     0.0000    30.0000 </r>
       <r>   -30.6534     0.0000    30.0000 </r>
       <r>   -30.4466     0.0000    30.0000 </r>
       <r>   -30.2398     0.0000    30.0000 </r>
       <r>   -30.0330     0.0000    30.0000 </r>
       <r>   -29.8261     0.0000    30.0000 </r>
       <r>   -29.6193     0.0000    30.0000 </r>
       <r>   -29.4125     0.0000    30.0000 </r>
       <r>   -29.2057     0.0000    30.0000 </r>
       <r>   -28.9989     0.0000    30.0000 </r>
       <r>   -28.7921     0.0000    30.0000 </r>
       <r>   -28.5852     0.0000    30.0000 </r>
       <r>   -28.3784     0.0000    30.0000 </r>
       <r>   -28.1716     0.0000    30.0000 </r>
       <r>   -27.9648     0.0000    30.0000 </r>
       <r>   -27.7580     0.0000    30.0000 </r>
       <r>   -27.5512     0.0000    30.0000 </r>
       <r>   -27.3444     0.0000    30.0000 </r>
       <r>   -27.1375     0.0000    30.0000 </r>
       <r>   -26.9307     0.0000    30.0000 </r>
       <r>   -26.7239     0.0000    30.0000 </r>
       <r>   -26.5171     0.0000    30.0000 </r>
       <r>   -26.3103     0.0000    30.0000 </r>
       <r>   -26.1035     0.0000    30.0000 </r>
       <r>   -25.8966     0.0000    30.0000 </r>
       <r>   -25.6898     0.0000    30.0000 </r>
       <r>   -25.4830     0.0000    30.0000 </r>
       <r>   -25.2762     0.0000    30.0000 </r>
       <r>   -25.0694     0.0000    30.0000 </r>
       <r>   -24.8626     0.0000    30.0000 </r>
       <r>   -24.6557    -0.0000    30.0000 </r>
       <r>   -24.4489    -0.0000    30.0000 </r>
       <r>   -24.2421    -0.0000    30.0000 </r>
       <r>   -24.0353    -0.0000    30.0000 </r>
       <r>   -23.8285    -0.0001    30.0000 </r>
       <r>   -23.6217    -0.0723    29.9850 </r>
       <r>   -23.4149     0.2465    30.0360 </r>
       <r>   -23.2080    13.2331    32.7728 </r>
       <r>   -23.0012    29.1663    38.8049 </r>
       <r>   -22.7944   112.6665    62.1061 </r>
       <r>   -22.5876    55.7080    73.6274 </r>
       <r>   -22.3808    19.3164    77.6224 </r>
       <r>   -22.1740     2.0389    78.0440 </r>
       <r>   -21.9671    -0.2123    78.0001 </r>
       <r>   -21.7603    -0.0006    78.0000 </r>
       <r>   -21.5535    -0.0000    78.0000 </r>
       <r>   -21.3467    -0.0000    78.0000 </r>
       <r>   -21.1399     0.0000    78.0000 </r>
       <r>   -20.9331     0.0000    78.0000 </r>
       <r>   -20.7262     0.0000    78.0000 </r>
       <r>   -20.5194    -0.0000    78.0000 </r>
       <r>   -20.3126    -0.0000    78.0000 </r>
       <r>   -20.1058    -0.0000    78.0000 </r>
       <r>   -19.8990    -0.0000    78.0000 </r>
       <r>   -19.6922    -0.0009    77.9998 </r>
       <r>   -19.4854    -0.2497    77.9482 </r>
       <r>   -19.2785     2.6409    78.4944 </r>
       <r>   -19.0717    19.9999    82.6307 </r>
       <r>   -18.8649    66.2509    96.3324 </r>
       <r>   -18.6581    90.2286   114.9931 </r>
       <r>   -18.4513    24.7984   120.1218 </r>
       <r>   -18.2445    -0.5016   120.0181 </r>
       <r>   -18.0376    -0.0873   120.0000 </r>
       <r>   -17.8308    -0.0001   120.0000 </r>
       <r>   -17.6240    -0.0000   120.0000 </r>
       <r>   -17.4172     0.0000   120.0000 </r>
       <r>   -17.2104     0.0000   120.0000 </r>
       <r>   -17.0036     0.0000   120.0000 </r>
       <r>   -16.7967     0.0000   120.0000 </r>
       <r>   -16.5899     0.0000   120.0000 </r>
       <r>   -16.3831     0.0000   120.0000 </r>
       <r>   -16.1763     0.0000   120.0000 </r>
       <r>   -15.9695     0.0000   120.0000 </r>
       <r>   -15.7627     0.0000   120.0000 </r>
       <r>   -15.5558     0.0000   120.0000 </r>
       <r>   -15.3490     0.0000   120.0000 </r>
       <r>   -15.1422     0.0000   120.0000 </r>
       <r>   -14.9354     0.0000   120.0000 </r>
       <r>   -14.7286     0.0000   120.0000 </r>
       <r>   -14.5218     0.0000   120.0000 </r>
       <r>   -14.3150     0.0000   120.0000 </r>
       <r>   -14.1081     0.0000   120.0000 </r>
       <r>   -13.9013     0.0000   120.0000 </r>
       <r>   -13.6945     0.0000   120.0000 </r>
       <r>   -13.4877     0.0000   120.0000 </r>
       <r>   -13.2809     0.0000   120.0000 </r>
       <r>   -13.0741     0.0000   120.0000 </r>
       <r>   -12.8672     0.0000   120.0000 </r>
       <r>   -12.6604     0.0000   120.0000 </r>
       <r>   -12.4536     0.0000   120.0000 </r>
       <r>   -12.2468     0.0000   120.0000 </r>
       <r>   -12.0400     0.0000   120.0000 </r>
       <r>   -11.8332     0.0000   120.0000 </r>
       <r>   -11.6263     0.0000   120.0000 </r>
       <r>   -11.4195     0.0000   120.0000 </r>
       <r>   -11.2127     0.0000   120.0000 </r>
       <r>   -11.0059     0.0000   120.0000 </r>
       <r>   -10.7991     0.0000   120.0000 </r>
       <r>   -10.5923     0.0000   120.0000 </r>
       <r>   -10.3855     0.0000   120.0000 </r>
       <r>   -10.1786     0.0000   120.0000 </r>
       <r>    -9.9718     0.0000   120.0000 </r>
       <r>    -9.7650     0.0000   120.0000 </r>
       <r>    -9.5582     0.0000   120.0000 </r>
       <r>    -9.3514     0.0000   120.0000 </r>
       <r>    -9.1446     0.0000   120.0000 </r>
       <r>    -8.9377     0.0000   120.0000 </r>
       <r>    -8.7309     0.0000   120.0000 </r>
       <r>    -8.5241     0.0000   120.0000 </r>
       <r>    -8.3173     0.0000   120.0000 </r>
       <r>    -8.1105     0.0000   120.0000 </r>
       <r>    -7.9037     0.0000   120.0000 </r>
       <r>    -7.6968     0.0000   120.0000 </r>
       <r>    -7.4900     0.0000   120.0000 </r>
       <r>    -7.2832     0.0000   120.0000 </r>
       <r>    -7.0764     0.0000   120.0000 </r>
       <r>    -6.8696     0.0000   120.0000 </r>
       <r>    -6.6628     0.0000   120.0000 </r>
       <r>    -6.4560     0.0000   120.0000 </r>
       <r>    -6.2491     0.0000   120.0000 </r>
       <r>    -6.0423     0.0000   120.0000 </r>
       <r>    -5.8355     0.0000   120.0000 </r>
       <r>    -5.6287     0.0000   120.0000 </r>
       <r>    -5.4219     0.0000   120.0000 </r>
       <r>    -5.2151     0.0000   120.0000 </r>
       <r>    -5.0082     0.0000   120.0000 </r>
       <r>    -4.8014     0.0000   120.0000 </r>
       <r>    -4.5946     0.0000   120.0000 </r>
       <r>    -4.3878     0.0000   120.0000 </r>
       <r>    -4.1810     0.0000   120.0000 </r>
       <r>    -3.9742     0.0000   120.0000 </r>
       <r>    -3.7673     0.0000   120.0000 </r>
       <r>    -3.5605     0.0000   120.0000 </r>
       <r>    -3.3537     0.0000   120.0000 </r>
       <r>    -3.1469     0.0000   120.0000 </r>
       <r>    -2.9401     0.0000   120.0000 </r>
       <r>    -2.7333     0.0000   120.0000 </r>
       <r>    -2.5264     0.0000   120.0000 </r>
       <r>    -2.3196     0.0000   120.0000 </r>
       <r>    -2.1128     0.0000   120.0000 </r>
       <r>    -1.9060     0.0000   120.0000 </r>
       <r>    -1.6992     0.0000   120.0000 </r>
       <r>    -1.4924     0.0000   120.0000 </r>
       <r>    -1.2856     0.0000   120.0000 </r>
       <r>    -1.0787     0.0000   120.0000 </r>
       <r>    -0.8719    -0.0000   120.0000 </r>
       <r>    -0.6651    -0.0000   120.0000 </r>
       <r>    -0.4583    -0.0000   120.0000 </r>
       <r>    -0.2515    -0.0000   120.0000 </r>
       <r>    -0.0447    -0.0000   120.0000 </r>
       <r>     0.1622    -0.0009   119.9998 </r>
       <r>     0.3690    -0.0077   119.9982 </r>
       <r>     0.5758     0.2553   120.0510 </r>
       <r>     0.7826     1.0561   120.2695 </r>
       <r>     0.9894     1.5630   120.5927 </r>
       <r>     1.1962     1.8539   120.9761 </r>
       <r>     1.4031     3.5074   121.7015 </r>
       <r>     1.6099     4.1508   122.5600 </r>
       <r>     1.8167     2.2117   123.0174 </r>
       <r>     2.0235     4.9086   124.0326 </r>
       <r>     2.2303     2.8182   124.6154 </r>
       <r>     2.4371     3.4882   125.3368 </r>
       <r>     2.6439     6.1953   126.6181 </r>
       <r>     2.8508     7.8981   128.2516 </r>
       <r>     3.0576     9.2758   130.1699 </r>
       <r>     3.2644     7.6283   131.7476 </r>
       <r>     3.4712     9.0931   133.6282 </r>
       <r>     3.6780    14.5690   136.6413 </r>
       <r>     3.8848    22.4291   141.2800 </r>
       <r>     4.0917    23.9922   146.2420 </r>
       <r>     4.2985    26.0186   151.6230 </r>
       <r>     4.5053    29.5913   157.7430 </r>
       <r>     4.7121    36.7436   165.3421 </r>
       <r>     4.9189    38.8503   173.3770 </r>
       <r>     5.1257    37.0586   181.0413 </r>
       <r>     5.3326    35.4730   188.3777 </r>
       <r>     5.5394    33.5743   195.3214 </r>
       <r>     5.7462    23.5668   200.1954 </r>
       <r>     5.9530    15.4779   203.3964 </r>
       <r>     6.1598    57.5186   215.2922 </r>
       <r>     6.3666    63.9016   228.5081 </r>
       <r>     6.5734    56.9755   240.2915 </r>
       <r>     6.7803    50.9207   250.8227 </r>
       <r>     6.9871    54.7521   262.1463 </r>
       <r>     7.1939    57.6038   274.0597 </r>
       <r>     7.4007    48.2425   284.0370 </r>
       <r>     7.6075    47.5729   293.8758 </r>
       <r>     7.8143    52.0635   304.6434 </r>
       <r>     8.0212    41.8064   313.2896 </r>
       <r>     8.2280    29.1653   319.3215 </r>
       <r>     8.4348    22.5985   323.9952 </r>
       <r>     8.6416    20.7625   328.2892 </r>
       <r>     8.8484    13.7567   331.1343 </r>
       <r>     9.0552    12.2636   333.6706 </r>
       <r>     9.2621    22.3692   338.2969 </r>
       <r>     9.4689    20.6305   342.5637 </r>
       <r>     9.6757     7.3504   344.0838 </r>
       <r>     9.8825    -0.3945   344.0022 </r>
       <r>    10.0893    -0.0109   344.0000 </r>
       <r>    10.2961    -0.0000   344.0000 </r>
       <r>    10.5030    -0.0000   344.0000 </r>
       <r>    10.7098     0.0000   344.0000 </r>
       <r>    10.9166     0.0000   344.0000 </r>
       <r>    11.1234     0.0000   344.0000 </r>
       <r>    11.3302     0.0000   344.0000 </r>
       <r>    11.5370     0.0000   344.0000 </r>
       <r>    11.7438     0.0000   344.0000 </r>
       <r>    11.9507     0.0000   344.0000 </r>
       <r>    12.1575     0.0000   344.0000 </r>
       <r>    12.3643     0.0000   344.0000 </r>
      </set>
     </set>
    </array>
   </total>
  </dos>
 </calculation>
 <structure name="finalpos" >
  <crystal>
   <varray name="basis" >
    <v>       6.89499364      -0.00100901       0.00323835 </v>
    <v>      -0.00103941      10.16346337      -0.00369403 </v>
    <v>       0.00484401      -0.00386271      10.22684932 </v>
   </varray>
   <i name="volume">    716.66680740 </i>
   <varray name="rec_basis" >
    <v>       0.14503280       0.00001481      -0.00006869 </v>
    <v>       0.00001438       0.09839167       0.00003716 </v>
    <v>      -0.00004592       0.00003554       0.09778186 </v>
   </varray>
  </crystal>
  <varray name="positions" >
   <v>       0.76230825       0.84289763       0.50246473 </v>
   <v>       0.23850667       0.49641389       0.17532317 </v>
   <v>       0.99984288       0.66525818       0.00745253 </v>
   <v>       0.22471586       0.83461545       0.17591527 </v>
   <v>       0.75885257       0.49174816       0.49260746 </v>
   <v>       0.77353955       0.83384605       0.17011708 </v>
   <v>       0.01495285       0.99388800       0.00989047 </v>
   <v>       0.76536135       0.51681802       0.83298832 </v>
   <v>       0.99399830       0.66658089       0.33321847 </v>
   <v>       0.25737951       0.15947094       0.49488018 </v>
   <v>       0.24550697       0.14702121       0.82663092 </v>
   <v>       0.49690541       0.00796758       0.66329644 </v>
   <v>       0.49417489       0.33564567       0.67041095 </v>
   <v>       0.48940963       0.98800284       0.00968006 </v>
   <v>       0.74329657       0.16571769       0.49108417 </v>
   <v>       0.76255883       0.83431272       0.82606362 </v>
   <v>       0.25393488       0.16985101       0.18107504 </v>
   <v>       0.00718670       0.33309310       0.66732934 </v>
   <v>       0.23698047       0.84105137       0.50211943 </v>
   <v>       0.75943618       0.15044427       0.83714815 </v>
   <v>       0.50821060       0.65847358       0.65899054 </v>
   <v>       0.75125958       0.16552879       0.17090742 </v>
   <v>       0.24002697       0.83427296       0.82298077 </v>
   <v>       0.75441779       0.48999159       0.17176967 </v>
   <v>       0.50178463       0.67010573       0.33503454 </v>
   <v>       0.01944417       0.33803138       0.98597394 </v>
   <v>       0.49627464       0.66776889       0.00293918 </v>
   <v>       0.48412018       0.34122172       0.98330812 </v>
   <v>       0.23921034       0.50207580       0.49395800 </v>
   <v>       0.50419029       0.98399301       0.32942749 </v>
   <v>       0.99573627       0.99219131       0.33064109 </v>
   <v>       0.00639521       0.01559088       0.65982655 </v>
   <v>       0.99025181       0.65603119       0.65863586 </v>
   <v>       0.01578375       0.34192788       0.34678993 </v>
   <v>       0.48277074       0.34567911       0.34970416 </v>
   <v>       0.23126973       0.52248150       0.82940994 </v>
  </varray>
 </structure>
</modeling>
