<?xml version="1.0" encoding="ISO-8859-1"?>
<modeling>
 <generator>
  <i name="program" type="string">vasp </i>
  <i name="version" type="string">5.4.1  </i>
  <i name="subversion" type="string">05Feb16 (build Jan 29 2020 16:04:39) complex                          parallel </i>
  <i name="platform" type="string">IFC91_ompi </i>
  <i name="date" type="string">2020 06 15 </i>
  <i name="time" type="string">03:42:45 </i>
 </generator>
 <incar>
  <i type="string" name="SYSTEM"> automatically generated by mexm</i>
  <i type="int" name="ISTART">     0</i>
  <i type="string" name="PREC">accurate               ! avoid wrap aro</i>
  <i type="string" name="ALGO"> Fast                   ! blocked Davids</i>
  <i type="int" name="ISPIN">     1</i>
  <i type="int" name="ICHARG">     2</i>
  <i type="int" name="NELM">    70</i>
  <i type="int" name="IBRION">     2</i>
  <i name="EDIFF">      0.00001000</i>
  <i name="EDIFFG">     -0.01000000</i>
  <i type="int" name="NSW">   300</i>
  <i type="int" name="ISIF">     3</i>
  <i type="int" name="ISYM">     1</i>
  <i name="ENCUT">    300.00000000</i>
  <i name="POTIM">      0.15000000</i>
  <i type="string" name="LREAL"> Auto                  ! unpublished met</i>
  <i type="int" name="ISMEAR">     1</i>
  <i name="SIGMA">      0.15000000</i>
  <i type="logical" name="LWAVE"> F  </i>
  <i type="logical" name="LCHARG"> F  </i>
  <i type="logical" name="LVTOT"> F  </i>
  <v type="int" name="KPOINT_BSE">    -1     0     0     0</v>
  <i type="int" name="NELM">    70</i>
 </incar>
 <kpoints>
  <generation param="Gamma">
   <v type="int" name="divisions">       3        3        3 </v>
   <v name="usershift">      0.00000000       0.00000000       0.00000000 </v>
   <v name="genvec1">      0.33333333      -0.00000000      -0.00000000 </v>
   <v name="genvec2">     -0.00000000       0.33333333       0.00000000 </v>
   <v name="genvec3">      0.00000000       0.00000000       0.33333333 </v>
   <v name="shift">      0.00000000       0.00000000       0.00000000 </v>
  </generation>
  <varray name="kpointlist" >
   <v>       0.00000000       0.00000000       0.00000000 </v>
   <v>       0.33333333       0.00000000      -0.00000000 </v>
   <v>       0.00000000       0.33333333       0.00000000 </v>
   <v>       0.33333333       0.33333333       0.00000000 </v>
   <v>      -0.33333333       0.33333333       0.00000000 </v>
   <v>       0.00000000      -0.00000000       0.33333333 </v>
   <v>       0.33333333      -0.00000000       0.33333333 </v>
   <v>      -0.33333333      -0.00000000       0.33333333 </v>
   <v>       0.00000000       0.33333333       0.33333333 </v>
   <v>       0.33333333       0.33333333       0.33333333 </v>
   <v>      -0.33333333       0.33333333       0.33333333 </v>
   <v>       0.00000000      -0.33333333       0.33333333 </v>
   <v>       0.33333333      -0.33333333       0.33333333 </v>
   <v>      -0.33333333      -0.33333333       0.33333333 </v>
  </varray>
  <varray name="weights" >
   <v>       0.03703704 </v>
   <v>       0.07407407 </v>
   <v>       0.07407407 </v>
   <v>       0.07407407 </v>
   <v>       0.07407407 </v>
   <v>       0.07407407 </v>
   <v>       0.07407407 </v>
   <v>       0.07407407 </v>
   <v>       0.07407407 </v>
   <v>       0.07407407 </v>
   <v>       0.07407407 </v>
   <v>       0.07407407 </v>
   <v>       0.07407407 </v>
   <v>       0.07407407 </v>
  </varray>
 </kpoints>
 <parameters>
  <separator name="general" >
   <i type="string" name="SYSTEM">automatically generated by mexm</i>
   <i type="logical" name="LCOMPAT"> F  </i>
  </separator>
  <separator name="electronic" >
   <i type="string" name="PREC">accura</i>
   <i name="ENMAX">    300.00000000</i>
   <i name="ENAUG">    461.25700000</i>
   <i name="EDIFF">      0.00001000</i>
   <i type="int" name="IALGO">    68</i>
   <i type="int" name="IWAVPR">    11</i>
   <i type="int" name="NBANDS">   184</i>
   <i name="NELECT">    302.00000000</i>
   <i type="int" name="TURBO">     0</i>
   <i type="int" name="IRESTART">     0</i>
   <i type="int" name="NREBOOT">     0</i>
   <i type="int" name="NMIN">     0</i>
   <i name="EREF">      0.00000000</i>
   <separator name="electronic smearing" >
    <i type="int" name="ISMEAR">     1</i>
    <i name="SIGMA">      0.15000000</i>
    <i name="KSPACING">      0.50000000</i>
    <i type="logical" name="KGAMMA"> T  </i>
   </separator>
   <separator name="electronic projectors" >
    <i type="logical" name="LREAL"> T  </i>
    <v name="ROPT">     -0.00025000     -0.00025000     -0.00025000     -0.00025000</v>
    <i type="int" name="LMAXPAW">  -100</i>
    <i type="int" name="LMAXMIX">     2</i>
    <i type="logical" name="NLSPLINE"> F  </i>
   </separator>
   <separator name="electronic startup" >
    <i type="int" name="ISTART">     0</i>
    <i type="int" name="ICHARG">     2</i>
    <i type="int" name="INIWAV">     1</i>
   </separator>
   <separator name="electronic spin" >
    <i type="int" name="ISPIN">     1</i>
    <i type="logical" name="LNONCOLLINEAR"> F  </i>
    <v name="MAGMOM">      1.00000000      1.00000000      1.00000000      1.00000000      1.00000000      1.00000000      1.00000000      1.00000000      1.00000000      1.00000000      1.00000000      1.00000000      1.00000000      1.00000000      1.00000000      1.00000000      1.00000000      1.00000000      1.00000000      1.00000000
      1.00000000      1.00000000      1.00000000      1.00000000      1.00000000      1.00000000      1.00000000      1.00000000      1.00000000      1.00000000      1.00000000      1.00000000      1.00000000      1.00000000      1.00000000      1.00000000</v>
    <i name="NUPDOWN">     -1.00000000</i>
    <i type="logical" name="LSORBIT"> F  </i>
    <v name="SAXIS">      0.00000000      0.00000000      1.00000000</v>
    <i type="logical" name="LSPIRAL"> F  </i>
    <v name="QSPIRAL">      0.00000000      0.00000000      0.00000000</v>
    <i type="logical" name="LZEROZ"> F  </i>
   </separator>
   <separator name="electronic exchange-correlation" >
    <i type="logical" name="LASPH"> F  </i>
    <i type="logical" name="LMETAGGA"> F  </i>
   </separator>
   <separator name="electronic convergence" >
    <i type="int" name="NELM">    70</i>
    <i type="int" name="NELMDL">    -5</i>
    <i type="int" name="NELMIN">     2</i>
    <i name="ENINI">    300.00000000</i>
    <separator name="electronic convergence detail" >
     <i type="logical" name="LDIAG"> T  </i>
     <i type="logical" name="LSUBROT"> F  </i>
     <i name="WEIMIN">      0.00100000</i>
     <i name="EBREAK">      0.00000001</i>
     <i name="DEPER">      0.30000000</i>
     <i type="int" name="NRMM">     4</i>
     <i name="TIME">      0.40000000</i>
    </separator>
   </separator>
   <separator name="electronic mixer" >
    <i name="AMIX">      0.40000000</i>
    <i name="BMIX">      1.00000000</i>
    <i name="AMIN">      0.10000000</i>
    <i name="AMIX_MAG">      1.60000000</i>
    <i name="BMIX_MAG">      1.00000000</i>
    <separator name="electronic mixer details" >
     <i type="int" name="IMIX">     4</i>
     <i type="logical" name="MIXFIRST"> F  </i>
     <i type="int" name="MAXMIX">   -45</i>
     <i name="WC">    100.00000000</i>
     <i type="int" name="INIMIX">     1</i>
     <i type="int" name="MIXPRE">     1</i>
     <i type="int" name="MREMOVE">     5</i>
    </separator>
   </separator>
   <separator name="electronic dipolcorrection" >
    <i type="logical" name="LDIPOL"> F  </i>
    <i type="logical" name="LMONO"> F  </i>
    <i type="int" name="IDIPOL">     0</i>
    <i name="EPSILON">      1.00000000</i>
    <v name="DIPOL">   -100.00000000   -100.00000000   -100.00000000</v>
    <i name="EFIELD">      0.00000000</i>
   </separator>
  </separator>
  <separator name="grids" >
   <i type="int" name="NGX">    40</i>
   <i type="int" name="NGY">    60</i>
   <i type="int" name="NGZ">    60</i>
   <i type="int" name="NGXF">    80</i>
   <i type="int" name="NGYF">   120</i>
   <i type="int" name="NGZF">   120</i>
   <i type="logical" name="ADDGRID"> F  </i>
  </separator>
  <separator name="ionic" >
   <i type="int" name="NSW">   300</i>
   <i type="int" name="IBRION">     2</i>
   <i type="int" name="ISIF">     3</i>
   <i name="PSTRESS">      0.00000000</i>
   <i name="EDIFFG">     -0.01000000</i>
   <i type="int" name="NFREE">     1</i>
   <i name="POTIM">      0.15000000</i>
   <i name="SMASS">     -3.00000000</i>
   <i name="SCALEE">      1.00000000</i>
  </separator>
  <separator name="ionic md" >
   <i name="TEBEG">      0.00010000</i>
   <i name="TEEND">      0.00010000</i>
   <i type="int" name="NBLOCK">     1</i>
   <i type="int" name="KBLOCK">   300</i>
   <i type="int" name="NPACO">   256</i>
   <i name="APACO">     16.00000000</i>
  </separator>
  <separator name="symmetry" >
   <i type="int" name="ISYM">     1</i>
   <i name="SYMPREC">      0.00001000</i>
  </separator>
  <separator name="dos" >
   <i type="logical" name="LORBIT"> F  </i>
   <v name="RWIGS">     -1.00000000     -1.00000000     -1.00000000     -1.00000000</v>
   <i type="int" name="NEDOS">   301</i>
   <i name="EMIN">     10.00000000</i>
   <i name="EMAX">    -10.00000000</i>
   <i name="EFERMI">      0.00000000</i>
  </separator>
  <separator name="writing" >
   <i type="int" name="NWRITE">     2</i>
   <i type="logical" name="LWAVE"> F  </i>
   <i type="logical" name="LCHARG"> F  </i>
   <i type="logical" name="LPARD"> F  </i>
   <i type="logical" name="LVTOT"> F  </i>
   <i type="logical" name="LVHAR"> F  </i>
   <i type="logical" name="LELF"> F  </i>
   <i type="logical" name="LOPTICS"> F  </i>
   <v name="STM">      0.00000000      0.00000000      0.00000000      0.00000000      0.00000000      0.00000000      0.00000000</v>
  </separator>
  <separator name="performance" >
   <i type="int" name="NPAR">     4</i>
   <i type="int" name="NSIM">     4</i>
   <i type="int" name="NBLK">    -1</i>
   <i type="logical" name="LPLANE"> T  </i>
   <i type="logical" name="LSCALAPACK"> T  </i>
   <i type="logical" name="LSCAAWARE"> F  </i>
   <i type="logical" name="LSCALU"> F  </i>
   <i type="logical" name="LASYNC"> F  </i>
   <i type="logical" name="LORBITALREAL"> F  </i>
  </separator>
  <separator name="miscellaneous" >
   <i type="int" name="IDIOT">     3</i>
   <i type="logical" name="LMUSIC"> F  </i>
   <v name="POMASS">     92.91000000     91.22400000    180.94800000    178.49000000</v>
   <v name="DARWINR">      0.00000000      0.00000000      0.00000000      0.00000000</v>
   <v name="DARWINV">      1.00000000      1.00000000      1.00000000      1.00000000</v>
   <i type="logical" name="LCORR"> T  </i>
  </separator>
  <i type="logical" name="GGA_COMPAT"> T  </i>
  <i type="logical" name="LBERRY"> F  </i>
  <i type="int" name="ICORELEVEL">     0</i>
  <i type="logical" name="LDAU"> F  </i>
  <i type="int" name="I_CONSTRAINED_M">     0</i>
  <separator name="electronic exchange-correlation" >
   <i type="string" name="GGA">--</i>
   <i type="int" name="VOSKOWN">     0</i>
   <i type="logical" name="LHFCALC"> F  </i>
   <i type="string" name="PRECFOCK"></i>
   <i type="logical" name="LSYMGRAD"> F  </i>
   <i type="logical" name="LHFONE"> F  </i>
   <i type="logical" name="LRHFCALC"> F  </i>
   <i type="logical" name="LTHOMAS"> F  </i>
   <i type="logical" name="LMODELHF"> F  </i>
   <i name="ENCUT4O">     -1.00000000</i>
   <i type="int" name="EXXOEP">     0</i>
   <i type="int" name="FOURORBIT">     0</i>
   <i name="AEXX">      0.00000000</i>
   <i name="HFALPHA">      0.00000000</i>
   <i name="MCALPHA">      0.00000000</i>
   <i name="ALDAX">      1.00000000</i>
   <i name="AGGAX">      1.00000000</i>
   <i name="ALDAC">      1.00000000</i>
   <i name="AGGAC">      1.00000000</i>
   <i type="int" name="NKREDX">     1</i>
   <i type="int" name="NKREDY">     1</i>
   <i type="int" name="NKREDZ">     1</i>
   <i type="logical" name="SHIFTRED"> F  </i>
   <i type="logical" name="ODDONLY"> F  </i>
   <i type="logical" name="EVENONLY"> F  </i>
   <i type="int" name="LMAXFOCK">     0</i>
   <i type="int" name="NMAXFOCKAE">     0</i>
   <i type="logical" name="LFOCKAEDFT"> F  </i>
   <i name="HFSCREEN">      0.00000000</i>
   <i name="HFSCREENC">      0.00000000</i>
   <i type="int" name="NBANDSGWLOW">     0</i>
  </separator>
  <separator name="vdW DFT" >
   <i type="logical" name="LUSE_VDW"> F  </i>
   <i name="Zab_VDW">     -0.84910000</i>
   <i name="PARAM1">      0.12340000</i>
   <i name="PARAM2">      1.00000000</i>
   <i name="PARAM3">      0.00000000</i>
  </separator>
  <separator name="model GW" >
   <i type="int" name="MODEL_GW">     0</i>
   <i name="MODEL_EPS0">     11.78780985</i>
   <i name="MODEL_ALPHA">      1.00000000</i>
  </separator>
  <separator name="linear response parameters" >
   <i type="logical" name="LEPSILON"> F  </i>
   <i type="logical" name="LRPA"> F  </i>
   <i type="logical" name="LNABLA"> F  </i>
   <i type="logical" name="LVEL"> F  </i>
   <i type="int" name="KINTER">     0</i>
   <i name="CSHIFT">      0.10000000</i>
   <i name="OMEGAMAX">     -1.00000000</i>
   <i name="DEG_THRESHOLD">      0.00200000</i>
  </separator>
  <separator name="orbital magnetization" >
   <i type="logical" name="NUCIND"> F  </i>
   <v name="MAGPOS">      0.00000000      0.00000000      0.00000000</v>
   <i type="logical" name="LNICSALL"> T  </i>
   <i type="logical" name="ORBITALMAG"> F  </i>
   <i type="logical" name="LMAGBLOCH"> F  </i>
   <i type="logical" name="LCHIMAG"> F  </i>
   <i type="logical" name="LGAUGE"> T  </i>
   <i type="int" name="MAGATOM">     0</i>
   <v name="MAGDIPOL">      0.00000000      0.00000000      0.00000000</v>
   <v name="AVECCONST">      0.00000000      0.00000000      0.00000000</v>
  </separator>
  <separator name="response functions" >
   <i type="logical" name="LADDER"> F  </i>
   <i type="logical" name="LFXC"> F  </i>
   <i type="logical" name="LHARTREE"> T  </i>
   <i type="int" name="IBSE">     0</i>
   <v type="int" name="KPOINT">    -1     0     0     0</v>
   <i type="logical" name="LTCTE"> F  </i>
   <i type="logical" name="LTETE"> F  </i>
   <i type="logical" name="LTRIPLET"> F  </i>
   <i type="logical" name="LFXCEPS"> F  </i>
   <i type="logical" name="LFXHEG"> F  </i>
   <i type="int" name="NATURALO">     0</i>
   <i type="logical" name="L2ORDER"> F  </i>
   <i type="logical" name="LUSEW"> F  </i>
   <i name="ENCUTGW">     -2.00000000</i>
   <i name="ENCUTGWSOFT">     -2.00000000</i>
   <i name="ENCUTLF">     -1.00000000</i>
   <i type="int" name="LMAXMP2">    -1</i>
   <i name="SCISSOR">      0.00000000</i>
   <i type="int" name="NOMEGA">     0</i>
   <i type="int" name="NOMEGAR">     0</i>
   <i type="int" name="NBANDSGW">    -1</i>
   <i type="int" name="NBANDSO">    -1</i>
   <i type="int" name="NBANDSV">    -1</i>
   <i type="int" name="NELM">    70</i>
   <i type="int" name="NELMHF">     1</i>
   <i type="int" name="DIM">     3</i>
   <i type="int" name="ANTIRES">     0</i>
   <i name="OMEGAMAX">    -30.00000000</i>
   <i name="OMEGAMIN">    -30.00000000</i>
   <i name="OMEGATL">   -200.00000000</i>
   <i type="int" name="OMEGAGRID">     0</i>
   <i name="CSHIFT">     -0.10000000</i>
   <i type="logical" name="SELFENERGY"> F  </i>
   <i type="logical" name="LSPECTRAL"> F  </i>
   <i type="logical" name="LSPECTRALGW"> F  </i>
   <i type="logical" name="LSINGLES"> F  </i>
   <i type="logical" name="LFERMIGW"> F  </i>
   <i type="logical" name="ODDONLYGW"> F  </i>
   <i type="logical" name="EVENONLYGW"> F  </i>
   <i type="int" name="NKREDLFX">     1</i>
   <i type="int" name="NKREDLFY">     1</i>
   <i type="int" name="NKREDLFZ">     1</i>
   <i type="int" name="MAXMEM">  1800</i>
   <i type="int" name="TELESCOPE">     0</i>
   <i type="int" name="TAUPAR">     1</i>
   <i type="int" name="OMEGAPAR">    -1</i>
   <i name="LAMBDA">      1.00000000</i>
  </separator>
  <separator name="External order field" >
   <i name="OFIELD_KAPPA">      0.00000000</i>
   <v name="OFIELD_K">      0.00000000      0.00000000      0.00000000</v>
   <i name="OFIELD_Q6_NEAR">      0.00000000</i>
   <i name="OFIELD_Q6_FAR">      0.00000000</i>
   <i name="OFIELD_A">      0.00000000</i>
  </separator>
 </parameters>
 <atominfo>
  <atoms>      36 </atoms>
  <types>       4 </types>
  <array name="atoms" >
   <dimension dim="1">ion</dimension>
   <field type="string">element</field>
   <field type="int">atomtype</field>
   <set>
    <rc><c>Nb</c><c>   1</c></rc>
    <rc><c>Nb</c><c>   1</c></rc>
    <rc><c>Nb</c><c>   1</c></rc>
    <rc><c>Nb</c><c>   1</c></rc>
    <rc><c>Nb</c><c>   1</c></rc>
    <rc><c>Nb</c><c>   1</c></rc>
    <rc><c>Nb</c><c>   1</c></rc>
    <rc><c>Nb</c><c>   1</c></rc>
    <rc><c>Nb</c><c>   1</c></rc>
    <rc><c>Nb</c><c>   1</c></rc>
    <rc><c>Nb</c><c>   1</c></rc>
    <rc><c>Nb</c><c>   1</c></rc>
    <rc><c>Zr</c><c>   2</c></rc>
    <rc><c>Zr</c><c>   2</c></rc>
    <rc><c>Zr</c><c>   2</c></rc>
    <rc><c>Zr</c><c>   2</c></rc>
    <rc><c>Zr</c><c>   2</c></rc>
    <rc><c>Ta</c><c>   3</c></rc>
    <rc><c>Ta</c><c>   3</c></rc>
    <rc><c>Ta</c><c>   3</c></rc>
    <rc><c>Ta</c><c>   3</c></rc>
    <rc><c>Ta</c><c>   3</c></rc>
    <rc><c>Ta</c><c>   3</c></rc>
    <rc><c>Ta</c><c>   3</c></rc>
    <rc><c>Ta</c><c>   3</c></rc>
    <rc><c>Ta</c><c>   3</c></rc>
    <rc><c>Ta</c><c>   3</c></rc>
    <rc><c>Hf</c><c>   4</c></rc>
    <rc><c>Hf</c><c>   4</c></rc>
    <rc><c>Hf</c><c>   4</c></rc>
    <rc><c>Hf</c><c>   4</c></rc>
    <rc><c>Hf</c><c>   4</c></rc>
    <rc><c>Hf</c><c>   4</c></rc>
    <rc><c>Hf</c><c>   4</c></rc>
    <rc><c>Hf</c><c>   4</c></rc>
    <rc><c>Hf</c><c>   4</c></rc>
   </set>
  </array>
  <array name="atomtypes" >
   <dimension dim="1">type</dimension>
   <field type="int">atomspertype</field>
   <field type="string">element</field>
   <field>mass</field>
   <field>valence</field>
   <field type="string">pseudopotential</field>
   <set>
    <rc><c>  12</c><c>Nb</c><c>     92.91000000</c><c>     13.00000000</c><c>  PAW_PBE Nb_sv 25May2007               </c></rc>
    <rc><c>   5</c><c>Zr</c><c>     91.22400000</c><c>     12.00000000</c><c>  PAW_PBE Zr_sv 04Jan2005               </c></rc>
    <rc><c>  10</c><c>Ta</c><c>    180.94800000</c><c>      5.00000000</c><c>  PAW_PBE Ta 17Jan2003                  </c></rc>
    <rc><c>   9</c><c>Hf</c><c>    178.49000000</c><c>      4.00000000</c><c>  PAW_PBE Hf 20Jan2003                  </c></rc>
   </set>
  </array>
 </atominfo>
 <structure name="initialpos" >
  <crystal>
   <varray name="basis" >
    <v>       6.79283114       0.00772689       0.00455932 </v>
    <v>       0.01166267      10.20877096      -0.02986002 </v>
    <v>       0.00693874      -0.02967047      10.19916347 </v>
   </varray>
   <i name="volume">    707.26859089 </i>
   <varray name="rec_basis" >
    <v>       0.14721428      -0.00016847      -0.00010064 </v>
    <v>      -0.00011162       0.09795595       0.00028504 </v>
    <v>      -0.00006614       0.00028686       0.09804814 </v>
   </varray>
  </crystal>
  <varray name="positions" >
   <v>       0.50441400       0.99968500       0.32914800 </v>
   <v>       0.99371100       0.00473000       0.33290600 </v>
   <v>       0.25244600       0.16237000       0.48981500 </v>
   <v>       0.00246400       0.01455200       0.65886200 </v>
   <v>       0.00723700       0.66375800       0.33321300 </v>
   <v>       0.00219700       0.65801500       0.66877700 </v>
   <v>       0.74646200       0.16146900       0.49050200 </v>
   <v>       0.49758000       0.00796900       0.65092600 </v>
   <v>       0.49681400       0.65730400       0.66570900 </v>
   <v>       0.99855400       0.32993400       0.34766600 </v>
   <v>       0.50029600       0.33367000       0.34071800 </v>
   <v>       0.75647700       0.51896700       0.82728900 </v>
   <v>       0.25783500       0.14491000       0.83407500 </v>
   <v>       0.00808200       0.34262300       0.98370300 </v>
   <v>       0.50053500       0.98346800       0.02056500 </v>
   <v>       0.50282600       0.33675000       0.66487300 </v>
   <v>       0.49558900       0.66719600       0.00607400 </v>
   <v>       0.23256700       0.49180400       0.17694900 </v>
   <v>       0.24763700       0.50427300       0.49770500 </v>
   <v>       0.24521400       0.52295200       0.82308200 </v>
   <v>       0.00618800       0.67117400       0.00050200 </v>
   <v>       0.22375500       0.83679200       0.17814300 </v>
   <v>       0.75369300       0.50384900       0.49254400 </v>
   <v>       0.77539800       0.83339800       0.17842600 </v>
   <v>       0.99934400       0.98521300       0.00988700 </v>
   <v>       0.75470400       0.16942500       0.17034200 </v>
   <v>       0.24100800       0.83083300       0.82407000 </v>
   <v>       0.75228700       0.83524300       0.82290300 </v>
   <v>       0.49540800       0.34669000       0.99431600 </v>
   <v>       0.24293600       0.17211200       0.17291000 </v>
   <v>       0.99879800       0.33359200       0.66128900 </v>
   <v>       0.24465400       0.83529100       0.50542200 </v>
   <v>       0.74665700       0.15062300       0.83968200 </v>
   <v>       0.49302700       0.66616400       0.32674500 </v>
   <v>       0.76858400       0.49038400       0.17760200 </v>
   <v>       0.75462000       0.83282100       0.50266100 </v>
  </varray>
 </structure>
 <calculation>
  <scstep>
   <time name="dav">    1.18    1.18</time>
   <time name="total">    1.33    1.60</time>
   <energy>
    <i name="alphaZ">   1614.65661508 </i>
    <i name="ewald"> -20659.40349096 </i>
    <i name="hartreedc">  -7324.33526392 </i>
    <i name="XCdc">   -212.50456963 </i>
    <i name="pawpsdc">  22830.61851997 </i>
    <i name="pawaedc"> -21238.29431994 </i>
    <i name="eentropy">     -0.00214491 </i>
    <i name="bandstr">   -123.21711085 </i>
    <i name="atom">  27071.80873402 </i>
    <i name="e_fr_energy">   1959.32696886 </i>
    <i name="e_wo_entrp">   1959.32911377 </i>
    <i name="e_0_energy">   1959.32768383 </i>
   </energy>
  </scstep>
  <scstep>
   <time name="dav">    1.27    1.27</time>
   <time name="total">    1.27    1.40</time>
   <energy>
    <i name="e_fr_energy">   -103.53528883 </i>
    <i name="e_wo_entrp">   -103.53353364 </i>
    <i name="e_0_energy">   -103.53470377 </i>
   </energy>
  </scstep>
  <scstep>
   <time name="dav">    1.63    1.65</time>
   <time name="total">    1.63    1.68</time>
   <energy>
    <i name="e_fr_energy">   -355.35698211 </i>
    <i name="e_wo_entrp">   -355.36669495 </i>
    <i name="e_0_energy">   -355.36021972 </i>
   </energy>
  </scstep>
  <scstep>
   <time name="dav">    1.45    1.47</time>
   <time name="total">    1.45    1.50</time>
   <energy>
    <i name="e_fr_energy">   -382.96049481 </i>
    <i name="e_wo_entrp">   -382.98230381 </i>
    <i name="e_0_energy">   -382.96776447 </i>
   </energy>
  </scstep>
  <scstep>
   <time name="dav">    1.47    1.48</time>
   <time name="total">    1.53    1.57</time>
   <energy>
    <i name="e_fr_energy">   -385.67537107 </i>
    <i name="e_wo_entrp">   -385.69517718 </i>
    <i name="e_0_energy">   -385.68197311 </i>
   </energy>
  </scstep>
  <scstep>
   <time name="diag">    0.10    0.10</time>
   <time name="diis">    0.73    0.73</time>
   <time name="orth">    0.01    0.01</time>
   <time name="total">    0.91    0.96</time>
   <energy>
    <i name="e_fr_energy">   -374.91168118 </i>
    <i name="e_wo_entrp">   -374.93172123 </i>
    <i name="e_0_energy">   -374.91836120 </i>
   </energy>
  </scstep>
  <scstep>
   <time name="diag">    0.08    0.08</time>
   <time name="diis">    0.81    0.81</time>
   <time name="orth">    0.01    0.01</time>
   <time name="total">    0.97    1.00</time>
   <energy>
    <i name="e_fr_energy">   -376.70191869 </i>
    <i name="e_wo_entrp">   -376.69614768 </i>
    <i name="e_0_energy">   -376.69999502 </i>
   </energy>
  </scstep>
  <scstep>
   <time name="diag">    0.08    0.08</time>
   <time name="diis">    0.80    0.81</time>
   <time name="orth">    0.01    0.01</time>
   <time name="total">    0.97    1.00</time>
   <energy>
    <i name="e_fr_energy">   -370.67200275 </i>
    <i name="e_wo_entrp">   -370.69585397 </i>
    <i name="e_0_energy">   -370.67995316 </i>
   </energy>
  </scstep>
  <scstep>
   <time name="diag">    0.08    0.08</time>
   <time name="diis">    0.82    0.83</time>
   <time name="orth">    0.01    0.01</time>
   <time name="total">    0.99    1.02</time>
   <energy>
    <i name="e_fr_energy">   -370.56209198 </i>
    <i name="e_wo_entrp">   -370.58029936 </i>
    <i name="e_0_energy">   -370.56816111 </i>
   </energy>
  </scstep>
  <scstep>
   <time name="diag">    0.08    0.08</time>
   <time name="diis">    0.90    0.91</time>
   <time name="orth">    0.01    0.01</time>
   <time name="total">    1.07    1.10</time>
   <energy>
    <i name="e_fr_energy">   -370.49359307 </i>
    <i name="e_wo_entrp">   -370.51444620 </i>
    <i name="e_0_energy">   -370.50054411 </i>
   </energy>
  </scstep>
  <scstep>
   <time name="diag">    0.08    0.08</time>
   <time name="diis">    0.82    0.82</time>
   <time name="orth">    0.01    0.01</time>
   <time name="total">    1.07    1.10</time>
   <energy>
    <i name="e_fr_energy">   -370.45055681 </i>
    <i name="e_wo_entrp">   -370.47140334 </i>
    <i name="e_0_energy">   -370.45750566 </i>
   </energy>
  </scstep>
  <scstep>
   <time name="diag">    0.14    0.14</time>
   <time name="diis">    0.90    0.92</time>
   <time name="orth">    0.01    0.01</time>
   <time name="total">    1.12    1.18</time>
   <energy>
    <i name="e_fr_energy">   -370.44314642 </i>
    <i name="e_wo_entrp">   -370.46282251 </i>
    <i name="e_0_energy">   -370.44970512 </i>
   </energy>
  </scstep>
  <scstep>
   <time name="diag">    0.08    0.08</time>
   <time name="diis">    0.82    0.83</time>
   <time name="orth">    0.01    0.01</time>
   <time name="total">    0.98    1.02</time>
   <energy>
    <i name="e_fr_energy">   -370.44196405 </i>
    <i name="e_wo_entrp">   -370.46238921 </i>
    <i name="e_0_energy">   -370.44877244 </i>
   </energy>
  </scstep>
  <scstep>
   <time name="diag">    0.09    0.10</time>
   <time name="diis">    0.94    0.94</time>
   <time name="orth">    0.01    0.01</time>
   <time name="total">    1.11    1.14</time>
   <energy>
    <i name="e_fr_energy">   -370.44116072 </i>
    <i name="e_wo_entrp">   -370.46134488 </i>
    <i name="e_0_energy">   -370.44788877 </i>
   </energy>
  </scstep>
  <scstep>
   <time name="diag">    0.08    0.08</time>
   <time name="diis">    0.88    0.88</time>
   <time name="orth">    0.01    0.01</time>
   <time name="total">    1.03    1.08</time>
   <energy>
    <i name="e_fr_energy">   -370.44105237 </i>
    <i name="e_wo_entrp">   -370.46123570 </i>
    <i name="e_0_energy">   -370.44778014 </i>
   </energy>
  </scstep>
  <scstep>
   <time name="diag">    0.08    0.08</time>
   <time name="diis">    0.85    0.85</time>
   <time name="orth">    0.01    0.01</time>
   <time name="total">    1.01    1.05</time>
   <energy>
    <i name="e_fr_energy">   -370.44105073 </i>
    <i name="e_wo_entrp">   -370.46119890 </i>
    <i name="e_0_energy">   -370.44776679 </i>
   </energy>
  </scstep>
  <scstep>
   <time name="diag">    0.08    0.08</time>
   <time name="diis">    0.82    0.84</time>
   <time name="orth">    0.01    0.01</time>
   <time name="total">    0.98    1.03</time>
   <energy>
    <i name="e_fr_energy">   -370.44101666 </i>
    <i name="e_wo_entrp">   -370.46125332 </i>
    <i name="e_0_energy">   -370.44776221 </i>
   </energy>
  </scstep>
  <scstep>
   <time name="diag">    0.08    0.08</time>
   <time name="diis">    0.65    0.66</time>
   <time name="orth">    0.01    0.01</time>
   <time name="total">    0.81    0.85</time>
   <energy>
    <i name="e_fr_energy">   -370.44102621 </i>
    <i name="e_wo_entrp">   -370.46122765 </i>
    <i name="e_0_energy">   -370.44776002 </i>
   </energy>
  </scstep>
  <scstep>
   <time name="diag">    0.08    0.08</time>
   <time name="diis">    0.50    0.50</time>
   <time name="orth">    0.01    0.01</time>
   <time name="total">    0.62    0.65</time>
   <energy>
    <i name="alphaZ">   1614.65661508 </i>
    <i name="ewald"> -20659.40349096 </i>
    <i name="hartreedc">  -7088.07471016 </i>
    <i name="XCdc">   -213.06016362 </i>
    <i name="pawpsdc">  34717.26461737 </i>
    <i name="pawaedc"> -33100.83488961 </i>
    <i name="eentropy">      0.02022334 </i>
    <i name="bandstr">  -2712.81796453 </i>
    <i name="atom">  27071.80873402 </i>
    <i name="e_fr_energy">   -370.44102907 </i>
    <i name="e_wo_entrp">   -370.46125241 </i>
    <i name="e_0_energy">   -370.44777018 </i>
   </energy>
  </scstep>
  <structure>
   <crystal>
    <varray name="basis" >
     <v>       6.79283114       0.00772689       0.00455932 </v>
     <v>       0.01166267      10.20877096      -0.02986002 </v>
     <v>       0.00693874      -0.02967047      10.19916347 </v>
    </varray>
    <i name="volume">    707.26859089 </i>
    <varray name="rec_basis" >
     <v>       0.14721428      -0.00016847      -0.00010064 </v>
     <v>      -0.00011162       0.09795595       0.00028504 </v>
     <v>      -0.00006614       0.00028686       0.09804814 </v>
    </varray>
   </crystal>
   <varray name="positions" >
    <v>       0.50441400       0.99968500       0.32914800 </v>
    <v>       0.99371100       0.00473000       0.33290600 </v>
    <v>       0.25244600       0.16237000       0.48981500 </v>
    <v>       0.00246400       0.01455200       0.65886200 </v>
    <v>       0.00723700       0.66375800       0.33321300 </v>
    <v>       0.00219700       0.65801500       0.66877700 </v>
    <v>       0.74646200       0.16146900       0.49050200 </v>
    <v>       0.49758000       0.00796900       0.65092600 </v>
    <v>       0.49681400       0.65730400       0.66570900 </v>
    <v>       0.99855400       0.32993400       0.34766600 </v>
    <v>       0.50029600       0.33367000       0.34071800 </v>
    <v>       0.75647700       0.51896700       0.82728900 </v>
    <v>       0.25783500       0.14491000       0.83407500 </v>
    <v>       0.00808200       0.34262300       0.98370300 </v>
    <v>       0.50053500       0.98346800       0.02056500 </v>
    <v>       0.50282600       0.33675000       0.66487300 </v>
    <v>       0.49558900       0.66719600       0.00607400 </v>
    <v>       0.23256700       0.49180400       0.17694900 </v>
    <v>       0.24763700       0.50427300       0.49770500 </v>
    <v>       0.24521400       0.52295200       0.82308200 </v>
    <v>       0.00618800       0.67117400       0.00050200 </v>
    <v>       0.22375500       0.83679200       0.17814300 </v>
    <v>       0.75369300       0.50384900       0.49254400 </v>
    <v>       0.77539800       0.83339800       0.17842600 </v>
    <v>       0.99934400       0.98521300       0.00988700 </v>
    <v>       0.75470400       0.16942500       0.17034200 </v>
    <v>       0.24100800       0.83083300       0.82407000 </v>
    <v>       0.75228700       0.83524300       0.82290300 </v>
    <v>       0.49540800       0.34669000       0.99431600 </v>
    <v>       0.24293600       0.17211200       0.17291000 </v>
    <v>       0.99879800       0.33359200       0.66128900 </v>
    <v>       0.24465400       0.83529100       0.50542200 </v>
    <v>       0.74665700       0.15062300       0.83968200 </v>
    <v>       0.49302700       0.66616400       0.32674500 </v>
    <v>       0.76858400       0.49038400       0.17760200 </v>
    <v>       0.75462000       0.83282100       0.50266100 </v>
   </varray>
  </structure>
  <varray name="forces" >
   <v>       0.00547084      -0.01063960      -0.00040867 </v>
   <v>      -0.00343473      -0.00525256      -0.01414445 </v>
   <v>      -0.01148212       0.01467344      -0.00970529 </v>
   <v>      -0.04759009      -0.02045009       0.04271055 </v>
   <v>       0.00156570       0.00778309      -0.00817748 </v>
   <v>      -0.00344428      -0.00683063       0.03380895 </v>
   <v>       0.00395382       0.00220935       0.00766350 </v>
   <v>       0.03613133      -0.02040365       0.03154281 </v>
   <v>       0.01125963       0.01343937       0.03745550 </v>
   <v>      -0.01143672       0.00804607      -0.00622585 </v>
   <v>       0.01253710       0.00374449       0.00640443 </v>
   <v>      -0.01118666       0.12578694      -0.01216103 </v>
   <v>      -0.00519727       0.03313238      -0.01273564 </v>
   <v>      -0.00961012       0.00586862       0.00189435 </v>
   <v>       0.00640926      -0.00716904      -0.00487138 </v>
   <v>       0.00589751      -0.00428575       0.01653994 </v>
   <v>       0.00158436       0.00411374      -0.02699236 </v>
   <v>       0.01024005      -0.01157112       0.00479192 </v>
   <v>       0.00217512      -0.01883851      -0.01255507 </v>
   <v>       0.00692652      -0.01378023      -0.00687735 </v>
   <v>      -0.03773538       0.03623630      -0.05070063 </v>
   <v>      -0.00668608      -0.01271436       0.01328087 </v>
   <v>      -0.00270359      -0.02648807      -0.01314988 </v>
   <v>       0.00904148       0.02483550      -0.03290835 </v>
   <v>      -0.04564420      -0.04063441      -0.03182624 </v>
   <v>       0.00531925       0.00560752       0.00119045 </v>
   <v>      -0.03549254       0.01075085       0.00900812 </v>
   <v>       0.11817068      -0.01261175      -0.05935227 </v>
   <v>       0.00912747       0.00115779      -0.00561574 </v>
   <v>       0.00208806       0.00923161      -0.00616042 </v>
   <v>      -0.00288233       0.00623110       0.00811031 </v>
   <v>      -0.00534740       0.00346080      -0.01693983 </v>
   <v>      -0.00671325      -0.10550130      -0.00915067 </v>
   <v>       0.00307107       0.00474128       0.00036431 </v>
   <v>      -0.00271303      -0.00907676       0.01664948 </v>
   <v>      -0.00166948       0.00519761       0.10924312 </v>
  </varray>
  <varray name="stress" >
   <v>      -1.75866807      -0.21497786      -0.25859529 </v>
   <v>      -0.21497786      -1.48108893       0.21576794 </v>
   <v>      -0.25859523       0.21576800      -1.30195741 </v>
  </varray>
  <energy>
   <i name="e_fr_energy">   -370.44102907 </i>
   <i name="e_wo_entrp">   -370.44777018 </i>
   <i name="e_0_energy">      0.02022334 </i>
  </energy>
  <time name="totalsc">   22.62   23.76</time>
 </calculation>
 <calculation>
  <scstep>
   <time name="dav">    1.21    1.22</time>
   <time name="total">    1.35    1.47</time>
   <energy>
    <i name="alphaZ">   1615.95876429 </i>
    <i name="ewald"> -20665.33897706 </i>
    <i name="hartreedc">  -7089.59779602 </i>
    <i name="XCdc">   -212.81283435 </i>
    <i name="pawpsdc">  34717.61009107 </i>
    <i name="pawaedc"> -33101.17506839 </i>
    <i name="eentropy">      0.02012457 </i>
    <i name="bandstr">  -2706.91693166 </i>
    <i name="atom">  27071.80873402 </i>
    <i name="e_fr_energy">   -370.44389353 </i>
    <i name="e_wo_entrp">   -370.46401810 </i>
    <i name="e_0_energy">   -370.45060172 </i>
   </energy>
  </scstep>
  <scstep>
   <time name="diag">    0.09    0.09</time>
   <time name="diis">    0.81    0.82</time>
   <time name="orth">    0.01    0.01</time>
   <time name="total">    1.13    1.18</time>
   <energy>
    <i name="e_fr_energy">   -370.44313445 </i>
    <i name="e_wo_entrp">   -370.46315186 </i>
    <i name="e_0_energy">   -370.44980692 </i>
   </energy>
  </scstep>
  <scstep>
   <time name="diag">    0.08    0.08</time>
   <time name="diis">    0.92    0.92</time>
   <time name="orth">    0.01    0.01</time>
   <time name="total">    1.08    1.12</time>
   <energy>
    <i name="e_fr_energy">   -370.44280024 </i>
    <i name="e_wo_entrp">   -370.46298718 </i>
    <i name="e_0_energy">   -370.44952922 </i>
   </energy>
  </scstep>
  <scstep>
   <time name="diag">    0.13    0.14</time>
   <time name="diis">    0.81    0.82</time>
   <time name="orth">    0.01    0.01</time>
   <time name="total">    1.05    1.08</time>
   <energy>
    <i name="e_fr_energy">   -370.44256297 </i>
    <i name="e_wo_entrp">   -370.46265867 </i>
    <i name="e_0_energy">   -370.44926154 </i>
   </energy>
  </scstep>
  <scstep>
   <time name="diag">    0.08    0.08</time>
   <time name="diis">    0.74    0.75</time>
   <time name="orth">    0.01    0.01</time>
   <time name="total">    0.91    0.94</time>
   <energy>
    <i name="e_fr_energy">   -370.44253850 </i>
    <i name="e_wo_entrp">   -370.46260748 </i>
    <i name="e_0_energy">   -370.44922816 </i>
   </energy>
  </scstep>
  <scstep>
   <time name="diag">    0.08    0.08</time>
   <time name="diis">    0.61    0.62</time>
   <time name="orth">    0.01    0.01</time>
   <time name="total">    0.74    0.77</time>
   <energy>
    <i name="alphaZ">   1615.95876429 </i>
    <i name="ewald"> -20665.33897706 </i>
    <i name="hartreedc">  -7085.86694829 </i>
    <i name="XCdc">   -212.97246174 </i>
    <i name="pawpsdc">  34754.80348329 </i>
    <i name="pawaedc"> -33138.51859218 </i>
    <i name="eentropy">      0.02011790 </i>
    <i name="bandstr">  -2710.33666828 </i>
    <i name="atom">  27071.80873402 </i>
    <i name="e_fr_energy">   -370.44254805 </i>
    <i name="e_wo_entrp">   -370.46266595 </i>
    <i name="e_0_energy">   -370.44925401 </i>
   </energy>
  </scstep>
  <structure>
   <crystal>
    <varray name="basis" >
     <v>       6.79071053       0.00746588       0.00424682 </v>
     <v>       0.01127091      10.20608601      -0.02946274 </v>
     <v>       0.00646964      -0.02927238      10.19680542 </v>
    </varray>
    <i name="volume">    706.69866964 </i>
    <varray name="rec_basis" >
     <v>       0.14726023      -0.00016290      -0.00009390 </v>
     <v>      -0.00010790       0.09798169       0.00028135 </v>
     <v>      -0.00006164       0.00028318       0.09807078 </v>
    </varray>
   </crystal>
   <varray name="positions" >
    <v>       0.50442568       0.99966991       0.32914737 </v>
    <v>       0.99370372       0.00472250       0.33288591 </v>
    <v>       0.25242151       0.16239078       0.48980130 </v>
    <v>       0.00236259       0.01452326       0.65892257 </v>
    <v>       0.00724033       0.66376900       0.33320143 </v>
    <v>       0.00218963       0.65800546       0.66882495 </v>
    <v>       0.74647041       0.16147216       0.49051288 </v>
    <v>       0.49765699       0.00794015       0.65097064 </v>
    <v>       0.49683790       0.65732319       0.66576220 </v>
    <v>       0.99852962       0.32994540       0.34765721 </v>
    <v>       0.50032269       0.33367531       0.34072709 </v>
    <v>       0.75645288       0.51914530       0.82727228 </v>
    <v>       0.25782386       0.14495693       0.83405707 </v>
    <v>       0.00806151       0.34263134       0.98370572 </v>
    <v>       0.50054868       0.98345781       0.02055805 </v>
    <v>       0.50283855       0.33674398       0.66489645 </v>
    <v>       0.49559240       0.66720172       0.00603571 </v>
    <v>       0.23258884       0.49178760       0.17695574 </v>
    <v>       0.24764170       0.50424624       0.49768710 </v>
    <v>       0.24522880       0.52293242       0.82307218 </v>
    <v>       0.00610759       0.67122522       0.00043024 </v>
    <v>       0.22374077       0.83677404       0.17816180 </v>
    <v>       0.75368732       0.50381140       0.49252523 </v>
    <v>       0.77541725       0.83343306       0.17837940 </v>
    <v>       0.99924690       0.98515534       0.00984171 </v>
    <v>       0.75471532       0.16943295       0.17034371 </v>
    <v>       0.24093234       0.83084834       0.82408286 </v>
    <v>       0.75253889       0.83522468       0.82281861 </v>
    <v>       0.49542745       0.34669160       0.99430803 </v>
    <v>       0.24294044       0.17212506       0.17290129 </v>
    <v>       0.99879183       0.33360087       0.66130054 </v>
    <v>       0.24464262       0.83529585       0.50539798 </v>
    <v>       0.74664297       0.15047340       0.83966858 </v>
    <v>       0.49303353       0.66617072       0.32674553 </v>
    <v>       0.76857822       0.49037120       0.17762559 </v>
    <v>       0.75461627       0.83282882       0.50281604 </v>
   </varray>
  </structure>
  <varray name="forces" >
   <v>       0.00429169      -0.00967471       0.00073479 </v>
   <v>      -0.00257297      -0.00441399      -0.01028560 </v>
   <v>      -0.00890850       0.01349827      -0.00472894 </v>
   <v>      -0.03992043      -0.01911969       0.03985259 </v>
   <v>      -0.00041172       0.00710803      -0.00593524 </v>
   <v>      -0.00151402      -0.00364114       0.02671889 </v>
   <v>       0.00156273       0.00234203       0.00918196 </v>
   <v>       0.03045161      -0.02114719       0.03072165 </v>
   <v>       0.01023877       0.01651800       0.03328005 </v>
   <v>      -0.00843372       0.00421383      -0.00630582 </v>
   <v>       0.00993350       0.00163817       0.00581436 </v>
   <v>      -0.01370723       0.11294344      -0.00818977 </v>
   <v>      -0.00475027       0.03217764      -0.01093525 </v>
   <v>      -0.01288527       0.00449675      -0.00035506 </v>
   <v>       0.00555692      -0.00668767      -0.00958283 </v>
   <v>       0.00554202      -0.00570022       0.01615102 </v>
   <v>       0.00244889       0.00575196      -0.02500966 </v>
   <v>       0.01198210      -0.00904803       0.00193805 </v>
   <v>       0.00411159      -0.01809611      -0.01107830 </v>
   <v>       0.00903010      -0.01779326      -0.00257235 </v>
   <v>      -0.03410248       0.03097771      -0.04309513 </v>
   <v>      -0.00042664      -0.01282406       0.00950848 </v>
   <v>      -0.00442701      -0.02277906      -0.01132964 </v>
   <v>       0.00087328       0.02083650      -0.03067334 </v>
   <v>      -0.03749167      -0.03256801      -0.03093241 </v>
   <v>       0.00346944       0.00516308      -0.00140987 </v>
   <v>      -0.02920879       0.01365545       0.00830452 </v>
   <v>       0.10263618      -0.01109348      -0.05206597 </v>
   <v>       0.01092768      -0.00146487      -0.00713325 </v>
   <v>       0.00323670       0.00798233      -0.00865307 </v>
   <v>      -0.00331845       0.00326899       0.00934768 </v>
   <v>      -0.00317171       0.00447768      -0.01448543 </v>
   <v>      -0.00866390      -0.09446846      -0.00743053 </v>
   <v>       0.00471665       0.00637306       0.00099648 </v>
   <v>      -0.00412361      -0.00704977       0.01220931 </v>
   <v>      -0.00297146       0.00414680       0.09742762 </v>
  </varray>
  <varray name="stress" >
   <v>      -0.65400828      -0.19569283      -0.22458386 </v>
   <v>      -0.19569291      -0.40319532       0.17007087 </v>
   <v>      -0.22458383       0.17007088      -0.27288991 </v>
  </varray>
  <energy>
   <i name="e_fr_energy">   -370.44254805 </i>
   <i name="e_wo_entrp">   -370.44925401 </i>
   <i name="e_0_energy">      0.02011790 </i>
  </energy>
  <time name="totalsc">    8.04    8.46</time>
 </calculation>
 <calculation>
  <scstep>
   <time name="dav">    1.20    1.22</time>
   <time name="total">    1.32    1.47</time>
   <energy>
    <i name="alphaZ">   1619.17550172 </i>
    <i name="ewald"> -20679.96341359 </i>
    <i name="hartreedc">  -7089.67628464 </i>
    <i name="XCdc">   -212.35968102 </i>
    <i name="pawpsdc">  34753.01078746 </i>
    <i name="pawaedc"> -33136.68659446 </i>
    <i name="eentropy">      0.01984255 </i>
    <i name="bandstr">  -2695.78082546 </i>
    <i name="atom">  27071.80873402 </i>
    <i name="e_fr_energy">   -370.45193342 </i>
    <i name="e_wo_entrp">   -370.47177598 </i>
    <i name="e_0_energy">   -370.45854761 </i>
   </energy>
  </scstep>
  <scstep>
   <time name="diag">    0.08    0.08</time>
   <time name="diis">    0.84    0.84</time>
   <time name="orth">    0.01    0.01</time>
   <time name="total">    1.00    1.03</time>
   <energy>
    <i name="e_fr_energy">   -370.44730082 </i>
    <i name="e_wo_entrp">   -370.46686782 </i>
    <i name="e_0_energy">   -370.45382315 </i>
   </energy>
  </scstep>
  <scstep>
   <time name="diag">    0.08    0.08</time>
   <time name="diis">    0.83    0.84</time>
   <time name="orth">    0.01    0.01</time>
   <time name="total">    0.99    1.03</time>
   <energy>
    <i name="e_fr_energy">   -370.44523296 </i>
    <i name="e_wo_entrp">   -370.46522204 </i>
    <i name="e_0_energy">   -370.45189599 </i>
   </energy>
  </scstep>
  <scstep>
   <time name="diag">    0.08    0.08</time>
   <time name="diis">    0.83    0.84</time>
   <time name="orth">    0.01    0.01</time>
   <time name="total">    0.99    1.03</time>
   <energy>
    <i name="e_fr_energy">   -370.44384520 </i>
    <i name="e_wo_entrp">   -370.46362551 </i>
    <i name="e_0_energy">   -370.45043863 </i>
   </energy>
  </scstep>
  <scstep>
   <time name="diag">    0.14    0.14</time>
   <time name="diis">    0.92    0.93</time>
   <time name="orth">    0.01    0.01</time>
   <time name="total">    1.14    1.17</time>
   <energy>
    <i name="e_fr_energy">   -370.44369126 </i>
    <i name="e_wo_entrp">   -370.46340326 </i>
    <i name="e_0_energy">   -370.45026193 </i>
   </energy>
  </scstep>
  <scstep>
   <time name="diag">    0.08    0.08</time>
   <time name="diis">    0.80    0.80</time>
   <time name="orth">    0.01    0.01</time>
   <time name="total">    0.96    0.99</time>
   <energy>
    <i name="e_fr_energy">   -370.44373152 </i>
    <i name="e_wo_entrp">   -370.46356517 </i>
    <i name="e_0_energy">   -370.45034274 </i>
   </energy>
  </scstep>
  <scstep>
   <time name="diag">    0.08    0.08</time>
   <time name="diis">    0.73    0.74</time>
   <time name="orth">    0.01    0.01</time>
   <time name="total">    0.89    0.93</time>
   <energy>
    <i name="e_fr_energy">   -370.44376433 </i>
    <i name="e_wo_entrp">   -370.46353498 </i>
    <i name="e_0_energy">   -370.45035455 </i>
   </energy>
  </scstep>
  <scstep>
   <time name="diag">    0.08    0.08</time>
   <time name="diis">    0.66    0.66</time>
   <time name="orth">    0.01    0.01</time>
   <time name="total">    0.82    0.85</time>
   <energy>
    <i name="e_fr_energy">   -370.44379105 </i>
    <i name="e_wo_entrp">   -370.46355630 </i>
    <i name="e_0_energy">   -370.45037947 </i>
   </energy>
  </scstep>
  <scstep>
   <time name="diag">    0.08    0.08</time>
   <time name="diis">    0.47    0.47</time>
   <time name="orth">    0.01    0.01</time>
   <time name="total">    0.63    0.66</time>
   <energy>
    <i name="e_fr_energy">   -370.44381835 </i>
    <i name="e_wo_entrp">   -370.46359123 </i>
    <i name="e_0_energy">   -370.45040931 </i>
   </energy>
  </scstep>
  <scstep>
   <time name="diag">    0.08    0.08</time>
   <time name="diis">    0.44    0.45</time>
   <time name="orth">    0.01    0.01</time>
   <time name="total">    0.61    0.65</time>
   <energy>
    <i name="e_fr_energy">   -370.44383817 </i>
    <i name="e_wo_entrp">   -370.46361378 </i>
    <i name="e_0_energy">   -370.45043004 </i>
   </energy>
  </scstep>
  <scstep>
   <time name="diag">    0.08    0.08</time>
   <time name="diis">    0.49    0.49</time>
   <time name="orth">    0.01    0.01</time>
   <time name="total">    0.61    0.64</time>
   <energy>
    <i name="alphaZ">   1619.17550172 </i>
    <i name="ewald"> -20679.96341359 </i>
    <i name="hartreedc">  -7081.16180464 </i>
    <i name="XCdc">   -212.72242345 </i>
    <i name="pawpsdc">  34835.77183462 </i>
    <i name="pawaedc"> -33219.21930457 </i>
    <i name="eentropy">      0.01976889 </i>
    <i name="bandstr">  -2704.15273745 </i>
    <i name="atom">  27071.80873402 </i>
    <i name="e_fr_energy">   -370.44384445 </i>
    <i name="e_wo_entrp">   -370.46361334 </i>
    <i name="e_0_energy">   -370.45043408 </i>
   </energy>
  </scstep>
  <structure>
   <crystal>
    <varray name="basis" >
     <v>       6.78548182       0.00682230       0.00347630 </v>
     <v>       0.01030498      10.19946585      -0.02848318 </v>
     <v>       0.00531299      -0.02829085      10.19099127 </v>
    </varray>
    <i name="volume">    705.29470567 </i>
    <varray name="rec_basis" >
     <v>       0.14737366      -0.00014911      -0.00007725 </v>
     <v>      -0.00009872       0.09804521       0.00027223 </v>
     <v>      -0.00005055       0.00027408       0.09812667 </v>
    </varray>
   </crystal>
   <varray name="positions" >
    <v>       0.50445450       0.99963268       0.32914582 </v>
    <v>       0.99368574       0.00470401       0.33283636 </v>
    <v>       0.25236112       0.16244203       0.48976751 </v>
    <v>       0.00211248       0.01445237       0.65907194 </v>
    <v>       0.00724854       0.66379612       0.33317288 </v>
    <v>       0.00217146       0.65798193       0.66894321 </v>
    <v>       0.74649115       0.16147994       0.49053971 </v>
    <v>       0.49784687       0.00786898       0.65108074 </v>
    <v>       0.49689687       0.65737051       0.66589339 </v>
    <v>       0.99846950       0.32997351       0.34763553 </v>
    <v>       0.50038853       0.33368842       0.34074952 </v>
    <v>       0.75639340       0.51958503       0.82723101 </v>
    <v>       0.25779640       0.14507267       0.83401285 </v>
    <v>       0.00801097       0.34265192       0.98371243 </v>
    <v>       0.50058242       0.98343267       0.02054092 </v>
    <v>       0.50286951       0.33672914       0.66495428 </v>
    <v>       0.49560080       0.66721582       0.00594129 </v>
    <v>       0.23264270       0.49174715       0.17697237 </v>
    <v>       0.24765328       0.50418023       0.49764297 </v>
    <v>       0.24526530       0.52288415       0.82304795 </v>
    <v>       0.00590925       0.67135156       0.00025326 </v>
    <v>       0.22370566       0.83672974       0.17820816 </v>
    <v>       0.75367331       0.50371866       0.49247895 </v>
    <v>       0.77546473       0.83351953       0.17826446 </v>
    <v>       0.99900738       0.98501311       0.00973002 </v>
    <v>       0.75474323       0.16945254       0.17034792 </v>
    <v>       0.24074573       0.83088615       0.82411457 </v>
    <v>       0.75316015       0.83517954       0.82261051 </v>
    <v>       0.49547543       0.34669556       0.99428837 </v>
    <v>       0.24295137       0.17215727       0.17287982 </v>
    <v>       0.99877662       0.33362275       0.66132899 </v>
    <v>       0.24461456       0.83530780       0.50533874 </v>
    <v>       0.74660833       0.15010446       0.83963551 </v>
    <v>       0.49304964       0.66618729       0.32674685 </v>
    <v>       0.76856396       0.49033965       0.17768377 </v>
    <v>       0.75460710       0.83284810       0.50319841 </v>
   </varray>
  </structure>
  <varray name="forces" >
   <v>       0.00095767      -0.00650774       0.00488435 </v>
   <v>      -0.00024400      -0.00306041      -0.00042818 </v>
   <v>      -0.00318176       0.01157540       0.00317106 </v>
   <v>      -0.01934733      -0.01149914       0.02687536 </v>
   <v>      -0.00512855       0.00506123       0.00210176 </v>
   <v>       0.00519010       0.00245198       0.00355320 </v>
   <v>      -0.00336072       0.00372957       0.01041467 </v>
   <v>       0.01527776      -0.01970419       0.02333292 </v>
   <v>       0.00596250       0.02204133       0.01939568 </v>
   <v>      -0.00019819      -0.00233177      -0.00851500 </v>
   <v>       0.00290207      -0.00288322       0.00397224 </v>
   <v>      -0.01852636       0.07911787      -0.00012471 </v>
   <v>      -0.00372133       0.03074730      -0.00356091 </v>
   <v>      -0.02105543       0.00229701      -0.00416523 </v>
   <v>       0.00338063      -0.00349139      -0.01628225 </v>
   <v>       0.00506556      -0.00777036       0.01381806 </v>
   <v>       0.00384450       0.00721494      -0.01738931 </v>
   <v>       0.01875878      -0.00329439      -0.00468684 </v>
   <v>       0.00874049      -0.01867736      -0.00792987 </v>
   <v>       0.01292975      -0.03161346       0.00866981 </v>
   <v>      -0.02489200       0.01523929      -0.02420965 </v>
   <v>       0.01327486      -0.01299230       0.00322398 </v>
   <v>      -0.00901184      -0.01717886      -0.00785873 </v>
   <v>      -0.01743879       0.01144178      -0.02249403 </v>
   <v>      -0.01979072      -0.01092221      -0.02429493 </v>
   <v>      -0.00154724       0.00651334      -0.00464555 </v>
   <v>      -0.01707229       0.01802476       0.00722598 </v>
   <v>       0.06872833      -0.00993939      -0.03392568 </v>
   <v>       0.01635312      -0.00543436      -0.00789979 </v>
   <v>       0.00573131       0.00700717      -0.01061460 </v>
   <v>      -0.00492263       0.00017771       0.01104084 </v>
   <v>       0.00137862       0.00447928      -0.01323711 </v>
   <v>      -0.01256480      -0.06238573      -0.00038818 </v>
   <v>       0.00888441       0.00805190       0.00415291 </v>
   <v>      -0.01024760      -0.00419466       0.00258448 </v>
   <v>      -0.00510889      -0.00129090       0.06423325 </v>
  </varray>
  <varray name="stress" >
   <v>       2.58890626      -0.12254518      -0.06322000 </v>
   <v>      -0.12254519       2.74319276       0.02419592 </v>
   <v>      -0.06322002       0.02419589       2.76567047 </v>
  </varray>
  <energy>
   <i name="e_fr_energy">   -370.44384445 </i>
   <i name="e_wo_entrp">   -370.45043408 </i>
   <i name="e_0_energy">      0.01976889 </i>
  </energy>
  <time name="totalsc">   11.64   12.24</time>
 </calculation>
 <calculation>
  <scstep>
   <time name="dav">    0.99    1.00</time>
   <time name="total">    1.09    1.22</time>
   <energy>
    <i name="alphaZ">   1618.83264943 </i>
    <i name="ewald"> -20678.96881154 </i>
    <i name="hartreedc">  -7080.23587341 </i>
    <i name="XCdc">   -212.78548925 </i>
    <i name="pawpsdc">  34835.97965511 </i>
    <i name="pawaedc"> -33219.38086752 </i>
    <i name="eentropy">      0.01978034 </i>
    <i name="bandstr">  -2705.71456193 </i>
    <i name="atom">  27071.80873402 </i>
    <i name="e_fr_energy">   -370.44478474 </i>
    <i name="e_wo_entrp">   -370.46456508 </i>
    <i name="e_0_energy">   -370.45137818 </i>
   </energy>
  </scstep>
  <scstep>
   <time name="diag">    0.10    0.10</time>
   <time name="diis">    0.75    0.80</time>
   <time name="orth">    0.01    0.01</time>
   <time name="total">    0.95    1.04</time>
   <energy>
    <i name="e_fr_energy">   -370.44500187 </i>
    <i name="e_wo_entrp">   -370.46472588 </i>
    <i name="e_0_energy">   -370.45157654 </i>
   </energy>
  </scstep>
  <scstep>
   <time name="diag">    0.09    0.09</time>
   <time name="diis">    0.82    0.86</time>
   <time name="orth">    0.01    0.01</time>
   <time name="total">    1.02    1.09</time>
   <energy>
    <i name="e_fr_energy">   -370.44491298 </i>
    <i name="e_wo_entrp">   -370.46468541 </i>
    <i name="e_0_energy">   -370.45150379 </i>
   </energy>
  </scstep>
  <scstep>
   <time name="diag">    0.08    0.08</time>
   <time name="diis">    0.75    0.75</time>
   <time name="orth">    0.01    0.01</time>
   <time name="total">    0.92    0.95</time>
   <energy>
    <i name="e_fr_energy">   -370.44488794 </i>
    <i name="e_wo_entrp">   -370.46463801 </i>
    <i name="e_0_energy">   -370.45147130 </i>
   </energy>
  </scstep>
  <scstep>
   <time name="diag">    0.10    0.11</time>
   <time name="diis">    0.45    0.46</time>
   <time name="orth">    0.01    0.01</time>
   <time name="total">    0.60    0.66</time>
   <energy>
    <i name="alphaZ">   1618.83264943 </i>
    <i name="ewald"> -20678.96881154 </i>
    <i name="hartreedc">  -7081.24222871 </i>
    <i name="XCdc">   -212.74301191 </i>
    <i name="pawpsdc">  34827.18570513 </i>
    <i name="pawaedc"> -33210.50949443 </i>
    <i name="eentropy">      0.01976314 </i>
    <i name="bandstr">  -2704.82818447 </i>
    <i name="atom">  27071.80873402 </i>
    <i name="e_fr_energy">   -370.44487933 </i>
    <i name="e_wo_entrp">   -370.46464247 </i>
    <i name="e_0_energy">   -370.45146705 </i>
   </energy>
  </scstep>
  <structure>
   <crystal>
    <varray name="basis" >
     <v>       6.78566601       0.00654695       0.00320213 </v>
     <v>       0.00989155      10.20027369      -0.02817121 </v>
     <v>       0.00490166      -0.02797818      10.19206271 </v>
    </varray>
    <i name="volume">    705.44407992 </i>
    <varray name="rec_basis" >
     <v>       0.14736964      -0.00014311      -0.00007127 </v>
     <v>      -0.00009472       0.09803742       0.00026917 </v>
     <v>      -0.00004656       0.00027102       0.09811633 </v>
    </varray>
   </crystal>
   <varray name="positions" >
    <v>       0.50446436       0.99961622       0.32914927 </v>
    <v>       0.99368002       0.00469596       0.33282105 </v>
    <v>       0.25233902       0.16246682       0.48975988 </v>
    <v>       0.00201357       0.01442178       0.65913864 </v>
    <v>       0.00724482       0.66380839       0.33316597 </v>
    <v>       0.00217224       0.65797679       0.66898178 </v>
    <v>       0.74649334       0.16148532       0.49055620 </v>
    <v>       0.49792269       0.00783169       0.65113272 </v>
    <v>       0.49692185       0.65740255       0.66594865 </v>
    <v>       0.99845110       0.32998011       0.34762212 </v>
    <v>       0.50041193       0.33369007       0.34075948 </v>
    <v>       0.75635298       0.51978143       0.82721862 </v>
    <v>       0.25778358       0.14513233       0.83399669 </v>
    <v>       0.00797027       0.34265999       0.98371112 </v>
    <v>       0.50059671       0.98342223       0.02052264 </v>
    <v>       0.50288499       0.33671844       0.66498283 </v>
    <v>       0.49560797       0.66722584       0.00589880 </v>
    <v>       0.23268164       0.49173226       0.17697361 </v>
    <v>       0.24766736       0.50414527       0.49762322 </v>
    <v>       0.24529198       0.52284417       0.82304754 </v>
    <v>       0.00581926       0.67140193       0.00018037 </v>
    <v>       0.22371111       0.83670592       0.17822473 </v>
    <v>       0.75365822       0.50367684       0.49245862 </v>
    <v>       0.77545800       0.83355481       0.17821169 </v>
    <v>       0.99891114       0.98496134       0.00967673 </v>
    <v>       0.75474979       0.16946369       0.17034547 </v>
    <v>       0.24066872       0.83091209       0.82413000 </v>
    <v>       0.75343084       0.83515780       0.82252035 </v>
    <v>       0.49550969       0.34669236       0.99427606 </v>
    <v>       0.24296160       0.17217260       0.17286482 </v>
    <v>       0.99876608       0.33362953       0.66134646 </v>
    <v>       0.24460775       0.83531498       0.50531022 </v>
    <v>       0.74658275       0.14994290       0.83962508 </v>
    <v>       0.49306523       0.66619877       0.32675060 </v>
    <v>       0.76854728       0.49032676       0.17770342 </v>
    <v>       0.75459814       0.83285302       0.50336555 </v>
   </varray>
  </structure>
  <varray name="forces" >
   <v>       0.00077166      -0.00481583       0.00467078 </v>
   <v>      -0.00046293      -0.00300704       0.00010973 </v>
   <v>      -0.00191918       0.00846848       0.00461310 </v>
   <v>      -0.01146926      -0.00940728       0.02145603 </v>
   <v>      -0.00582320       0.00353659       0.00212401 </v>
   <v>       0.00976871       0.00125772      -0.00114465 </v>
   <v>      -0.00413608       0.00195623       0.00961077 </v>
   <v>       0.00951207      -0.01873192       0.01990882 </v>
   <v>       0.00248361       0.02003227       0.01621329 </v>
   <v>       0.00253634      -0.00375467      -0.00831850 </v>
   <v>       0.00055806      -0.00356409       0.00383435 </v>
   <v>      -0.01811546       0.06996549       0.00115182 </v>
   <v>      -0.00357826       0.02701059      -0.00165428 </v>
   <v>      -0.02389908       0.00364581      -0.00350681 </v>
   <v>       0.00299362      -0.00342259      -0.01664763 </v>
   <v>       0.00453846      -0.00682410       0.01122482 </v>
   <v>       0.00290912       0.00748008      -0.01516935 </v>
   <v>       0.01694804      -0.00178774      -0.00518738 </v>
   <v>       0.00858894      -0.01654679      -0.00602007 </v>
   <v>       0.01205999      -0.02974313       0.00909900 </v>
   <v>      -0.01832513       0.01004301      -0.01715480 </v>
   <v>       0.01067406      -0.01051778       0.00113863 </v>
   <v>      -0.00831343      -0.01344886      -0.00756312 </v>
   <v>      -0.01680273       0.00968776      -0.01807073 </v>
   <v>      -0.01202317      -0.00623815      -0.01786780 </v>
   <v>      -0.00219188       0.00451833      -0.00421123 </v>
   <v>      -0.01425418       0.01773690       0.00576299 </v>
   <v>       0.05571559      -0.00885755      -0.02672307 </v>
   <v>       0.01758394      -0.00599034      -0.00895972 </v>
   <v>       0.00540363       0.00502443      -0.01002193 </v>
   <v>      -0.00561264       0.00013583       0.01027341 </v>
   <v>       0.00211429       0.00488343      -0.01096808 </v>
   <v>      -0.01382702      -0.05174920       0.00120720 </v>
   <v>       0.00910353       0.00779953       0.00461583 </v>
   <v>      -0.00869891      -0.00316007       0.00166167 </v>
   <v>      -0.00481111      -0.00161534       0.05051289 </v>
  </varray>
  <varray name="stress" >
   <v>       2.43663361      -0.10909824      -0.02654133 </v>
   <v>      -0.10909824       2.54970251      -0.00464093 </v>
   <v>      -0.02654132      -0.00464096       2.53740055 </v>
  </varray>
  <energy>
   <i name="e_fr_energy">   -370.44487933 </i>
   <i name="e_wo_entrp">   -370.45146705 </i>
   <i name="e_0_energy">      0.01976314 </i>
  </energy>
  <time name="totalsc">    6.33    6.83</time>
 </calculation>
 <calculation>
  <scstep>
   <time name="dav">    1.08    1.09</time>
   <time name="total">    1.20    1.33</time>
   <energy>
    <i name="alphaZ">   1617.80478627 </i>
    <i name="ewald"> -20675.94853651 </i>
    <i name="hartreedc">  -7078.38146821 </i>
    <i name="XCdc">   -212.93693465 </i>
    <i name="pawpsdc">  34827.55832046 </i>
    <i name="pawaedc"> -33210.86763434 </i>
    <i name="eentropy">      0.01975270 </i>
    <i name="bandstr">  -2709.50303502 </i>
    <i name="atom">  27071.80873402 </i>
    <i name="e_fr_energy">   -370.44601527 </i>
    <i name="e_wo_entrp">   -370.46576797 </i>
    <i name="e_0_energy">   -370.45259950 </i>
   </energy>
  </scstep>
  <scstep>
   <time name="diag">    0.09    0.09</time>
   <time name="diis">    0.80    0.80</time>
   <time name="orth">    0.01    0.01</time>
   <time name="total">    0.96    0.99</time>
   <energy>
    <i name="e_fr_energy">   -370.44788175 </i>
    <i name="e_wo_entrp">   -370.46748792 </i>
    <i name="e_0_energy">   -370.45441714 </i>
   </energy>
  </scstep>
  <scstep>
   <time name="diag">    0.08    0.08</time>
   <time name="diis">    0.81    0.81</time>
   <time name="orth">    0.01    0.01</time>
   <time name="total">    0.97    1.00</time>
   <energy>
    <i name="e_fr_energy">   -370.44707972 </i>
    <i name="e_wo_entrp">   -370.46679878 </i>
    <i name="e_0_energy">   -370.45365274 </i>
   </energy>
  </scstep>
  <scstep>
   <time name="diag">    0.08    0.08</time>
   <time name="diis">    0.85    0.86</time>
   <time name="orth">    0.01    0.01</time>
   <time name="total">    1.01    1.04</time>
   <energy>
    <i name="e_fr_energy">   -370.44687765 </i>
    <i name="e_wo_entrp">   -370.46654311 </i>
    <i name="e_0_energy">   -370.45343280 </i>
   </energy>
  </scstep>
  <scstep>
   <time name="diag">    0.08    0.08</time>
   <time name="diis">    0.82    0.82</time>
   <time name="orth">    0.01    0.01</time>
   <time name="total">    0.97    1.01</time>
   <energy>
    <i name="e_fr_energy">   -370.44682403 </i>
    <i name="e_wo_entrp">   -370.46652697 </i>
    <i name="e_0_energy">   -370.45339168 </i>
   </energy>
  </scstep>
  <scstep>
   <time name="diag">    0.08    0.08</time>
   <time name="diis">    0.83    0.83</time>
   <time name="orth">    0.02    0.02</time>
   <time name="total">    1.02    1.05</time>
   <energy>
    <i name="e_fr_energy">   -370.44681207 </i>
    <i name="e_wo_entrp">   -370.46649740 </i>
    <i name="e_0_energy">   -370.45337385 </i>
   </energy>
  </scstep>
  <scstep>
   <time name="diag">    0.08    0.10</time>
   <time name="diis">    0.50    0.50</time>
   <time name="orth">    0.01    0.01</time>
   <time name="total">    0.62    0.70</time>
   <energy>
    <i name="alphaZ">   1617.80478627 </i>
    <i name="ewald"> -20675.94853651 </i>
    <i name="hartreedc">  -7081.27762319 </i>
    <i name="XCdc">   -212.81431559 </i>
    <i name="pawpsdc">  34801.19968761 </i>
    <i name="pawaedc"> -33184.45424246 </i>
    <i name="eentropy">      0.01969631 </i>
    <i name="bandstr">  -2706.78499258 </i>
    <i name="atom">  27071.80873402 </i>
    <i name="e_fr_energy">   -370.44680611 </i>
    <i name="e_wo_entrp">   -370.46650243 </i>
    <i name="e_0_energy">   -370.45337155 </i>
   </energy>
  </scstep>
  <structure>
   <crystal>
    <varray name="basis" >
     <v>       6.78621860       0.00572090       0.00237964 </v>
     <v>       0.00865127      10.20269720      -0.02723529 </v>
     <v>       0.00366766      -0.02704019      10.19527701 </v>
    </varray>
    <i name="volume">    705.89227984 </i>
    <varray name="rec_basis" >
     <v>       0.14735759      -0.00012509      -0.00005334 </v>
     <v>      -0.00008272       0.09801406       0.00025999 </v>
     <v>      -0.00003462       0.00026186       0.09808534 </v>
    </varray>
   </crystal>
   <varray name="positions" >
    <v>       0.50449394       0.99956684       0.32915961 </v>
    <v>       0.99366285       0.00467183       0.33277511 </v>
    <v>       0.25227273       0.16254119       0.48973699 </v>
    <v>       0.00171683       0.01433002       0.65933873 </v>
    <v>       0.00723365       0.66384520       0.33314522 </v>
    <v>       0.00217458       0.65796138       0.66909750 </v>
    <v>       0.74649993       0.16150144       0.49060567 </v>
    <v>       0.49815015       0.00771984       0.65128863 </v>
    <v>       0.49699681       0.65749867       0.66611444 </v>
    <v>       0.99839593       0.32999990       0.34758192 </v>
    <v>       0.50048211       0.33369502       0.34078935 </v>
    <v>       0.75623174       0.52037059       0.82718143 </v>
    <v>       0.25774512       0.14531129       0.83394823 </v>
    <v>       0.00784817       0.34268418       0.98370718 </v>
    <v>       0.50063956       0.98339093       0.02046781 </v>
    <v>       0.50293141       0.33668634       0.66506850 </v>
    <v>       0.49562950       0.66725590       0.00577135 </v>
    <v>       0.23279844       0.49168760       0.17697734 </v>
    <v>       0.24770959       0.50404038       0.49756398 </v>
    <v>       0.24537199       0.52272425       0.82304629 </v>
    <v>       0.00554931       0.67155303      -0.00003827 </v>
    <v>       0.22372744       0.83663445       0.17827440 </v>
    <v>       0.75361291       0.50355138       0.49239764 </v>
    <v>       0.77543782       0.83366064       0.17805339 </v>
    <v>       0.99862242       0.98480604       0.00951688 </v>
    <v>       0.75476947       0.16949712       0.17033812 </v>
    <v>       0.24043770       0.83098987       0.82417628 </v>
    <v>       0.75424289       0.83509263       0.82224990 </v>
    <v>       0.49561245       0.34668276       0.99423913 </v>
    <v>       0.24299228       0.17221859       0.17281979 </v>
    <v>       0.99873445       0.33364986       0.66139888 </v>
    <v>       0.24458731       0.83533652       0.50522464 </v>
    <v>       0.74650598       0.14945827       0.83959382 </v>
    <v>       0.49311199       0.66623320       0.32676186 </v>
    <v>       0.76849724       0.49028808       0.17776235 </v>
    <v>       0.75457130       0.83286776       0.50386690 </v>
   </varray>
  </structure>
  <varray name="forces" >
   <v>       0.00060428       0.00124444       0.00610598 </v>
   <v>      -0.00241875      -0.00059932       0.00357243 </v>
   <v>       0.00135840      -0.00012614       0.00938539 </v>
   <v>       0.01498668       0.00029477       0.00260069 </v>
   <v>      -0.00679116      -0.00152870       0.00308074 </v>
   <v>       0.02577756      -0.00388521      -0.01776083 </v>
   <v>      -0.00637256      -0.00208282       0.00569414 </v>
   <v>      -0.01093882      -0.01168418       0.00735754 </v>
   <v>      -0.01023175       0.01317244       0.00381710 </v>
   <v>       0.01136176      -0.00852235      -0.00667806 </v>
   <v>      -0.00696027      -0.00619096       0.00487059 </v>
   <v>      -0.01614435       0.03509079       0.00457957 </v>
   <v>      -0.00330471       0.01637104       0.00374976 </v>
   <v>      -0.03262530       0.00868201      -0.00453468 </v>
   <v>       0.00060617      -0.00364698      -0.01687417 </v>
   <v>       0.00490904      -0.00367462       0.00376140 </v>
   <v>      -0.00146727       0.00903694      -0.00748328 </v>
   <v>       0.01421336       0.00275979      -0.00538912 </v>
   <v>       0.00863741      -0.01218683      -0.00207062 </v>
   <v>       0.00943079      -0.02282117       0.01087768 </v>
   <v>       0.00099481      -0.00540756       0.00296859 </v>
   <v>       0.00316179      -0.00453330      -0.00509856 </v>
   <v>      -0.00705038      -0.00529622      -0.00803159 </v>
   <v>      -0.01501747       0.00356306      -0.00605645 </v>
   <v>       0.01080083       0.00736980       0.00151491 </v>
   <v>      -0.00504658       0.00067510      -0.00059622 </v>
   <v>      -0.00595098       0.01541203       0.00283692 </v>
   <v>       0.01751883      -0.00729511      -0.00477261 </v>
   <v>       0.02158089      -0.00471105      -0.00943535 </v>
   <v>       0.00543259       0.00168214      -0.00509578 </v>
   <v>      -0.00818197       0.00129214       0.00558312 </v>
   <v>       0.00386553       0.00563301      -0.00487914 </v>
   <v>      -0.01640921      -0.01978579       0.00638643 </v>
   <v>       0.00942554       0.00582133       0.00577030 </v>
   <v>      -0.00639710      -0.00081076      -0.00040146 </v>
   <v>      -0.00335763      -0.00331175       0.01064463 </v>
  </varray>
  <varray name="stress" >
   <v>       1.69673874       0.00298324       0.14126138 </v>
   <v>       0.00298326       1.64622232      -0.12433614 </v>
   <v>       0.14126134      -0.12433615       1.54939050 </v>
  </varray>
  <energy>
   <i name="e_fr_energy">   -370.44680611 </i>
   <i name="e_wo_entrp">   -370.45337155 </i>
   <i name="e_0_energy">      0.01969631 </i>
  </energy>
  <time name="totalsc">    8.49    8.96</time>
 </calculation>
 <calculation>
  <scstep>
   <time name="dav">    1.06    1.08</time>
   <time name="total">    1.14    1.34</time>
   <energy>
    <i name="alphaZ">   1615.75217668 </i>
    <i name="ewald"> -20669.74360734 </i>
    <i name="hartreedc">  -7075.57315283 </i>
    <i name="XCdc">   -213.20653168 </i>
    <i name="pawpsdc">  34801.68222963 </i>
    <i name="pawaedc"> -33184.96491128 </i>
    <i name="eentropy">      0.01955510 </i>
    <i name="bandstr">  -2716.21679511 </i>
    <i name="atom">  27071.80873402 </i>
    <i name="e_fr_energy">   -370.44230280 </i>
    <i name="e_wo_entrp">   -370.46185790 </i>
    <i name="e_0_energy">   -370.44882117 </i>
   </energy>
  </scstep>
  <scstep>
   <time name="diag">    0.08    0.08</time>
   <time name="diis">    0.85    0.85</time>
   <time name="orth">    0.01    0.01</time>
   <time name="total">    1.01    1.03</time>
   <energy>
    <i name="e_fr_energy">   -370.44971880 </i>
    <i name="e_wo_entrp">   -370.46902261 </i>
    <i name="e_0_energy">   -370.45615341 </i>
   </energy>
  </scstep>
  <scstep>
   <time name="diag">    0.08    0.08</time>
   <time name="diis">    0.81    0.83</time>
   <time name="orth">    0.02    0.02</time>
   <time name="total">    0.98    1.04</time>
   <energy>
    <i name="e_fr_energy">   -370.44660521 </i>
    <i name="e_wo_entrp">   -370.46607020 </i>
    <i name="e_0_energy">   -370.45309354 </i>
   </energy>
  </scstep>
  <scstep>
   <time name="diag">    0.08    0.08</time>
   <time name="diis">    0.86    0.86</time>
   <time name="orth">    0.01    0.01</time>
   <time name="total">    1.02    1.05</time>
   <energy>
    <i name="e_fr_energy">   -370.44578398 </i>
    <i name="e_wo_entrp">   -370.46516947 </i>
    <i name="e_0_energy">   -370.45224581 </i>
   </energy>
  </scstep>
  <scstep>
   <time name="diag">    0.08    0.08</time>
   <time name="diis">    0.84    0.84</time>
   <time name="orth">    0.01    0.01</time>
   <time name="total">    1.00    1.03</time>
   <energy>
    <i name="e_fr_energy">   -370.44558034 </i>
    <i name="e_wo_entrp">   -370.46503090 </i>
    <i name="e_0_energy">   -370.45206386 </i>
   </energy>
  </scstep>
  <scstep>
   <time name="diag">    0.08    0.08</time>
   <time name="diis">    0.85    0.86</time>
   <time name="orth">    0.01    0.01</time>
   <time name="total">    1.03    1.06</time>
   <energy>
    <i name="e_fr_energy">   -370.44554587 </i>
    <i name="e_wo_entrp">   -370.46496121 </i>
    <i name="e_0_energy">   -370.45201765 </i>
   </energy>
  </scstep>
  <scstep>
   <time name="diag">    0.11    0.11</time>
   <time name="diis">    0.68    0.80</time>
   <time name="orth">    0.01    0.02</time>
   <time name="total">    0.87    1.03</time>
   <energy>
    <i name="e_fr_energy">   -370.44553416 </i>
    <i name="e_wo_entrp">   -370.46497249 </i>
    <i name="e_0_energy">   -370.45201361 </i>
   </energy>
  </scstep>
  <scstep>
   <time name="diag">    0.08    0.08</time>
   <time name="diis">    0.59    0.60</time>
   <time name="orth">    0.01    0.01</time>
   <time name="total">    0.72    0.75</time>
   <energy>
    <i name="alphaZ">   1615.75217668 </i>
    <i name="ewald"> -20669.74360734 </i>
    <i name="hartreedc">  -7081.21624610 </i>
    <i name="XCdc">   -212.96698421 </i>
    <i name="pawpsdc">  34749.50651429 </i>
    <i name="pawaedc"> -33132.80217601 </i>
    <i name="eentropy">      0.01942788 </i>
    <i name="bandstr">  -2710.80336973 </i>
    <i name="atom">  27071.80873402 </i>
    <i name="e_fr_energy">   -370.44553052 </i>
    <i name="e_wo_entrp">   -370.46495841 </i>
    <i name="e_0_energy">   -370.45200648 </i>
   </energy>
  </scstep>
  <structure>
   <crystal>
    <varray name="basis" >
     <v>       6.78732377       0.00406880       0.00073465 </v>
     <v>       0.00617069      10.20754422      -0.02536345 </v>
     <v>       0.00119966      -0.02516419      10.20170562 </v>
    </varray>
    <i name="volume">    706.78902705 </i>
    <varray name="rec_basis" >
     <v>       0.14733353      -0.00008911      -0.00001755 </v>
     <v>      -0.00005875       0.09796739       0.00024166 </v>
     <v>      -0.00001076       0.00024357       0.09802343 </v>
    </varray>
   </crystal>
   <varray name="positions" >
    <v>       0.50455310       0.99946810       0.32918030 </v>
    <v>       0.99362848       0.00462358       0.33268327 </v>
    <v>       0.25214016       0.16268988       0.48969119 </v>
    <v>       0.00112345       0.01414646       0.65973874 </v>
    <v>       0.00721132       0.66391879       0.33310372 </v>
    <v>       0.00217931       0.65793055       0.66932885 </v>
    <v>       0.74651313       0.16153367       0.49070456 </v>
    <v>       0.49860505       0.00749620       0.65160041 </v>
    <v>       0.49714682       0.65769083       0.66644589 </v>
    <v>       0.99828557       0.33003948       0.34750151 </v>
    <v>       0.50062249       0.33370492       0.34084910 </v>
    <v>       0.75598949       0.52154862       0.82710695 </v>
    <v>       0.25766826       0.14566915       0.83385130 </v>
    <v>       0.00760402       0.34273254       0.98369928 </v>
    <v>       0.50072523       0.98332835       0.02035821 </v>
    <v>       0.50302427       0.33662214       0.66523981 </v>
    <v>       0.49567251       0.66731604       0.00551652 </v>
    <v>       0.23303200       0.49159832       0.17698481 </v>
    <v>       0.24779397       0.50383067       0.49744557 </v>
    <v>       0.24553196       0.52248449       0.82304384 </v>
    <v>       0.00500943       0.67185515      -0.00047549 </v>
    <v>       0.22376010       0.83649154       0.17837375 </v>
    <v>       0.75352225       0.50330053       0.49227573 </v>
    <v>       0.77539745       0.83387229       0.17773687 </v>
    <v>       0.99804491       0.98449549       0.00919726 </v>
    <v>       0.75480884       0.16956397       0.17032343 </v>
    <v>       0.23997575       0.83114535       0.82426876 </v>
    <v>       0.75586672       0.83496249       0.82170931 </v>
    <v>       0.49581794       0.34666359       0.99416533 </v>
    <v>       0.24305363       0.17231057       0.17272978 </v>
    <v>       0.99867122       0.33369050       0.66150367 </v>
    <v>       0.24454642       0.83537960       0.50505354 </v>
    <v>       0.74635227       0.14848924       0.83953139 </v>
    <v>       0.49320552       0.66630205       0.32678436 </v>
    <v>       0.76839717       0.49021074       0.17788016 </v>
    <v>       0.75451780       0.83289715       0.50486928 </v>
   </varray>
  </structure>
  <varray name="forces" >
   <v>      -0.00032638       0.01296556       0.00703374 </v>
   <v>      -0.00521949       0.00304396       0.00974423 </v>
   <v>       0.00866276      -0.01734748       0.01901353 </v>
   <v>       0.06923156       0.02041128      -0.03650843 </v>
   <v>      -0.00985750      -0.01051811       0.00431115 </v>
   <v>       0.05626611      -0.01349746      -0.05018769 </v>
   <v>      -0.01063443      -0.01021056      -0.00146886 </v>
   <v>      -0.05171876       0.00112536      -0.01750074 </v>
   <v>      -0.03424219       0.00116331      -0.01859473 </v>
   <v>       0.02959154      -0.01943909      -0.00327961 </v>
   <v>      -0.02274442      -0.01193702       0.00446580 </v>
   <v>      -0.01287065      -0.03178480       0.01142486 </v>
   <v>      -0.00304236      -0.00511178       0.01424096 </v>
   <v>      -0.04905902       0.01883147      -0.00577099 </v>
   <v>      -0.00354101      -0.00441191      -0.01651057 </v>
   <v>       0.00549454       0.00228738      -0.01123689 </v>
   <v>      -0.00915560       0.01192589       0.00783057 </v>
   <v>       0.00731656       0.01224292      -0.00444524 </v>
   <v>       0.00770467      -0.00315402       0.00588120 </v>
   <v>       0.00455893      -0.01143229       0.01256651 </v>
   <v>       0.03977658      -0.03735572       0.04574090 </v>
   <v>      -0.01133510       0.00759444      -0.01408491 </v>
   <v>      -0.00344112       0.01208330      -0.00807136 </v>
   <v>      -0.01242123      -0.00816040       0.02084511 </v>
   <v>       0.05653734       0.03472509       0.04205525 </v>
   <v>      -0.01014196      -0.00790879       0.00649835 </v>
   <v>       0.01114322       0.01182445      -0.00560188 </v>
   <v>      -0.06014381      -0.00309619       0.03755489 </v>
   <v>       0.02836787      -0.00299466      -0.01209784 </v>
   <v>       0.00489908      -0.00594296       0.00374588 </v>
   <v>      -0.01190983       0.00360935      -0.00261211 </v>
   <v>       0.00762935       0.00595127       0.00526004 </v>
   <v>      -0.02355548       0.04550447       0.01533292 </v>
   <v>       0.01006163       0.00321571       0.00900491 </v>
   <v>       0.00005941       0.00390647      -0.00310358 </v>
   <v>      -0.00194079      -0.00810841      -0.07147536 </v>
  </varray>
  <varray name="stress" >
   <v>       0.32268078       0.19819519       0.45594696 </v>
   <v>       0.19819520      -0.03494943      -0.34138606 </v>
   <v>       0.45594691      -0.34138611      -0.23863633 </v>
  </varray>
  <energy>
   <i name="e_fr_energy">   -370.44553052 </i>
   <i name="e_wo_entrp">   -370.45200648 </i>
[...]
       <r>    7.1853    1.0000 </r>
       <r>    7.2301    1.0000 </r>
       <r>    7.2522    1.0000 </r>
       <r>    7.3236    1.0001 </r>
       <r>    7.3354    1.0002 </r>
       <r>    7.3630    1.0005 </r>
       <r>    7.3987    1.0014 </r>
       <r>    7.4428    1.0047 </r>
       <r>    7.4936    1.0137 </r>
       <r>    7.5249    1.0226 </r>
       <r>    7.5460    1.0290 </r>
       <r>    7.5725    1.0348 </r>
       <r>    7.6057    1.0310 </r>
       <r>    7.6269    1.0163 </r>
       <r>    7.6454    0.9918 </r>
       <r>    7.6805    0.9075 </r>
       <r>    7.7316    0.6906 </r>
       <r>    7.7536    0.5724 </r>
       <r>    7.8148    0.2425 </r>
       <r>    7.8239    0.2009 </r>
       <r>    7.8618    0.0647 </r>
       <r>    7.9110   -0.0210 </r>
       <r>    7.9225   -0.0288 </r>
       <r>    7.9707   -0.0331 </r>
       <r>    8.0136   -0.0209 </r>
       <r>    8.0412   -0.0132 </r>
       <r>    8.0746   -0.0067 </r>
       <r>    8.1373   -0.0013 </r>
       <r>    8.1912   -0.0002 </r>
       <r>    8.2074   -0.0001 </r>
       <r>    8.2441   -0.0000 </r>
       <r>    8.3259   -0.0000 </r>
       <r>    8.3552   -0.0000 </r>
       <r>    8.4112   -0.0000 </r>
       <r>    8.4934   -0.0000 </r>
       <r>    8.5759   -0.0000 </r>
       <r>    8.5862   -0.0000 </r>
       <r>    8.9017   -0.0000 </r>
       <r>    8.9762   -0.0000 </r>
       <r>    8.9978   -0.0000 </r>
       <r>    9.6630   -0.0000 </r>
       <r>    9.7013   -0.0000 </r>
       <r>    9.7584   -0.0000 </r>
       <r>    9.8101   -0.0000 </r>
       <r>    9.9031   -0.0000 </r>
       <r>    9.9702   -0.0000 </r>
       <r>   10.0012   -0.0000 </r>
       <r>   10.0637   -0.0000 </r>
       <r>   10.1865   -0.0000 </r>
      </set>
     </set>
    </set>
   </array>
  </eigenvalues>
  <separator name="orbital magnetization" >
   <v name="MAGDIPOLOUT">      0.00000000      0.00000000      0.00000000</v>
  </separator>
  <dos>
   <i name="efermi">      7.76645089 </i>
   <total>
    <array>
     <dimension dim="1">gridpoints</dimension>
     <dimension dim="2">spin</dimension>
     <field>energy</field>
     <field>total</field>
     <field>integrated</field>
     <set>
      <set comment="spin 1">
       <r>   -49.3676     0.0000     0.0000 </r>
       <r>   -49.1596     0.0000     0.0000 </r>
       <r>   -48.9517     0.0000     0.0000 </r>
       <r>   -48.7437     0.0000     0.0000 </r>
       <r>   -48.5357     0.0000     0.0000 </r>
       <r>   -48.3278     0.0000     0.0000 </r>
       <r>   -48.1198     0.0000     0.0000 </r>
       <r>   -47.9118    -0.0000    -0.0000 </r>
       <r>   -47.7039    -0.0000    -0.0000 </r>
       <r>   -47.4959    -0.0000    -0.0000 </r>
       <r>   -47.2879    -0.0000    -0.0000 </r>
       <r>   -47.0800    -0.0000    -0.0000 </r>
       <r>   -46.8720    -0.0301    -0.0063 </r>
       <r>   -46.6640    -0.7280    -0.1576 </r>
       <r>   -46.4561    14.5862     2.8758 </r>
       <r>   -46.2481    80.2209    19.5591 </r>
       <r>   -46.0401    22.7508    24.2905 </r>
       <r>   -45.8322    -1.3740    24.0048 </r>
       <r>   -45.6242    -0.0228    24.0000 </r>
       <r>   -45.4162    -0.0000    24.0000 </r>
       <r>   -45.2083    -0.0000    24.0000 </r>
       <r>   -45.0003     0.0000    24.0000 </r>
       <r>   -44.7923     0.0000    24.0000 </r>
       <r>   -44.5844     0.0000    24.0000 </r>
       <r>   -44.3764     0.0000    24.0000 </r>
       <r>   -44.1684     0.0000    24.0000 </r>
       <r>   -43.9605     0.0000    24.0000 </r>
       <r>   -43.7525     0.0000    24.0000 </r>
       <r>   -43.5445     0.0000    24.0000 </r>
       <r>   -43.3366     0.0000    24.0000 </r>
       <r>   -43.1286     0.0000    24.0000 </r>
       <r>   -42.9206     0.0000    24.0000 </r>
       <r>   -42.7127     0.0000    24.0000 </r>
       <r>   -42.5047     0.0000    24.0000 </r>
       <r>   -42.2967     0.0000    24.0000 </r>
       <r>   -42.0888     0.0000    24.0000 </r>
       <r>   -41.8808     0.0000    24.0000 </r>
       <r>   -41.6728    -0.0000    24.0000 </r>
       <r>   -41.4649    -0.0000    24.0000 </r>
       <r>   -41.2569    -0.0000    24.0000 </r>
       <r>   -41.0489    -0.0000    24.0000 </r>
       <r>   -40.8410    -0.0022    23.9995 </r>
       <r>   -40.6330    -0.4679    23.9022 </r>
       <r>   -40.4250     5.6758    25.0826 </r>
       <r>   -40.2171    37.3095    32.8418 </r>
       <r>   -40.0091     6.0600    34.1021 </r>
       <r>   -39.8011    -0.4884    34.0005 </r>
       <r>   -39.5932    -0.0024    34.0000 </r>
       <r>   -39.3852    -0.0000    34.0000 </r>
       <r>   -39.1772    -0.0000    34.0000 </r>
       <r>   -38.9693     0.0000    34.0000 </r>
       <r>   -38.7613     0.0000    34.0000 </r>
       <r>   -38.5533     0.0000    34.0000 </r>
       <r>   -38.3454     0.0000    34.0000 </r>
       <r>   -38.1374     0.0000    34.0000 </r>
       <r>   -37.9294     0.0000    34.0000 </r>
       <r>   -37.7215     0.0000    34.0000 </r>
       <r>   -37.5135     0.0000    34.0000 </r>
       <r>   -37.3055     0.0000    34.0000 </r>
       <r>   -37.0976     0.0000    34.0000 </r>
       <r>   -36.8896     0.0000    34.0000 </r>
       <r>   -36.6816     0.0000    34.0000 </r>
       <r>   -36.4737     0.0000    34.0000 </r>
       <r>   -36.2657     0.0000    34.0000 </r>
       <r>   -36.0577     0.0000    34.0000 </r>
       <r>   -35.8498     0.0000    34.0000 </r>
       <r>   -35.6418     0.0000    34.0000 </r>
       <r>   -35.4338     0.0000    34.0000 </r>
       <r>   -35.2259     0.0000    34.0000 </r>
       <r>   -35.0179     0.0000    34.0000 </r>
       <r>   -34.8099     0.0000    34.0000 </r>
       <r>   -34.6020     0.0000    34.0000 </r>
       <r>   -34.3940     0.0000    34.0000 </r>
       <r>   -34.1860     0.0000    34.0000 </r>
       <r>   -33.9781     0.0000    34.0000 </r>
       <r>   -33.7701     0.0000    34.0000 </r>
       <r>   -33.5621     0.0000    34.0000 </r>
       <r>   -33.3542     0.0000    34.0000 </r>
       <r>   -33.1462     0.0000    34.0000 </r>
       <r>   -32.9382     0.0000    34.0000 </r>
       <r>   -32.7303     0.0000    34.0000 </r>
       <r>   -32.5223     0.0000    34.0000 </r>
       <r>   -32.3143     0.0000    34.0000 </r>
       <r>   -32.1064     0.0000    34.0000 </r>
       <r>   -31.8984     0.0000    34.0000 </r>
       <r>   -31.6904     0.0000    34.0000 </r>
       <r>   -31.4825     0.0000    34.0000 </r>
       <r>   -31.2745     0.0000    34.0000 </r>
       <r>   -31.0665     0.0000    34.0000 </r>
       <r>   -30.8586     0.0000    34.0000 </r>
       <r>   -30.6506     0.0000    34.0000 </r>
       <r>   -30.4426     0.0000    34.0000 </r>
       <r>   -30.2347     0.0000    34.0000 </r>
       <r>   -30.0267     0.0000    34.0000 </r>
       <r>   -29.8187     0.0000    34.0000 </r>
       <r>   -29.6108     0.0000    34.0000 </r>
       <r>   -29.4028     0.0000    34.0000 </r>
       <r>   -29.1948     0.0000    34.0000 </r>
       <r>   -28.9869     0.0000    34.0000 </r>
       <r>   -28.7789     0.0000    34.0000 </r>
       <r>   -28.5709     0.0000    34.0000 </r>
       <r>   -28.3630     0.0000    34.0000 </r>
       <r>   -28.1550     0.0000    34.0000 </r>
       <r>   -27.9470     0.0000    34.0000 </r>
       <r>   -27.7391     0.0000    34.0000 </r>
       <r>   -27.5311     0.0000    34.0000 </r>
       <r>   -27.3231     0.0000    34.0000 </r>
       <r>   -27.1152     0.0000    34.0000 </r>
       <r>   -26.9072     0.0000    34.0000 </r>
       <r>   -26.6992     0.0000    34.0000 </r>
       <r>   -26.4913     0.0000    34.0000 </r>
       <r>   -26.2833     0.0000    34.0000 </r>
       <r>   -26.0753     0.0000    34.0000 </r>
       <r>   -25.8674     0.0000    34.0000 </r>
       <r>   -25.6594     0.0000    34.0000 </r>
       <r>   -25.4514     0.0000    34.0000 </r>
       <r>   -25.2435     0.0000    34.0000 </r>
       <r>   -25.0355     0.0000    34.0000 </r>
       <r>   -24.8275     0.0000    34.0000 </r>
       <r>   -24.6196     0.0000    34.0000 </r>
       <r>   -24.4116     0.0000    34.0000 </r>
       <r>   -24.2036    -0.0000    34.0000 </r>
       <r>   -23.9957    -0.0000    34.0000 </r>
       <r>   -23.7877    -0.0000    34.0000 </r>
       <r>   -23.5797    -0.0000    34.0000 </r>
       <r>   -23.3718    -0.0044    33.9991 </r>
       <r>   -23.1638    -0.5784    33.8788 </r>
       <r>   -22.9558     6.9370    35.3215 </r>
       <r>   -22.7479    51.3149    45.9933 </r>
       <r>   -22.5399    58.5404    58.1677 </r>
       <r>   -22.3319   139.4906    87.1772 </r>
       <r>   -22.1240    62.2457   100.1222 </r>
       <r>   -21.9160    29.7136   106.3016 </r>
       <r>   -21.7080    -1.4028   106.0099 </r>
       <r>   -21.5001    -0.0476   106.0000 </r>
       <r>   -21.2921    -0.0000   106.0000 </r>
       <r>   -21.0841    -0.0000   106.0000 </r>
       <r>   -20.8762     0.0000   106.0000 </r>
       <r>   -20.6682     0.0000   106.0000 </r>
       <r>   -20.4602     0.0000   106.0000 </r>
       <r>   -20.2523     0.0000   106.0000 </r>
       <r>   -20.0443    -0.0000   106.0000 </r>
       <r>   -19.8363    -0.0000   106.0000 </r>
       <r>   -19.6284    -0.0000   106.0000 </r>
       <r>   -19.4204    -0.0000   106.0000 </r>
       <r>   -19.2124    -0.0001   106.0000 </r>
       <r>   -19.0045    -0.0745   105.9845 </r>
       <r>   -18.7965    -0.5580   105.8684 </r>
       <r>   -18.5885    24.0380   110.8675 </r>
       <r>   -18.3806    72.6927   125.9852 </r>
       <r>   -18.1726    40.1000   134.3247 </r>
       <r>   -17.9646     8.7124   136.1366 </r>
       <r>   -17.7567    -0.6510   136.0012 </r>
       <r>   -17.5487    -0.0057   136.0000 </r>
       <r>   -17.3407    -0.0000   136.0000 </r>
       <r>   -17.1328    -0.0000   136.0000 </r>
       <r>   -16.9248     0.0000   136.0000 </r>
       <r>   -16.7168     0.0000   136.0000 </r>
       <r>   -16.5089     0.0000   136.0000 </r>
       <r>   -16.3009     0.0000   136.0000 </r>
       <r>   -16.0929     0.0000   136.0000 </r>
       <r>   -15.8849     0.0000   136.0000 </r>
       <r>   -15.6770     0.0000   136.0000 </r>
       <r>   -15.4690     0.0000   136.0000 </r>
       <r>   -15.2610     0.0000   136.0000 </r>
       <r>   -15.0531     0.0000   136.0000 </r>
       <r>   -14.8451     0.0000   136.0000 </r>
       <r>   -14.6371     0.0000   136.0000 </r>
       <r>   -14.4292     0.0000   136.0000 </r>
       <r>   -14.2212     0.0000   136.0000 </r>
       <r>   -14.0132     0.0000   136.0000 </r>
       <r>   -13.8053     0.0000   136.0000 </r>
       <r>   -13.5973     0.0000   136.0000 </r>
       <r>   -13.3893     0.0000   136.0000 </r>
       <r>   -13.1814     0.0000   136.0000 </r>
       <r>   -12.9734     0.0000   136.0000 </r>
       <r>   -12.7654     0.0000   136.0000 </r>
       <r>   -12.5575     0.0000   136.0000 </r>
       <r>   -12.3495     0.0000   136.0000 </r>
       <r>   -12.1415     0.0000   136.0000 </r>
       <r>   -11.9336     0.0000   136.0000 </r>
       <r>   -11.7256     0.0000   136.0000 </r>
       <r>   -11.5176     0.0000   136.0000 </r>
       <r>   -11.3097     0.0000   136.0000 </r>
       <r>   -11.1017     0.0000   136.0000 </r>
       <r>   -10.8937     0.0000   136.0000 </r>
       <r>   -10.6858     0.0000   136.0000 </r>
       <r>   -10.4778     0.0000   136.0000 </r>
       <r>   -10.2698     0.0000   136.0000 </r>
       <r>   -10.0619     0.0000   136.0000 </r>
       <r>    -9.8539     0.0000   136.0000 </r>
       <r>    -9.6459     0.0000   136.0000 </r>
       <r>    -9.4380     0.0000   136.0000 </r>
       <r>    -9.2300     0.0000   136.0000 </r>
       <r>    -9.0220     0.0000   136.0000 </r>
       <r>    -8.8141     0.0000   136.0000 </r>
       <r>    -8.6061     0.0000   136.0000 </r>
       <r>    -8.3981     0.0000   136.0000 </r>
       <r>    -8.1902     0.0000   136.0000 </r>
       <r>    -7.9822     0.0000   136.0000 </r>
       <r>    -7.7742     0.0000   136.0000 </r>
       <r>    -7.5663     0.0000   136.0000 </r>
       <r>    -7.3583     0.0000   136.0000 </r>
       <r>    -7.1503     0.0000   136.0000 </r>
       <r>    -6.9424     0.0000   136.0000 </r>
       <r>    -6.7344     0.0000   136.0000 </r>
       <r>    -6.5264     0.0000   136.0000 </r>
       <r>    -6.3185     0.0000   136.0000 </r>
       <r>    -6.1105     0.0000   136.0000 </r>
       <r>    -5.9025     0.0000   136.0000 </r>
       <r>    -5.6946     0.0000   136.0000 </r>
       <r>    -5.4866     0.0000   136.0000 </r>
       <r>    -5.2786     0.0000   136.0000 </r>
       <r>    -5.0707     0.0000   136.0000 </r>
       <r>    -4.8627     0.0000   136.0000 </r>
       <r>    -4.6547     0.0000   136.0000 </r>
       <r>    -4.4468     0.0000   136.0000 </r>
       <r>    -4.2388     0.0000   136.0000 </r>
       <r>    -4.0308     0.0000   136.0000 </r>
       <r>    -3.8229     0.0000   136.0000 </r>
       <r>    -3.6149     0.0000   136.0000 </r>
       <r>    -3.4069     0.0000   136.0000 </r>
       <r>    -3.1990     0.0000   136.0000 </r>
       <r>    -2.9910     0.0000   136.0000 </r>
       <r>    -2.7830     0.0000   136.0000 </r>
       <r>    -2.5751     0.0000   136.0000 </r>
       <r>    -2.3671     0.0000   136.0000 </r>
       <r>    -2.1591     0.0000   136.0000 </r>
       <r>    -1.9512     0.0000   136.0000 </r>
       <r>    -1.7432     0.0000   136.0000 </r>
       <r>    -1.5352     0.0000   136.0000 </r>
       <r>    -1.3273     0.0000   136.0000 </r>
       <r>    -1.1193     0.0000   136.0000 </r>
       <r>    -0.9113     0.0000   136.0000 </r>
       <r>    -0.7034     0.0000   136.0000 </r>
       <r>    -0.4954     0.0000   136.0000 </r>
       <r>    -0.2874    -0.0000   136.0000 </r>
       <r>    -0.0795    -0.0000   136.0000 </r>
       <r>     0.1285    -0.0000   136.0000 </r>
       <r>     0.3365    -0.0000   136.0000 </r>
       <r>     0.5444    -0.0001   136.0000 </r>
       <r>     0.7524    -0.0118   135.9975 </r>
       <r>     0.9604     0.1529   136.0293 </r>
       <r>     1.1683     0.7825   136.1921 </r>
       <r>     1.3763     1.4693   136.4976 </r>
       <r>     1.5843     1.6561   136.8420 </r>
       <r>     1.7922     2.8472   137.4342 </r>
       <r>     2.0002     4.3055   138.3295 </r>
       <r>     2.2082     1.9594   138.7370 </r>
       <r>     2.4161     3.8514   139.5380 </r>
       <r>     2.6241     3.9592   140.3614 </r>
       <r>     2.8321     3.4075   141.0700 </r>
       <r>     3.0400     5.4632   142.2062 </r>
       <r>     3.2480     7.9144   143.8521 </r>
       <r>     3.4560     8.6815   145.6576 </r>
       <r>     3.6639     8.4811   147.4214 </r>
       <r>     3.8719    11.1303   149.7361 </r>
       <r>     4.0799    15.8567   153.0338 </r>
       <r>     4.2878    22.9735   157.8115 </r>
       <r>     4.4958    23.7805   162.7571 </r>
       <r>     4.7038    26.1790   168.2014 </r>
       <r>     4.9117    32.8614   175.0355 </r>
       <r>     5.1197    38.7657   183.0975 </r>
       <r>     5.3277    38.7946   191.1655 </r>
       <r>     5.5356    38.3074   199.1322 </r>
       <r>     5.7436    34.0853   206.2208 </r>
       <r>     5.9516    33.9040   213.2717 </r>
       <r>     6.1595    16.3454   216.6710 </r>
       <r>     6.3675    31.0454   223.1274 </r>
       <r>     6.5755    65.6066   236.7714 </r>
       <r>     6.7834    60.3334   249.3187 </r>
       <r>     6.9914    50.0909   259.7360 </r>
       <r>     7.1994    53.8254   270.9299 </r>
       <r>     7.4073    57.9325   282.9779 </r>
       <r>     7.6153    55.8698   294.5970 </r>
       <r>     7.8233    47.6845   304.5138 </r>
       <r>     8.0312    45.3340   313.9417 </r>
       <r>     8.2392    48.0212   323.9286 </r>
       <r>     8.4472    39.0936   332.0587 </r>
       <r>     8.6551    27.6130   337.8013 </r>
       <r>     8.8631    18.8169   341.7146 </r>
       <r>     9.0711    19.5794   345.7865 </r>
       <r>     9.2790    11.1868   348.1129 </r>
       <r>     9.4870    17.3677   351.7249 </r>
       <r>     9.6950    26.4118   357.2176 </r>
       <r>     9.9029    28.2846   363.0999 </r>
       <r>    10.1109    20.3822   367.3387 </r>
       <r>    10.3189     3.4057   368.0470 </r>
       <r>    10.5268    -0.2211   368.0010 </r>
       <r>    10.7348    -0.0048   368.0000 </r>
       <r>    10.9428    -0.0000   368.0000 </r>
       <r>    11.1507    -0.0000   368.0000 </r>
       <r>    11.3587     0.0000   368.0000 </r>
       <r>    11.5667     0.0000   368.0000 </r>
       <r>    11.7746     0.0000   368.0000 </r>
       <r>    11.9826     0.0000   368.0000 </r>
       <r>    12.1906     0.0000   368.0000 </r>
       <r>    12.3985     0.0000   368.0000 </r>
       <r>    12.6065     0.0000   368.0000 </r>
       <r>    12.8145     0.0000   368.0000 </r>
       <r>    13.0224     0.0000   368.0000 </r>
      </set>
     </set>
    </array>
   </total>
  </dos>
 </calculation>
 <structure name="finalpos" >
  <crystal>
   <varray name="basis" >
    <v>       6.78909310       0.00567672       0.00447682 </v>
    <v>       0.00857795      10.20532494      -0.02853868 </v>
    <v>       0.00681973      -0.02834323      10.19872168 </v>
   </varray>
   <i name="volume">    706.61112175 </i>
   <varray name="rec_basis" >
    <v>       0.14729525      -0.00012408      -0.00009884 </v>
    <v>      -0.00008211       0.09798889       0.00027238 </v>
    <v>      -0.00006489       0.00027425       0.09805231 </v>
   </varray>
  </crystal>
  <varray name="positions" >
   <v>       0.50453775       0.99960854       0.32931313 </v>
   <v>       0.99347211       0.00482611       0.33273675 </v>
   <v>       0.25222646       0.16239824       0.49014117 </v>
   <v>       0.00253804       0.01448756       0.65940745 </v>
   <v>       0.00719933       0.66366280       0.33307706 </v>
   <v>       0.00365751       0.65759529       0.66867196 </v>
   <v>       0.74631998       0.16122280       0.49087146 </v>
   <v>       0.49707111       0.00704509       0.65204434 </v>
   <v>       0.49647780       0.65777334       0.66601827 </v>
   <v>       0.99919309       0.32969030       0.34737669 </v>
   <v>       0.50018349       0.33327398       0.34103050 </v>
   <v>       0.75568643       0.52236907       0.82667794 </v>
   <v>       0.25712083       0.14667065       0.83457422 </v>
   <v>       0.00362850       0.34323422       0.98366999 </v>
   <v>       0.50040482       0.98289133       0.01986620 </v>
   <v>       0.50375918       0.33666859       0.66522976 </v>
   <v>       0.49527984       0.66771088       0.00564721 </v>
   <v>       0.23352309       0.49139262       0.17648066 </v>
   <v>       0.24827760       0.50330142       0.49737709 </v>
   <v>       0.24580945       0.52184125       0.82349977 </v>
   <v>       0.00633606       0.67126097       0.00006486 </v>
   <v>       0.22335306       0.83656140       0.17825703 </v>
   <v>       0.75360774       0.50324078       0.49184368 </v>
   <v>       0.77554096       0.83399460       0.17801841 </v>
   <v>       0.99893228       0.98515034       0.00969338 </v>
   <v>       0.75425284       0.16935358       0.17039308 </v>
   <v>       0.24016794       0.83132974       0.82416080 </v>
   <v>       0.75581999       0.83473991       0.82215830 </v>
   <v>       0.49790168       0.34695604       0.99380004 </v>
   <v>       0.24348305       0.17257795       0.17230829 </v>
   <v>       0.99799475       0.33382267       0.66158440 </v>
   <v>       0.24455540       0.83543889       0.50486750 </v>
   <v>       0.74574080       0.14814515       0.83939668 </v>
   <v>       0.49326474       0.66645687       0.32688278 </v>
   <v>       0.76808357       0.49039662       0.17866514 </v>
   <v>       0.75459674       0.83291343       0.50419499 </v>
  </varray>
 </structure>
</modeling>
