 vasp.5.4.1 05Feb16 (build Jan 29 2020 16:04:39) complex                        
  
 executed on           IFC91_ompi date 2020.06.15  13:10:13
 running on  160 total cores
 distrk:  each k-point on   20 cores,    8 groups
 distr:  one band on NCORES_PER_BAND=   5 cores,    4 groups


--------------------------------------------------------------------------------------------------------


 INCAR:
 POTCAR:    PAW_PBE Zr_sv 04Jan2005               
 POTCAR:    PAW_PBE Hf 20Jan2003                  
 POTCAR:    PAW_PBE Ta 17Jan2003                  
 POTCAR:    PAW_PBE Nb_sv 25May2007               

 ----------------------------------------------------------------------------- 
|                                                                             |
|           W    W    AA    RRRRR   N    N  II  N    N   GGGG   !!!           |
|           W    W   A  A   R    R  NN   N  II  NN   N  G    G  !!!           |
|           W    W  A    A  R    R  N N  N  II  N N  N  G       !!!           |
|           W WW W  AAAAAA  RRRRR   N  N N  II  N  N N  G  GGG   !            |
|           WW  WW  A    A  R   R   N   NN  II  N   NN  G    G                |
|           W    W  A    A  R    R  N    N  II  N    N   GGGG   !!!           |
|                                                                             |
|      For optimal performance we recommend to set                            |
|        NCORE= 4 - approx SQRT( number of cores)                             |
|      NCORE specifies how many cores store one orbital (NPAR=cpu/NCORE).     |
|      This setting can  greatly improve the performance of VASP for DFT.     |
|      The default, NPAR=number of cores might be grossly inefficient         |
|      on modern multi-core architectures or massively parallel machines.     |
|      Do your own testing !!!!                                               |
|      Unfortunately you need to use the default for GW and RPA calculations. |
|      (for HF NCORE is supported but not extensively tested yet)             |
|                                                                             |
 ----------------------------------------------------------------------------- 


 ----------------------------------------------------------------------------- 
|                                                                             |
|           W    W    AA    RRRRR   N    N  II  N    N   GGGG   !!!           |
|           W    W   A  A   R    R  NN   N  II  NN   N  G    G  !!!           |
|           W    W  A    A  R    R  N N  N  II  N N  N  G       !!!           |
|           W WW W  AAAAAA  RRRRR   N  N N  II  N  N N  G  GGG   !            |
|           WW  WW  A    A  R   R   N   NN  II  N   NN  G    G                |
|           W    W  A    A  R    R  N    N  II  N    N   GGGG   !!!           |
|                                                                             |
|      You have enabled k-point parallelism (KPAR>1).                         |
|      This developmental code was originally  written by Paul Kent at ORNL,  |
|      and carefully double checked in Vienna.                                |
|      GW as well as linear response parallelism added by Martijn Marsman     |
|      and Georg Kresse.                                                      |
|      Carefully verify results versus KPAR=1.                                |
|      Report problems to Paul Kent and Vienna.                               |
|                                                                             |
 ----------------------------------------------------------------------------- 

 POTCAR:    PAW_PBE Zr_sv 04Jan2005               
   VRHFIN =Zr: 4s4p5s4d                                                         
   LEXCH  = PE                                                                  
   EATOM  =  1284.2219 eV,   94.3876 Ry                                         
                                                                                
   TITEL  = PAW_PBE Zr_sv 04Jan2005                                             
   LULTRA =        F    use ultrasoft PP ?                                      
   IUNSCR =        1    unscreen: 0-lin 1-nonlin 2-no                           
   RPACOR =    2.200    partial core radius                                     
   POMASS =   91.224; ZVAL   =   12.000    mass and valenz                      
   RCORE  =    2.500    outmost cutoff radius                                   
   RWIGS  =    3.070; RWIGS  =    1.625    wigner-seitz radius (au A)           
   ENMAX  =  229.898; ENMIN  =  172.424 eV                                      
   ICORE  =        3    local potential                                         
   LCOR   =        T    correct aug charges                                     
   LPAW   =        T    paw PP                                                  
   EAUG   =  461.257                                                            
   DEXC   =    0.000                                                            
   RMAX   =    2.561    core radius for proj-oper                               
   RAUG   =    1.300    factor for augmentation sphere                          
   RDEP   =    2.597    radius for radial grids                                 
   RDEPT  =    2.007    core radius for aug-charge                              
                                                                                
   Atomic configuration                                                         
   11 entries                                                                   
     n  l   j            E        occ.                                          
     1  0  0.50    -17820.0161   2.0000                                         
     2  0  0.50     -2467.0882   2.0000                                         
     2  1  1.50     -2199.6095   6.0000                                         
     3  0  0.50      -402.4863   2.0000                                         
     3  1  1.50      -315.3675   6.0000                                         
     3  2  2.50      -172.4472  10.0000                                         
     4  0  0.50       -52.4146   2.0000                                         
     5  0  0.50        -3.8421   1.0000                                         
     4  1  1.50       -30.5054   6.0000                                         
     4  2  2.50        -2.3341   3.0000                                         
     4  3  2.50        -1.3606   0.0000                                         
   Description                                                                  
     l       E           TYP  RCUT    TYP  RCUT                                 
     0    -52.4145962     23  2.200                                             
     0     -3.8421270     23  2.500                                             
     1    -30.5053914     23  2.200                                             
     1     20.4087390     23  2.200                                             
     2     -2.3340816     23  2.500                                             
     2     -0.6120942     23  2.500                                             
     3     -4.0817478     23  2.500                                             
  local pseudopotential read in
  partial core-charges read in
  partial kinetic energy density read in
  atomic valenz-charges read in
  non local Contribution for L=           0  read in
    real space projection operators read in
  non local Contribution for L=           0  read in
    real space projection operators read in
  non local Contribution for L=           1  read in
    real space projection operators read in
  non local Contribution for L=           1  read in
    real space projection operators read in
  non local Contribution for L=           2  read in
    real space projection operators read in
  non local Contribution for L=           2  read in
    real space projection operators read in
    PAW grid and wavefunctions read in
 
   number of l-projection  operators is LMAX  =           6
   number of lm-projection operators is LMMAX =          18
 
 POTCAR:    PAW_PBE Hf 20Jan2003                  
   VRHFIN =Hf: 6s5d                                                             
   LEXCH  = PE                                                                  
   EATOM  =    75.9011 eV,    5.5786 Ry                                         
                                                                                
   TITEL  = PAW_PBE Hf 20Jan2003                                                
   LULTRA =        F    use ultrasoft PP ?                                      
   IUNSCR =        1    unscreen: 0-lin 1-nonlin 2-no                           
   RPACOR =    2.500    partial core radius                                     
   POMASS =  178.490; ZVAL   =    4.000    mass and valenz                      
   RCORE  =    3.000    outmost cutoff radius                                   
   RWIGS  =    3.050; RWIGS  =    1.614    wigner-seitz radius (au A)           
   ENMAX  =  220.334; ENMIN  =  165.250 eV                                      
   RCLOC  =    2.212    cutoff for local pot                                    
   LCOR   =        T    correct aug charges                                     
   LPAW   =        T    paw PP                                                  
   EAUG   =  335.116                                                            
   DEXC   =    0.000                                                            
   RMAX   =    3.077    core radius for proj-oper                               
   RAUG   =    1.300    factor for augmentation sphere                          
   RDEP   =    3.047    radius for radial grids                                 
   RDEPT  =    2.344    core radius for aug-charge                              
                                                                                
   Atomic configuration                                                         
   16 entries                                                                   
     n  l   j            E        occ.                                          
     1  0  0.50    -65259.4397   2.0000                                         
     2  0  0.50    -11157.9882   2.0000                                         
     2  1  1.50     -9795.2113   6.0000                                         
     3  0  0.50     -2541.4058   2.0000                                         
     3  1  1.50     -2134.4770   6.0000                                         
     3  2  2.50     -1653.5418  10.0000                                         
     4  0  0.50      -510.9575   2.0000                                         
     4  1  1.50      -377.5023   6.0000                                         
     4  2  2.50      -205.2085  10.0000                                         
     4  3  3.50       -15.4905  14.0000                                         
     5  0  0.50       -65.6020   2.0000                                         
     5  1  1.50       -34.2798   6.0000                                         
     5  2  2.50        -1.9877   3.0000                                         
     6  0  0.50        -4.7357   1.0000                                         
     6  1  1.50        -1.3606   0.0000                                         
     5  3  2.50        -1.3606   0.0000                                         
   Description                                                                  
     l       E           TYP  RCUT    TYP  RCUT                                 
     2     -1.9876627     23  2.500                                             
     2      0.0744703     23  2.500                                             
     0     -4.7356889     23  2.600                                             
     0      3.2364747     23  2.600                                             
     1     -1.3605826     23  3.000                                             
     1     27.2116520     23  3.000                                             
  local pseudopotential read in
  partial core-charges read in
  partial kinetic energy density read in
  atomic valenz-charges read in
  non local Contribution for L=           2  read in
    real space projection operators read in
  non local Contribution for L=           2  read in
    real space projection operators read in
  non local Contribution for L=           0  read in
    real space projection operators read in
  non local Contribution for L=           0  read in
    real space projection operators read in
  non local Contribution for L=           1  read in
    real space projection operators read in
  non local Contribution for L=           1  read in
    real space projection operators read in
    PAW grid and wavefunctions read in
 
   number of l-projection  operators is LMAX  =           6
   number of lm-projection operators is LMMAX =          18
 
 POTCAR:    PAW_PBE Ta 17Jan2003                  
   VRHFIN =Ta:  6s5d                                                            
   LEXCH  = PE                                                                  
   EATOM  =   130.6506 eV,    9.6025 Ry                                         
                                                                                
   TITEL  = PAW_PBE Ta 17Jan2003                                                
   LULTRA =        F    use ultrasoft PP ?                                      
   IUNSCR =        1    unscreen: 0-lin 1-nonlin 2-no                           
   RPACOR =    2.330    partial core radius                                     
   POMASS =  180.948; ZVAL   =    5.000    mass and valenz                      
   RCORE  =    2.900    outmost cutoff radius                                   
   RWIGS  =    2.840; RWIGS  =    1.503    wigner-seitz radius (au A)           
   ENMAX  =  223.667; ENMIN  =  167.750 eV                                      
   RCLOC  =    2.205    cutoff for local pot                                    
   LCOR   =        T    correct aug charges                                     
   LPAW   =        T    paw PP                                                  
   EAUG   =  332.075                                                            
   DEXC   =    0.000                                                            
   RMAX   =    2.970    core radius for proj-oper                               
   RAUG   =    1.300    factor for augmentation sphere                          
   RDEP   =    3.060    radius for radial grids                                 
   RDEPT  =    2.354    core radius for aug-charge                              
                                                                                
   Atomic configuration                                                         
   16 entries                                                                   
     n  l   j            E        occ.                                          
     1  0  0.50    -67341.2807   2.0000                                         
     2  0  0.50    -11566.9376   2.0000                                         
     2  1  1.50    -10134.1182   6.0000                                         
     3  0  0.50     -2648.5620   2.0000                                         
     3  1  1.50     -2222.6012   6.0000                                         
     3  2  2.50     -1726.3120  10.0000                                         
     4  0  0.50      -538.6961   2.0000                                         
     4  1  1.50      -399.0129   6.0000                                         
     4  2  2.50      -220.3959  10.0000                                         
     4  3  3.50       -23.0374  14.0000                                         
     5  0  0.50       -71.2901   2.0000                                         
     5  1  1.50       -37.8225   6.0000                                         
     5  2  2.50        -2.6455   4.0000                                         
     6  0  0.50        -4.9623   1.0000                                         
     6  1  1.50        -1.3606   0.0000                                         
     5  3  2.50        -1.3606   0.0000                                         
   Description                                                                  
     l       E           TYP  RCUT    TYP  RCUT                                 
     2     -2.6455043     23  2.500                                             
     2     -0.6258895     23  2.500                                             
     0     -4.9622780     23  2.500                                             
     0      4.7531321     23  2.500                                             
     1     -1.3605826     23  2.900                                             
     1     27.2116520     23  2.900                                             
  local pseudopotential read in
  partial core-charges read in
  partial kinetic energy density read in
  atomic valenz-charges read in
  non local Contribution for L=           2  read in
    real space projection operators read in
  non local Contribution for L=           2  read in
    real space projection operators read in
  non local Contribution for L=           0  read in
    real space projection operators read in
  non local Contribution for L=           0  read in
    real space projection operators read in
  non local Contribution for L=           1  read in
    real space projection operators read in
  non local Contribution for L=           1  read in
    real space projection operators read in
    PAW grid and wavefunctions read in
 
   number of l-projection  operators is LMAX  =           6
   number of lm-projection operators is LMMAX =          18
 
 POTCAR:    PAW_PBE Nb_sv 25May2007               
   VRHFIN =Nb: 4p5s4d                                                           
   LEXCH  = PE                                                                  
   EATOM  =  1555.1913 eV,  114.3033 Ry                                         
                                                                                
   TITEL  = PAW_PBE Nb_sv 25May2007                                             
   LULTRA =        F    use ultrasoft PP ?                                      
   IUNSCR =        1    unscreen: 0-lin 1-nonlin 2-no                           
   RPACOR =    1.800    partial core radius                                     
   POMASS =   92.910; ZVAL   =   13.000    mass and valenz                      
   RCORE  =    2.400    outmost cutoff radius                                   
   RWIGS  =    2.400; RWIGS  =    1.270    wigner-seitz radius (au A)           
   ENMAX  =  293.235; ENMIN  =  219.927 eV                                      
   ICORE  =        3    local potential                                         
   LCOR   =        T    correct aug charges                                     
   LPAW   =        T    paw PP                                                  
   EAUG   =  455.659                                                            
   DEXC   =    0.000                                                            
   RMAX   =    2.456    core radius for proj-oper                               
   RAUG   =    1.300    factor for augmentation sphere                          
   RDEP   =    2.451    radius for radial grids                                 
   RDEPT  =    1.956    core radius for aug-charge                              
                                                                                
   Atomic configuration                                                         
   11 entries                                                                   
     n  l   j            E        occ.                                          
     1  0  0.50    -18805.2457   2.0000                                         
     2  0  0.50     -2630.2869   2.0000                                         
     2  1  1.50     -2348.4046   6.0000                                         
     3  0  0.50      -438.8757   2.0000                                         
     3  1  1.50      -346.7588   6.0000                                         
     3  2  2.50      -196.2560  10.0000                                         
     4  0  0.50       -58.3859   2.0000                                         
     5  0  0.50        -3.9816   1.0000                                         
     4  1  1.50       -34.5141   6.0000                                         
     4  2  2.50        -3.0408   4.0000                                         
     4  3  2.50        -1.3606   0.0000                                         
   Description                                                                  
     l       E           TYP  RCUT    TYP  RCUT                                 
     0    -58.3859094     23  2.200                                             
     0     -3.9816262     23  2.200                                             
     1    -34.5140738     23  2.200                                             
     1     13.6058260     23  2.200                                             
     2     -3.0408010     23  2.200                                             
     2     -0.1283038     23  2.200                                             
     3     -1.3605826     23  2.400                                             
  local pseudopotential read in
  partial core-charges read in
  partial kinetic energy density read in
  atomic valenz-charges read in
  non local Contribution for L=           0  read in
    real space projection operators read in
  non local Contribution for L=           0  read in
    real space projection operators read in
  non local Contribution for L=           1  read in
    real space projection operators read in
  non local Contribution for L=           1  read in
    real space projection operators read in
  non local Contribution for L=           2  read in
    real space projection operators read in
  non local Contribution for L=           2  read in
    real space projection operators read in
    PAW grid and wavefunctions read in
 
   number of l-projection  operators is LMAX  =           6
   number of lm-projection operators is LMMAX =          18
 
 Optimization of the real space projectors (new method)

 maximal supplied QI-value         = 15.12
 optimisation between [QCUT,QGAM] = [  8.77, 17.69] = [ 21.53, 87.61] Ry 
 Optimized for a Real-space Cutoff    1.74 Angstroem

   l    n(q)    QCUT    max X(q) W(low)/X(q) W(high)/X(q)  e(spline) 
   0      9     8.768    12.107    0.28E-04    0.53E-06    0.29E-07
   0      9     8.768     9.948    0.36E-04    0.50E-05    0.64E-07
   1      9     8.768     3.563    0.14E-04    0.16E-04    0.88E-07
   1      9     8.768     4.524    0.21E-03    0.33E-03    0.19E-06
   2      8     8.768    87.261    0.19E-03    0.25E-03    0.24E-06
   2      8     8.768    70.950    0.19E-03    0.24E-03    0.24E-06
 Optimization of the real space projectors (new method)

 maximal supplied QI-value         = 12.47
 optimisation between [QCUT,QGAM] = [  8.86, 17.71] = [ 21.96, 87.83] Ry 
 Optimized for a Real-space Cutoff    1.90 Angstroem

   l    n(q)    QCUT    max X(q) W(low)/X(q) W(high)/X(q)  e(spline) 
   2      9     8.855    48.111    0.22E-03    0.80E-04    0.10E-05
   2      9     8.855    40.545    0.21E-03    0.76E-04    0.95E-06
   0     10     8.855   121.658    0.27E-04    0.12E-04    0.11E-06
   0     10     8.855    71.177    0.22E-04    0.11E-04    0.99E-07
   1     10     8.855    14.183    0.65E-04    0.10E-03    0.98E-07
   1     10     8.855     8.257    0.43E-04    0.73E-04    0.72E-07
 Optimization of the real space projectors (new method)

 maximal supplied QI-value         = 12.85
 optimisation between [QCUT,QGAM] = [  8.87, 17.73] = [ 22.01, 88.06] Ry 
 Optimized for a Real-space Cutoff    1.90 Angstroem

   l    n(q)    QCUT    max X(q) W(low)/X(q) W(high)/X(q)  e(spline) 
   2      9     8.867    62.315    0.23E-03    0.62E-04    0.11E-05
   2      9     8.867    52.185    0.23E-03    0.62E-04    0.11E-05
   0     10     8.867   103.837    0.15E-04    0.23E-04    0.98E-07
   0     10     8.867    59.728    0.12E-04    0.21E-04    0.89E-07
   1     10     8.867    13.958    0.50E-04    0.22E-04    0.14E-06
   1     10     8.867     8.441    0.36E-04    0.19E-04    0.98E-07
 Optimization of the real space projectors (new method)

 maximal supplied QI-value         = 15.68
 optimisation between [QCUT,QGAM] = [  8.78, 17.72] = [ 21.60, 87.97] Ry 
 Optimized for a Real-space Cutoff    1.96 Angstroem

   l    n(q)    QCUT    max X(q) W(low)/X(q) W(high)/X(q)  e(spline) 
   0     10     8.783    10.201    0.29E-04    0.25E-05    0.69E-07
   0     10     8.783     8.174    0.45E-04    0.57E-05    0.14E-06
   1     10     8.783     3.488    0.76E-05    0.24E-04    0.95E-07
   1     10     8.783     4.917    0.78E-04    0.14E-03    0.46E-06
   2      9     8.783   153.744    0.22E-03    0.34E-04    0.15E-05
   2      9     8.783   126.342    0.22E-03    0.35E-04    0.15E-05
  PAW_PBE Zr_sv 04Jan2005               :
 energy of atom  1       EATOM=-1284.2219
 kinetic energy error for atom=    0.0483 (will be added to EATOM!!)
  PAW_PBE Hf 20Jan2003                  :
 energy of atom  2       EATOM=  -75.9011
 kinetic energy error for atom=    0.0071 (will be added to EATOM!!)
  PAW_PBE Ta 17Jan2003                  :
 energy of atom  3       EATOM= -130.6506
 kinetic energy error for atom=    0.0121 (will be added to EATOM!!)
  PAW_PBE Nb_sv 25May2007               :
 energy of atom  4       EATOM=-1555.1913
 kinetic energy error for atom=    0.0655 (will be added to EATOM!!)
 
 
 POSCAR: generated by pypospack                  
  positions in direct lattice
  No initial velocities read in
 exchange correlation table for  LEXCH =        8
   RHO(1)=    0.500       N(1)  =     2000
   RHO(2)=  100.500       N(2)  =     4000
 


--------------------------------------------------------------------------------------------------------


 ion  position               nearest neighbor table
   1  0.768  0.833  0.838-  27 3.00  21 3.00  32 3.01  16 3.01   7 3.02  13 3.05  14 3.07  25 3.07
                             4 3.17   2 3.37  12 3.42  22 3.44  18 3.50   4 3.71
   2  0.759  0.836  0.168-  16 2.95  31 2.96  30 2.97  21 3.05  28 3.10   9 3.10  27 3.16   7 3.17
                             5 3.29  35 3.29  18 3.34  10 3.36   1 3.37  10 3.51
   3  0.490  0.339  0.001-  19 2.95  24 2.97  12 2.98  33 3.02   8 3.02   5 3.03  35 3.05  22 3.07
                             7 3.25   6 3.35  16 3.42  26 3.43  34 3.45   6 3.53
   4  0.229  0.842  0.842-  27 2.94   7 2.98  21 2.98  16 3.00  14 3.01  25 3.02  32 3.06  13 3.11
                             1 3.17  24 3.18  10 3.34  33 3.45  17 3.60   1 3.71
   5  0.744  0.512  0.172-  27 2.92  28 2.93  26 2.96   7 2.97   9 2.99   3 3.03  15 3.06   6 3.13
                             2 3.29  19 3.33  20 3.46  19 3.54  22 3.62
   6  0.003  0.331  0.997-  33 2.94  22 3.01  35 3.06  12 3.08   8 3.08  21 3.09  19 3.10  24 3.10
                             5 3.13  27 3.21   3 3.35  11 3.45  15 3.53   3 3.53
   7  0.490  0.659  0.987-  33 2.87  19 2.92   5 2.97   4 2.98   1 3.02  22 3.03  10 3.09   2 3.17
                             3 3.25  13 3.28  27 3.28  16 3.52
   8  0.259  0.157  0.175-  21 2.86  30 2.87  16 2.92  31 2.95  26 2.97   3 3.02  15 3.08   6 3.08
                            23 3.24  10 3.28  35 3.32  24 3.52  19 3.57
   9  0.010  0.661  0.352-  29 2.88  17 2.89  19 2.95  18 2.97  20 2.99   5 2.99  10 3.05   2 3.10
                            32 3.13  15 3.34  28 3.35
  10  0.248  0.835  0.170-  30 3.00  16 3.01  28 3.03  31 3.03   9 3.05  27 3.08   7 3.09  21 3.14
                            17 3.26   8 3.28  19 3.33   4 3.34   2 3.36   2 3.51
  11  0.008  0.329  0.659-  33 2.90  29 2.91  22 2.93  20 2.94  36 3.01  23 3.01  12 3.06  24 3.07
                            15 3.22  14 3.25  34 3.28  32 3.37   6 3.45
  12  0.724  0.168  0.825-  16 2.87  34 2.90  25 2.94  21 2.94   3 2.98  11 3.06  14 3.08   6 3.08
                            24 3.12  36 3.32  22 3.35   1 3.42
  13  0.494  0.672  0.665-  20 2.93  29 2.93  18 2.95  17 2.96  33 2.97  22 2.97   1 3.05   4 3.11
                            25 3.23  28 3.25   7 3.28  34 3.40  32 3.40
  14  0.003  0.010  0.652-  36 2.90  23 2.92  24 2.96  18 2.97  17 2.98   4 3.01   1 3.07  12 3.08
                            31 3.13  11 3.25  25 3.39  25 3.50  21 3.57
  15  0.996  0.333  0.343-  29 2.93  36 2.97  23 2.98  20 2.99  35 3.04   5 3.06  19 3.06   8 3.08
                            11 3.22   9 3.34  31 3.36  26 3.37  26 3.51   6 3.53
  16  0.509  0.004  0.003-  35 2.82  24 2.85  12 2.87   8 2.92   2 2.95   4 3.00   1 3.01  10 3.01
                            21 3.33   3 3.42   7 3.52  25 3.52  21 3.56
  17  0.262  0.842  0.490-  25 2.78  30 2.82  28 2.84  31 2.86   9 2.89  13 2.96  14 2.98  32 3.11
                            10 3.26  23 3.27  18 3.30  18 3.58   4 3.60
  18  0.742  0.837  0.496-  30 2.81  25 2.84  28 2.86  31 2.87  13 2.95   9 2.97  14 2.97  32 3.03
                            17 3.30   2 3.34  20 3.48   1 3.50  17 3.58
  19  0.260  0.508  0.175-  27 2.86  28 2.87   7 2.92  26 2.95   9 2.95   3 2.95  15 3.06   6 3.10
                            29 3.32  10 3.33   5 3.33   5 3.54   8 3.57
  20  0.737  0.496  0.511-  34 2.81  26 2.88  32 2.89  28 2.91  13 2.93  11 2.94  15 2.99   9 2.99
                            22 3.12  29 3.24   5 3.46  18 3.48
  21  0.993  0.028  0.001-  35 2.79   8 2.86  24 2.89  12 2.94   4 2.98   1 3.00   2 3.05   6 3.09
                            10 3.14  16 3.33  16 3.56  14 3.57
  22  0.756  0.496  0.817-  32 2.85  34 2.91  11 2.93  27 2.94  13 2.97   6 3.01   7 3.03   3 3.07
                            20 3.12  33 3.28  12 3.35   1 3.44   5 3.62
  23  0.272  0.164  0.493-  30 2.83  26 2.85  34 2.88  25 2.88  31 2.92  14 2.92  15 2.98  11 3.01
                            36 3.15   8 3.24  17 3.27  24 3.44
  24  0.270  0.154  0.830-  16 2.85  25 2.89  21 2.89  34 2.94  14 2.96   3 2.97  11 3.07   6 3.10
                            12 3.12   4 3.18  23 3.44   8 3.52
  25  0.495  0.989  0.657-  17 2.78  18 2.84  23 2.88  24 2.89  36 2.90  12 2.94   4 3.02   1 3.07
                            13 3.23  30 3.26  14 3.39  14 3.50  16 3.52
  26  0.506  0.335  0.337-  36 2.85  23 2.85  29 2.86  20 2.88  19 2.95   5 2.96  35 2.96   8 2.97
                            34 3.33  15 3.37   3 3.43  15 3.51
  27  0.013  0.646  0.995-  33 2.72  19 2.86   5 2.92   4 2.94  22 2.94   1 3.00  10 3.08   2 3.16
                             6 3.21   7 3.28
  28  0.496  0.664  0.347-  29 2.83  17 2.84  18 2.86  19 2.87  20 2.91   5 2.93  10 3.03   2 3.10
                            13 3.25   9 3.35
  29  0.265  0.493  0.501-  34 2.74  28 2.83  26 2.86   9 2.88  11 2.91  13 2.93  15 2.93  32 2.98
                            20 3.24  19 3.32
  30  0.511  0.001  0.338-  36 2.78  18 2.81  17 2.82  23 2.83  35 2.83   8 2.87   2 2.97  10 3.00
                            25 3.26
  31  0.996  0.003  0.345-  17 2.86  18 2.87  23 2.92  36 2.93   8 2.95  35 2.95   2 2.96  10 3.03
                            14 3.13  15 3.36
  32  1.000  0.660  0.660-  33 2.82  22 2.85  20 2.89  29 2.98   1 3.01  18 3.03   4 3.06  17 3.11
                             9 3.13  11 3.37  13 3.40
  33  0.233  0.504  0.826-  27 2.72  32 2.82   7 2.87  11 2.90   6 2.94  34 2.95  13 2.97   3 3.02
                            22 3.28   4 3.45
  34  0.486  0.338  0.663-  29 2.74  20 2.81  23 2.88  12 2.90  22 2.91  24 2.94  33 2.95  36 2.97
                            11 3.28  26 3.33  13 3.40   3 3.45
  35  0.742  0.159  0.170-  21 2.79  16 2.82  30 2.83  31 2.95  26 2.96  15 3.04   3 3.05   6 3.06
                             2 3.29   8 3.32
  36  0.731  0.165  0.499-  30 2.78  26 2.85  25 2.90  14 2.90  31 2.93  34 2.97  15 2.97  11 3.01
                            23 3.15  12 3.32
 
  LATTYP: Found a triclinic cell.
 ALAT       =     6.8748664012
 B/A-ratio  =     1.7845360135
 C/A-ratio  =     1.4806637707
 COS(alpha) =     0.0005724305
 COS(beta)  =     0.0044310884
 COS(gamma) =     0.5563832914
  
  Lattice vectors:
  
 A1 = (   6.8748289823,  -0.0155735038,  -0.0164913529)
 A2 = (   6.8504012282,  -0.0040155896,  10.1777586358)
 A3 = (   0.0220184003, -10.1793349418,  -0.0118123181)


Analysis of symmetry for initial positions (statically):
=====================================================================
 Subroutine PRICEL returns:
 Original cell was already a primitive cell.
 

 Routine SETGRP: Setting up the symmetry group for a 
 triclinic supercell.


 Subroutine GETGRP returns: Found  1 space group operations
 (whereof  1 operations were pure point group operations)
 out of a pool of  2 trial point group operations.


The static configuration has the point symmetry C_1 .


Analysis of symmetry for dynamics (positions and initial velocities):
=====================================================================
 Subroutine PRICEL returns:
 Original cell was already a primitive cell.
 

 Routine SETGRP: Setting up the symmetry group for a 
 triclinic supercell.


 Subroutine GETGRP returns: Found  1 space group operations
 (whereof  1 operations were pure point group operations)
 out of a pool of  2 trial point group operations.


The dynamic configuration has the point symmetry C_1 .


 Subroutine INISYM returns: Found  1 space group operations
 (whereof  1 operations are pure point group operations),
 and found     1 'primitive' translations

 
 
 KPOINTS: k-points                                

Automatic generation of k-mesh.
Space group operators:
 irot       det(A)        alpha          n_x          n_y          n_z        tau_x        tau_y        tau_z
    1     1.000000     0.000000     1.000000     0.000000     0.000000     0.000000     0.000000     0.000000
 
 Subroutine IBZKPT returns following result:
 ===========================================
 
 Found     14 irreducible k-points:
 
 Following reciprocal coordinates:
            Coordinates               Weight
  0.000000  0.000000  0.000000      1.000000
  0.333333  0.000000  0.000000      2.000000
  0.000000  0.333333  0.000000      2.000000
  0.333333  0.333333  0.000000      2.000000
 -0.333333  0.333333  0.000000      2.000000
  0.000000 -0.000000  0.333333      2.000000
  0.333333 -0.000000  0.333333      2.000000
 -0.333333  0.000000  0.333333      2.000000
  0.000000  0.333333  0.333333      2.000000
  0.333333  0.333333  0.333333      2.000000
 -0.333333  0.333333  0.333333      2.000000
  0.000000 -0.333333  0.333333      2.000000
  0.333333 -0.333333  0.333333      2.000000
 -0.333333 -0.333333  0.333333      2.000000
 
 Following cartesian coordinates:
            Coordinates               Weight
  0.000000  0.000000  0.000000      1.000000
  0.241866  0.000522  0.000579      2.000000
  0.000370  0.163349 -0.000184      2.000000
  0.242236  0.163871  0.000395      2.000000
 -0.241496  0.162826 -0.000763      2.000000
  0.000391 -0.000188  0.163110      2.000000
  0.242257  0.000334  0.163689      2.000000
 -0.241475 -0.000711  0.162531      2.000000
  0.000760  0.163160  0.162925      2.000000
  0.242626  0.163683  0.163504      2.000000
 -0.241106  0.162638  0.162346      2.000000
  0.000021 -0.163537  0.163294      2.000000
  0.241887 -0.163015  0.163873      2.000000
 -0.241845 -0.164060  0.162715      2.000000
 


--------------------------------------------------------------------------------------------------------




 Dimension of arrays:
   k-points           NKPTS =     14   k-points in BZ     NKDIM =     14   number of bands    NBANDS=    188
   number of dos      NEDOS =    301   number of ions     NIONS =     36
   non local maximal  LDIM  =      6   non local SUM 2l+1 LMDIM =     18
   total plane-waves  NPLWV = 144000
   max r-space proj   IRMAX =   6421   max aug-charges    IRDMAX=  13938
   dimension x,y,z NGX =    40 NGY =   60 NGZ =   60
   dimension x,y,z NGXF=    80 NGYF=  120 NGZF=  120
   support grid    NGXF=    80 NGYF=  120 NGZF=  120
   ions per type =               8   7  11  10
 NGX,Y,Z   is equivalent  to a cutoff of   9.67,  9.80,  9.78 a.u.
 NGXF,Y,Z  is equivalent  to a cutoff of  19.35, 19.60, 19.57 a.u.


 I would recommend the setting:
   dimension x,y,z NGX =    39 NGY =   58 NGZ =   58
 SYSTEM =  automatically generated by mexm         
 POSCAR =  generated by pypospack                  

 Startparameter for this run:
   NWRITE =      2    write-flag & timer
   PREC   = accura    normal or accurate (medium, high low for compatibility)
   ISTART =      0    job   : 0-new  1-cont  2-samecut
   ICHARG =      2    charge: 1-file 2-atom 10-const
   ISPIN  =      1    spin polarized calculation?
   LNONCOLLINEAR =      F non collinear calculations
   LSORBIT =      F    spin-orbit coupling
   INIWAV =      1    electr: 0-lowe 1-rand  2-diag
   LASPH  =      F    aspherical Exc in radial PAW
   METAGGA=      F    non-selfconsistent MetaGGA calc.

 Electronic Relaxation 1
   ENCUT  =  300.0 eV  22.05 Ry    4.70 a.u.   9.71 14.38 14.40*2*pi/ulx,y,z
   ENINI  =  300.0     initial cutoff
   ENAUG  =  461.3 eV  augmentation charge cutoff
   NELM   =     70;   NELMIN=  2; NELMDL= -5     # of ELM steps 
   EDIFF  = 0.1E-04   stopping-criterion for ELM
   LREAL  =      T    real-space projection
   NLSPLINE    = F    spline interpolate recip. space projectors
   LCOMPAT=      F    compatible to vasp.4.4
   GGA_COMPAT  = T    GGA compatible to vasp.4.4-vasp.4.6
   LMAXPAW     = -100 max onsite density
   LMAXMIX     =    2 max onsite mixed and CHGCAR
   VOSKOWN=      0    Vosko Wilk Nusair interpolation
   ROPT   =   -0.00025  -0.00025  -0.00025  -0.00025
 Ionic relaxation
   EDIFFG = -.1E-01   stopping-criterion for IOM
   NSW    =    300    number of steps for IOM
   NBLOCK =      1;   KBLOCK =    300    inner block; outer block 
   IBRION =      2    ionic relax: 0-MD 1-quasi-New 2-CG
   NFREE  =      1    steps in history (QN), initial steepest desc. (CG)
   ISIF   =      3    stress and relaxation
   IWAVPR =     11    prediction:  0-non 1-charg 2-wave 3-comb
   ISYM   =      1    0-nonsym 1-usesym 2-fastsym
   LCORR  =      T    Harris-Foulkes like correction to forces

   POTIM  = 0.1500    time-step for ionic-motion
   TEIN   =    0.0    initial temperature
   TEBEG  =    0.0;   TEEND  =   0.0 temperature during run
   SMASS  =  -3.00    Nose mass-parameter (am)
   estimated Nose-frequenzy (Omega)   =  0.10E-29 period in steps =****** mass=  -0.108E-26a.u.
   SCALEE = 1.0000    scale energy and forces
   NPACO  =    256;   APACO  = 16.0  distance and # of slots for P.C.
   PSTRESS=    0.0 pullay stress

  Mass of Ions in am
   POMASS =  91.22178.49180.95 92.91
  Ionic Valenz
   ZVAL   =  12.00  4.00  5.00 13.00
  Atomic Wigner-Seitz radii
   RWIGS  =  -1.00 -1.00 -1.00 -1.00
  virtual crystal weights 
   VCA    =   1.00  1.00  1.00  1.00
   NELECT =     309.0000    total number of electrons
   NUPDOWN=      -1.0000    fix difference up-down

 DOS related values:
   EMIN   =  10.00;   EMAX   =-10.00  energy-range for DOS
   EFERMI =   0.00
   ISMEAR =     1;   SIGMA  =   0.15  broadening in eV -4-tet -1-fermi 0-gaus

 Electronic relaxation 2 (details)
   IALGO  =     68    algorithm
   LDIAG  =      T    sub-space diagonalisation (order eigenvalues)
   LSUBROT=      F    optimize rotation matrix (better conditioning)
   TURBO    =      0    0=normal 1=particle mesh
   IRESTART =      0    0=no restart 2=restart with 2 vectors
   NREBOOT  =      0    no. of reboots
   NMIN     =      0    reboot dimension
   EREF     =   0.00    reference energy to select bands
   IMIX   =      4    mixing-type and parameters
     AMIX     =   0.40;   BMIX     =  1.00
     AMIX_MAG =   1.60;   BMIX_MAG =  1.00
     AMIN     =   0.10
     WC   =   100.;   INIMIX=   1;  MIXPRE=   1;  MAXMIX= -45

 Intra band minimization:
   WEIMIN = 0.0010     energy-eigenvalue tresh-hold
   EBREAK =  0.13E-07  absolut break condition
   DEPER  =   0.30     relativ break condition  

   TIME   =   0.40     timestep for ELM

  volume/ion in A,a.u.               =      19.82       133.73
  Fermi-wavevector in a.u.,A,eV,Ry     =   1.238655  2.340719 20.874975  1.534267
  Thomas-Fermi vector in A             =   2.373172
 
 Write flags
   LWAVE  =      F    write WAVECAR
   LCHARG =      F    write CHGCAR
   LVTOT  =      F    write LOCPOT, total local potential
   LVHAR  =      F    write LOCPOT, Hartree potential only
   LELF   =      F    write electronic localiz. function (ELF)
   LORBIT =      0    0 simple, 1 ext, 2 COOP (PROOUT)


 Dipole corrections
   LMONO  =      F    monopole corrections only (constant potential shift)
   LDIPOL =      F    correct potential (dipole corrections)
   IDIPOL =      0    1-x, 2-y, 3-z, 4-all directions 
   EPSILON=  1.0000000 bulk dielectric constant

 Exchange correlation treatment:
   GGA     =    --    GGA type
   LEXCH   =     8    internal setting for exchange type
   VOSKOWN=      0    Vosko Wilk Nusair interpolation
   LHFCALC =     F    Hartree Fock is set to
   LHFONE  =     F    Hartree Fock one center treatment
   AEXX    =    0.0000 exact exchange contribution

 Linear response parameters
   LEPSILON=     F    determine dielectric tensor
   LRPA    =     F    only Hartree local field effects (RPA)
   LNABLA  =     F    use nabla operator in PAW spheres
   LVEL    =     F    velocity operator in full k-point grid
   LINTERFAST=   F  fast interpolation
   KINTER  =     0    interpolate to denser k-point grid
   CSHIFT  =0.1000    complex shift for real part using Kramers Kronig
   OMEGAMAX=  -1.0    maximum frequency
   DEG_THRESHOLD= 0.2000000E-02 threshold for treating states as degnerate
   RTIME   =    0.100 relaxation time in fs

 Orbital magnetization related:
   ORBITALMAG=     F  switch on orbital magnetization
   LCHIMAG   =     F  perturbation theory with respect to B field
   DQ        =  0.001000  dq finite difference perturbation B field



--------------------------------------------------------------------------------------------------------


 conjugate gradient relaxation of ions
 charge density and potential will be updated during run
 non-spin polarized calculation
 RMM-DIIS sequential band-by-band and
  variant of blocked Davidson during initial phase
 perform sub-space diagonalisation
    before iterative eigenvector-optimisation
 modified Broyden-mixing scheme, WC =      100.0
 initial mixing is a Kerker type mixing with AMIX =  0.4000 and BMIX =      1.0000
 Hartree-type preconditioning will be used
 using additional bands           33
 real space projection scheme for non local part
 use partial core corrections
 calculate Harris-corrections to forces 
   (improved forces if not selfconsistent)
 use gradient corrections 
 use of overlap-Matrix (Vanderbilt PP)
 Methfessel and Paxton  Order N= 1 SIGMA  =   0.15


--------------------------------------------------------------------------------------------------------


  energy-cutoff  :      300.00
  volume of cell :      713.40
      direct lattice vectors                 reciprocal lattice vectors
     6.874828982 -0.015573504 -0.016491353     0.145459711  0.000314232  0.000348198
    -0.022018400 10.179334942  0.011812318     0.000222274  0.098238854 -0.000110847
    -0.024427754  0.011557914 10.194249989     0.000235054 -0.000113323  0.098095206

  length of vectors
     6.874866401 10.179365609 10.194285808     0.145460467  0.098239168  0.098095553


 
 k-points in units of 2pi/SCALE and weight: k-points                                
   0.00000000  0.00000000  0.00000000       0.037
   0.24186604  0.00052250  0.00057897       0.074
   0.00036959  0.16334862 -0.00018431       0.074
   0.24223563  0.16387112  0.00039466       0.074
  -0.24149645  0.16282612 -0.00076329       0.074
   0.00039084 -0.00018843  0.16310977       0.074
   0.24225688  0.00033407  0.16368874       0.074
  -0.24147520 -0.00071093  0.16253079       0.074
   0.00076043  0.16316019  0.16292545       0.074
   0.24262647  0.16368269  0.16350443       0.074
  -0.24110561  0.16263769  0.16234648       0.074
   0.00002125 -0.16353705  0.16329408       0.074
   0.24188729 -0.16301455  0.16387305       0.074
  -0.24184479 -0.16405955  0.16271511       0.074
 
 k-points in reciprocal lattice and weights: k-points                                
   0.00000000  0.00000000  0.00000000       0.037
   0.33333333  0.00000000  0.00000000       0.074
   0.00000000  0.33333333  0.00000000       0.074
   0.33333333  0.33333333  0.00000000       0.074
  -0.33333333  0.33333333  0.00000000       0.074
   0.00000000 -0.00000000  0.33333333       0.074
   0.33333333 -0.00000000  0.33333333       0.074
  -0.33333333  0.00000000  0.33333333       0.074
   0.00000000  0.33333333  0.33333333       0.074
   0.33333333  0.33333333  0.33333333       0.074
  -0.33333333  0.33333333  0.33333333       0.074
   0.00000000 -0.33333333  0.33333333       0.074
   0.33333333 -0.33333333  0.33333333       0.074
  -0.33333333 -0.33333333  0.33333333       0.074
 
 position of ions in fractional coordinates (direct lattice) 
   0.76842300  0.83342800  0.83839400
   0.75918700  0.83570800  0.16849300
   0.49040900  0.33908800  0.00064300
   0.22939900  0.84240500  0.84249300
   0.74436700  0.51228300  0.17175100
   0.00293100  0.33081600  0.99746000
   0.48952900  0.65856800  0.98666500
   0.25910400  0.15689500  0.17540000
   0.00959200  0.66075300  0.35245500
   0.24811500  0.83473500  0.16984100
   0.00838100  0.32873600  0.65905300
   0.72383400  0.16781500  0.82496000
   0.49400900  0.67207000  0.66535100
   0.00310000  0.00956200  0.65203700
   0.99626200  0.33278500  0.34318100
   0.50909500  0.00369600  0.00267800
   0.26152900  0.84233100  0.48974200
   0.74154300  0.83716000  0.49550900
   0.25954600  0.50806600  0.17524500
   0.73655200  0.49554900  0.51072900
   0.99254800  0.02757500  0.00127900
   0.75648600  0.49614300  0.81688800
   0.27212400  0.16366800  0.49270800
   0.27043300  0.15360200  0.82989800
   0.49515800  0.98938800  0.65747800
   0.50597200  0.33473900  0.33655600
   0.01265100  0.64579800  0.99486700
   0.49626900  0.66437600  0.34709300
   0.26503000  0.49268900  0.50077400
   0.51093500  0.00112100  0.33780000
   0.99577800  0.00294900  0.34508500
   0.99972500  0.65963300  0.65973800
   0.23316600  0.50400300  0.82590100
   0.48605000  0.33835300  0.66250800
   0.74223500  0.15902100  0.17005100
   0.73053000  0.16450200  0.49929600
 
 position of ions in cartesian coordinates  (Angst):
   5.24394588  8.48146581  8.54397041
   5.19676393  8.49707587  1.71501139
   3.36399612  3.44406037  0.00247281
   1.53795027  8.58128757  8.59475191
   5.10192068  5.20509292  1.74464826
  -0.01149962  3.37896978 10.17221596
   3.32682553  6.70756436 10.05801588
   1.77355648  1.59507886  1.78565177
   0.04278495  6.72995036  3.60066122
   1.68321983  8.49514614  1.73717002
   0.03428052  3.35380061  6.72229596
   4.95238802  1.70650728  8.39989375
   3.36517645  6.84122225  6.78254625
   0.00517363  0.10482271  6.64709001
   6.83342034  3.37598115  3.48597416
   3.49979426  0.02972538  0.01894819
   1.76745707  8.57595685  4.99818929
   5.06744421  8.51591067  5.04900237
   1.76886672  5.16975741  1.78821251
   5.04028188  5.03879152  5.20020595
   6.82295936  0.26525249 -0.00300429
   5.16983286  5.04806616  8.32094561
   1.85516650  1.66748814  5.02023413
   1.83552601  1.56894651  8.45754227
   3.36628112 10.07119957  6.70601623
   3.46287925  3.40343053  3.42654588
   0.04845166  6.58509571 10.14934264
   3.38865731  6.75918886  3.53801648
   1.79895492  5.01690681  5.10646444
   3.50431437  0.00735825  3.43520488
   6.83730887  0.01849957  3.50149587
   6.84229842  6.70668122  6.71683908
   1.57170413  5.13632983  8.42154948
   3.31787705  3.44429622  6.74975328
   5.09508334  1.60913426  1.72318035
   5.00645007  1.66891487  5.07984396
 


--------------------------------------------------------------------------------------------------------


 k-point  1 :   0.0000 0.0000 0.0000  plane waves:    8469
 k-point  2 :   0.3333 0.0000 0.0000  plane waves:    8421
 k-point  3 :   0.0000 0.3333 0.0000  plane waves:    8423
 k-point  4 :   0.3333 0.3333 0.0000  plane waves:    8403
 k-point  5 :  -0.3333 0.3333 0.0000  plane waves:    8411
 k-point  6 :   0.0000-0.0000 0.3333  plane waves:    8421
 k-point  7 :   0.3333-0.0000 0.3333  plane waves:    8415
 k-point  8 :  -0.3333 0.0000 0.3333  plane waves:    8408
 k-point  9 :   0.0000 0.3333 0.3333  plane waves:    8403
 k-point 10 :   0.3333 0.3333 0.3333  plane waves:    8422
 k-point 11 :  -0.3333 0.3333 0.3333  plane waves:    8409
 k-point 12 :   0.0000-0.3333 0.3333  plane waves:    8401
 k-point 13 :   0.3333-0.3333 0.3333  plane waves:    8417
 k-point 14 :  -0.3333-0.3333 0.3333  plane waves:    8417

 maximum and minimum number of plane-waves per node :      1709     1662

 maximum number of plane-waves:      8469
 maximum index in each direction: 
   IXMAX=   10   IYMAX=   14   IZMAX=   14
   IXMIN=  -10   IYMIN=  -14   IZMIN=  -14

 WARNING: aliasing errors must be expected set NGX to  42 to avoid them
 NGY is ok and might be reduce to  58
 NGZ is ok and might be reduce to  58
 aliasing errors are usually negligible using standard VASP settings
 and one can safely disregard these warnings

 real space projection operators:
  total allocation   :      27911.67 KBytes
  max/ min on nodes  :       5629.64       5544.00


 parallel 3D FFT for wavefunctions:
    minimum data exchange during FFTs selected (reduces bandwidth)
 parallel 3D FFT for charge:
    minimum data exchange during FFTs selected (reduces bandwidth)


 total amount of memory used by VASP on root node    68407. kBytes
========================================================================

   base      :      30000. kBytes
   nonlr-proj:      10738. kBytes
   fftplans  :       2814. kBytes
   grid      :       5360. kBytes
   one-center:        124. kBytes
   wavefun   :      19371. kBytes
 
     INWAV:  cpu time    0.0000: real time    0.0000
 Broyden mixing: mesh for mixing (old mesh)
   NGX = 19   NGY = 29   NGZ = 29
  (NGX  = 80   NGY  =120   NGZ  =120)
  gives a total of  15979 points

 initial charge density was supplied:
 charge density of overlapping atoms calculated
 number of electron     309.0000000 magnetization 
 keeping initial charge density in first step


--------------------------------------------------------------------------------------------------------


 Maximum index for non-local projection operator         1253
 Maximum index for augmentation-charges          687 (set IRDMAX)


--------------------------------------------------------------------------------------------------------


 First call to EWALD:  gamma=   0.198
 Maximum number of real-space cells 3x 2x 2
 Maximum number of reciprocal cells 2x 3x 3

 FEWALD executed in parallel
    FEWALD:  cpu time    0.0397: real time    0.0400


----------------------------------------- Iteration    1(   1)  ---------------------------------------


    POTLOK:  cpu time    0.0510: real time    0.0512
    SETDIJ:  cpu time    0.0119: real time    0.0119
     EDDAV:  cpu time    1.0534: real time    1.1889
       DOS:  cpu time    0.0028: real time    0.0028
    --------------------------------------------
      LOOP:  cpu time    1.1268: real time    1.5217

 eigenvalue-minimisations  :  5728
 total energy-change (2. order) : 0.2055458E+04  (-0.1174723E+05)
 number of electron     309.0000000 magnetization 
 augmentation part      309.0000000 magnetization 

 Free energy of the ion-electron system (eV)
  ---------------------------------------------------
  alpha Z        PSCENC =      1658.98012577
  Ewald energy   TEWEN  =    -21683.58437796
  -Hartree energ DENC   =     -7026.30427569
  -exchange      EXHF   =         0.00000000
  -V(xc)+E(xc)   XCENC  =      -136.60347582
  PAW double counting   =     23317.34766954   -21748.81117705
  entropy T*S    EENTRO =        -0.00268804
  eigenvalues    EBANDS =      -118.49255450
  atomic energy  EATOM  =     27792.92836812
  Solvation  Ediel_sol  =         0.00000000
  ---------------------------------------------------
  free energy    TOTEN  =      2055.45761436 eV

  energy without entropy =     2055.46030240  energy(sigma->0) =     2055.45851038


--------------------------------------------------------------------------------------------------------




----------------------------------------- Iteration    1(   2)  ---------------------------------------


     EDDAV:  cpu time    1.1180: real time    1.1215
       DOS:  cpu time    0.0017: real time    0.0017
    --------------------------------------------
      LOOP:  cpu time    1.1207: real time    1.2493

 eigenvalue-minimisations  :  6004
 total energy-change (2. order) :-0.2136779E+04  (-0.2061268E+04)
 number of electron     309.0000000 magnetization 
 augmentation part      309.0000000 magnetization 

 Free energy of the ion-electron system (eV)
  ---------------------------------------------------
  alpha Z        PSCENC =      1658.98012577
  Ewald energy   TEWEN  =    -21683.58437796
  -Hartree energ DENC   =     -7026.30427569
  -exchange      EXHF   =         0.00000000
  -V(xc)+E(xc)   XCENC  =      -136.60347582
  PAW double counting   =     23317.34766954   -21748.81117705
  entropy T*S    EENTRO =         0.01001947
  eigenvalues    EBANDS =     -2255.28408208
  atomic energy  EATOM  =     27792.92836812
  Solvation  Ediel_sol  =         0.00000000
  ---------------------------------------------------
  free energy    TOTEN  =       -81.32120570 eV

  energy without entropy =      -81.33122517  energy(sigma->0) =      -81.32454552


--------------------------------------------------------------------------------------------------------




----------------------------------------- Iteration    1(   3)  ---------------------------------------


     EDDAV:  cpu time    1.6420: real time    1.6482
       DOS:  cpu time    0.0012: real time    0.0012
    --------------------------------------------
      LOOP:  cpu time    1.6437: real time    1.6724

 eigenvalue-minimisations  :  8952
 total energy-change (2. order) :-0.2668917E+03  (-0.2535616E+03)
 number of electron     309.0000000 magnetization 
 augmentation part      309.0000000 magnetization 

 Free energy of the ion-electron system (eV)
  ---------------------------------------------------
  alpha Z        PSCENC =      1658.98012577
  Ewald energy   TEWEN  =    -21683.58437796
  -Hartree energ DENC   =     -7026.30427569
  -exchange      EXHF   =         0.00000000
  -V(xc)+E(xc)   XCENC  =      -136.60347582
  PAW double counting   =     23317.34766954   -21748.81117705
  entropy T*S    EENTRO =         0.00340880
  eigenvalues    EBANDS =     -2522.16919928
  atomic energy  EATOM  =     27792.92836812
  Solvation  Ediel_sol  =         0.00000000
  ---------------------------------------------------
  free energy    TOTEN  =      -348.21293358 eV

  energy without entropy =     -348.21634237  energy(sigma->0) =     -348.21406984


--------------------------------------------------------------------------------------------------------




----------------------------------------- Iteration    1(   4)  ---------------------------------------


     EDDAV:  cpu time    1.6624: real time    1.6863
       DOS:  cpu time    0.0017: real time    0.0017
    --------------------------------------------
      LOOP:  cpu time    1.6644: real time    1.7135

 eigenvalue-minimisations  :  8728
 total energy-change (2. order) :-0.3086744E+02  (-0.2950531E+02)
 number of electron     309.0000000 magnetization 
 augmentation part      309.0000000 magnetization 

 Free energy of the ion-electron system (eV)
  ---------------------------------------------------
  alpha Z        PSCENC =      1658.98012577
  Ewald energy   TEWEN  =    -21683.58437796
  -Hartree energ DENC   =     -7026.30427569
  -exchange      EXHF   =         0.00000000
  -V(xc)+E(xc)   XCENC  =      -136.60347582
  PAW double counting   =     23317.34766954   -21748.81117705
  entropy T*S    EENTRO =         0.00660844
  eigenvalues    EBANDS =     -2553.03984274
  atomic energy  EATOM  =     27792.92836812
  Solvation  Ediel_sol  =         0.00000000
  ---------------------------------------------------
  free energy    TOTEN  =      -379.08037740 eV

  energy without entropy =     -379.08698584  energy(sigma->0) =     -379.08258021


--------------------------------------------------------------------------------------------------------




----------------------------------------- Iteration    1(   5)  ---------------------------------------


     EDDAV:  cpu time    1.4851: real time    1.4897
       DOS:  cpu time    0.0018: real time    0.0018
    CHARGE:  cpu time    0.0332: real time    0.0333
    MIXING:  cpu time    0.0016: real time    0.0016
    --------------------------------------------
      LOOP:  cpu time    1.5221: real time    1.5495

 eigenvalue-minimisations  :  8360
 total energy-change (2. order) :-0.2964675E+01  (-0.2924721E+01)
 number of electron     309.0000005 magnetization 
 augmentation part       18.8153088 magnetization 

 Broyden mixing:
  rms(total) = 0.65110E+01    rms(broyden)= 0.65105E+01
  rms(prec ) = 0.67780E+01
  weight for this iteration     100.00

 Free energy of the ion-electron system (eV)
  ---------------------------------------------------
  alpha Z        PSCENC =      1658.98012577
  Ewald energy   TEWEN  =    -21683.58437796
  -Hartree energ DENC   =     -7026.30427569
  -exchange      EXHF   =         0.00000000
  -V(xc)+E(xc)   XCENC  =      -136.60347582
  PAW double counting   =     23317.34766954   -21748.81117705
  entropy T*S    EENTRO =         0.00880842
  eigenvalues    EBANDS =     -2556.00671732
  atomic energy  EATOM  =     27792.92836812
  Solvation  Ediel_sol  =         0.00000000
  ---------------------------------------------------
  free energy    TOTEN  =      -382.04505199 eV

  energy without entropy =     -382.05386041  energy(sigma->0) =     -382.04798813


--------------------------------------------------------------------------------------------------------




----------------------------------------- Iteration    1(   6)  ---------------------------------------


    POTLOK:  cpu time    0.0304: real time    0.0304
    SETDIJ:  cpu time    0.0067: real time    0.0067
    EDDIAG:  cpu time    0.1061: real time    0.1066
  RMM-DIIS:  cpu time    0.8479: real time    0.8503
    ORTHCH:  cpu time    0.0134: real time    0.0134
       DOS:  cpu time    0.0013: real time    0.0013
    CHARGE:  cpu time    0.0308: real time    0.0309
    MIXING:  cpu time    0.0015: real time    0.0021
    --------------------------------------------
      LOOP:  cpu time    1.0387: real time    1.0632

 eigenvalue-minimisations  :  7236
 total energy-change (2. order) : 0.1085830E+02  (-0.2304218E+01)
 number of electron     309.0000005 magnetization 
 augmentation part       19.5553656 magnetization 

 Broyden mixing:
  rms(total) = 0.30881E+01    rms(broyden)= 0.30881E+01
  rms(prec ) = 0.33159E+01
  weight for this iteration     100.00

 eigenvalues of (default mixing * dielectric matrix)
  average eigenvalue GAMMA=   1.8287
  1.8287

 Free energy of the ion-electron system (eV)
  ---------------------------------------------------
  alpha Z        PSCENC =      1658.98012577
  Ewald energy   TEWEN  =    -21683.58437796
  -Hartree energ DENC   =     -6836.59396559
  -exchange      EXHF   =         0.00000000
  -V(xc)+E(xc)   XCENC  =      -141.30903835
  PAW double counting   =     28898.96022786   -27338.32105525
  entropy T*S    EENTRO =         0.01325513
  eigenvalues    EBANDS =     -2722.26028781
  atomic energy  EATOM  =     27792.92836812
  Solvation  Ediel_sol  =         0.00000000
  ---------------------------------------------------
  free energy    TOTEN  =      -371.18674807 eV

  energy without entropy =     -371.20000320  energy(sigma->0) =     -371.19116644


--------------------------------------------------------------------------------------------------------




----------------------------------------- Iteration    1(   7)  ---------------------------------------


    POTLOK:  cpu time    0.0292: real time    0.0293
    SETDIJ:  cpu time    0.0417: real time    0.0418
    EDDIAG:  cpu time    0.0875: real time    0.0877
  RMM-DIIS:  cpu time    0.8019: real time    0.8046
    ORTHCH:  cpu time    0.0130: real time    0.0130
       DOS:  cpu time    0.0021: real time    0.0021
    CHARGE:  cpu time    0.0313: real time    0.0314
    MIXING:  cpu time    0.0012: real time    0.0012
    --------------------------------------------
      LOOP:  cpu time    1.0086: real time    1.0348

 eigenvalue-minimisations  :  7635
 total energy-change (2. order) :-0.2372286E+00  (-0.2320296E+01)
 number of electron     309.0000006 magnetization 
 augmentation part       20.0445973 magnetization 

 Broyden mixing:
  rms(total) = 0.10137E+01    rms(broyden)= 0.10133E+01
  rms(prec ) = 0.28640E+01
  weight for this iteration     100.00

 eigenvalues of (default mixing * dielectric matrix)
  average eigenvalue GAMMA=   1.1956
  1.8258  0.5653

 Free energy of the ion-electron system (eV)
  ---------------------------------------------------
  alpha Z        PSCENC =      1658.98012577
  Ewald energy   TEWEN  =    -21683.58437796
  -Hartree energ DENC   =     -6763.52020317
  -exchange      EXHF   =         0.00000000
  -V(xc)+E(xc)   XCENC  =      -140.72856243
  PAW double counting   =     34545.85342286   -32977.17931525
  entropy T*S    EENTRO =        -0.00297295
  eigenvalues    EBANDS =     -2804.17046167
  atomic energy  EATOM  =     27792.92836812
  Solvation  Ediel_sol  =         0.00000000
  ---------------------------------------------------
  free energy    TOTEN  =      -371.42397668 eV

  energy without entropy =     -371.42100373  energy(sigma->0) =     -371.42298570


--------------------------------------------------------------------------------------------------------




----------------------------------------- Iteration    1(   8)  ---------------------------------------


    POTLOK:  cpu time    0.0294: real time    0.0296
    SETDIJ:  cpu time    0.0037: real time    0.0038
    EDDIAG:  cpu time    0.0865: real time    0.0871
  RMM-DIIS:  cpu time    0.8443: real time    0.8497
    ORTHCH:  cpu time    0.0153: real time    0.0154
       DOS:  cpu time    0.0009: real time    0.0009
    CHARGE:  cpu time    0.0328: real time    0.0329
    MIXING:  cpu time    0.0017: real time    0.0017
    --------------------------------------------
      LOOP:  cpu time    1.0153: real time    1.0426

 eigenvalue-minimisations  :  8032
 total energy-change (2. order) : 0.4190711E+01  (-0.4924490E+00)
 number of electron     309.0000005 magnetization 
 augmentation part       19.8193542 magnetization 

 Broyden mixing:
  rms(total) = 0.43719E+00    rms(broyden)= 0.43673E+00
  rms(prec ) = 0.73321E+00
  weight for this iteration     100.00

 eigenvalues of (default mixing * dielectric matrix)
  average eigenvalue GAMMA=   1.1363
  1.7960  1.2285  0.3845

 Free energy of the ion-electron system (eV)
  ---------------------------------------------------
  alpha Z        PSCENC =      1658.98012577
  Ewald energy   TEWEN  =    -21683.58437796
  -Hartree energ DENC   =     -6741.07427136
  -exchange      EXHF   =         0.00000000
  -V(xc)+E(xc)   XCENC  =      -140.77363867
  PAW double counting   =     35210.15010922   -33639.57517534
  entropy T*S    EENTRO =         0.01667599
  eigenvalues    EBANDS =     -2824.30108144
  atomic energy  EATOM  =     27792.92836812
  Solvation  Ediel_sol  =         0.00000000
  ---------------------------------------------------
  free energy    TOTEN  =      -367.23326566 eV

  energy without entropy =     -367.24994165  energy(sigma->0) =     -367.23882433


--------------------------------------------------------------------------------------------------------




----------------------------------------- Iteration    1(   9)  ---------------------------------------


    POTLOK:  cpu time    0.0302: real time    0.0316
    SETDIJ:  cpu time    0.0037: real time    0.0037
    EDDIAG:  cpu time    0.0943: real time    0.0958
  RMM-DIIS:  cpu time    0.8370: real time    0.8410
    ORTHCH:  cpu time    0.0131: real time    0.0132
       DOS:  cpu time    0.0022: real time    0.0022
    CHARGE:  cpu time    0.0346: real time    0.0348
    MIXING:  cpu time    0.0014: real time    0.0014
    --------------------------------------------
      LOOP:  cpu time    1.0172: real time    1.0461

 eigenvalue-minimisations  :  7932
 total energy-change (2. order) : 0.1518789E+00  (-0.1993753E+00)
 number of electron     309.0000005 magnetization 
 augmentation part       19.6706940 magnetization 

 Broyden mixing:
  rms(total) = 0.31297E+00    rms(broyden)= 0.31285E+00
  rms(prec ) = 0.44267E+00
  weight for this iteration     100.00

 eigenvalues of (default mixing * dielectric matrix)
  average eigenvalue GAMMA=   1.1525
  1.8884  1.8884  0.4662  0.3670

 Free energy of the ion-electron system (eV)
  ---------------------------------------------------
  alpha Z        PSCENC =      1658.98012577
  Ewald energy   TEWEN  =    -21683.58437796
  -Hartree energ DENC   =     -6745.31373291
  -exchange      EXHF   =         0.00000000
  -V(xc)+E(xc)   XCENC  =      -140.33058816
  PAW double counting   =     35390.66255621   -33815.37405567
  entropy T*S    EENTRO =         0.01030419
  eigenvalues    EBANDS =     -2825.05998636
  atomic energy  EATOM  =     27792.92836812
  Solvation  Ediel_sol  =         0.00000000
  ---------------------------------------------------
  free energy    TOTEN  =      -367.08138677 eV

  energy without entropy =     -367.09169096  energy(sigma->0) =     -367.08482150


--------------------------------------------------------------------------------------------------------




----------------------------------------- Iteration    1(  10)  ---------------------------------------


    POTLOK:  cpu time    0.0294: real time    0.0296
    SETDIJ:  cpu time    0.0038: real time    0.0038
    EDDIAG:  cpu time    0.0812: real time    0.0817
  RMM-DIIS:  cpu time    0.8179: real time    0.8216
    ORTHCH:  cpu time    0.0130: real time    0.0131
       DOS:  cpu time    0.0086: real time    0.0086
    CHARGE:  cpu time    0.0494: real time    0.0499
    MIXING:  cpu time    0.0013: real time    0.0013
    --------------------------------------------
      LOOP:  cpu time    1.0052: real time    1.0321

 eigenvalue-minimisations  :  7867
 total energy-change (2. order) : 0.6070846E-01  (-0.4138216E-01)
 number of electron     309.0000005 magnetization 
 augmentation part       19.5521425 magnetization 

 Broyden mixing:
  rms(total) = 0.14817E+00    rms(broyden)= 0.14808E+00
  rms(prec ) = 0.29643E+00
  weight for this iteration     100.00

 eigenvalues of (default mixing * dielectric matrix)
  average eigenvalue GAMMA=   1.0997
  1.9819  1.9819  0.7027  0.4838  0.3483

 Free energy of the ion-electron system (eV)
  ---------------------------------------------------
  alpha Z        PSCENC =      1658.98012577
  Ewald energy   TEWEN  =    -21683.58437796
  -Hartree energ DENC   =     -6760.06013003
  -exchange      EXHF   =         0.00000000
  -V(xc)+E(xc)   XCENC  =      -139.25449856
  PAW double counting   =     35621.77864510   -34038.00499755
  entropy T*S    EENTRO =         0.01397763
  eigenvalues    EBANDS =     -2819.81779083
  atomic energy  EATOM  =     27792.92836812
  Solvation  Ediel_sol  =         0.00000000
  ---------------------------------------------------
  free energy    TOTEN  =      -367.02067831 eV

  energy without entropy =     -367.03465595  energy(sigma->0) =     -367.02533752


--------------------------------------------------------------------------------------------------------




----------------------------------------- Iteration    1(  11)  ---------------------------------------


    POTLOK:  cpu time    0.0288: real time    0.0292
    SETDIJ:  cpu time    0.0037: real time    0.0037
    EDDIAG:  cpu time    0.0879: real time    0.0884
  RMM-DIIS:  cpu time    0.8292: real time    0.8324
    ORTHCH:  cpu time    0.0203: real time    0.0204
       DOS:  cpu time    0.0201: real time    0.0202
    CHARGE:  cpu time    0.0351: real time    0.0354
    MIXING:  cpu time    0.0014: real time    0.0014
    --------------------------------------------
      LOOP:  cpu time    1.0271: real time    1.0534

 eigenvalue-minimisations  :  7905
 total energy-change (2. order) : 0.4013110E-01  (-0.1334549E-01)
 number of electron     309.0000005 magnetization 
 augmentation part       19.5166358 magnetization 

 Broyden mixing:
  rms(total) = 0.71174E-01    rms(broyden)= 0.71105E-01
  rms(prec ) = 0.13462E+00
  weight for this iteration     100.00

 eigenvalues of (default mixing * dielectric matrix)
  average eigenvalue GAMMA=   1.0588
  2.2257  1.7797  1.0935  0.5006  0.3507  0.4026

 Free energy of the ion-electron system (eV)
  ---------------------------------------------------
  alpha Z        PSCENC =      1658.98012577
  Ewald energy   TEWEN  =    -21683.58437796
  -Hartree energ DENC   =     -6767.12187894
  -exchange      EXHF   =         0.00000000
  -V(xc)+E(xc)   XCENC  =      -138.76459697
  PAW double counting   =     35785.22978844   -34197.54959463
  entropy T*S    EENTRO =         0.01118038
  eigenvalues    EBANDS =     -2817.10956141
  atomic energy  EATOM  =     27792.92836812
  Solvation  Ediel_sol  =         0.00000000
  ---------------------------------------------------
  free energy    TOTEN  =      -366.98054721 eV

  energy without entropy =     -366.99172758  energy(sigma->0) =     -366.98427400


--------------------------------------------------------------------------------------------------------




----------------------------------------- Iteration    1(  12)  ---------------------------------------


    POTLOK:  cpu time    0.0393: real time    0.0394
    SETDIJ:  cpu time    0.0678: real time    0.0680
    EDDIAG:  cpu time    0.1580: real time    0.1584
  RMM-DIIS:  cpu time    0.8069: real time    0.9121
    ORTHCH:  cpu time    0.0132: real time    0.0150
       DOS:  cpu time    0.0010: real time    0.0010
    CHARGE:  cpu time    0.0305: real time    0.0559
    MIXING:  cpu time    0.0014: real time    0.0024
    --------------------------------------------
      LOOP:  cpu time    1.1191: real time    1.2965

 eigenvalue-minimisations  :  7981
 total energy-change (2. order) : 0.3411198E-02  (-0.5285395E-02)
 number of electron     309.0000005 magnetization 
 augmentation part       19.5130952 magnetization 

 Broyden mixing:
  rms(total) = 0.42789E-01    rms(broyden)= 0.42772E-01
  rms(prec ) = 0.69583E-01
  weight for this iteration     100.00

 eigenvalues of (default mixing * dielectric matrix)
  average eigenvalue GAMMA=   1.0302
  2.2920  1.7648  1.3443  0.5819  0.5190  0.3815  0.3279

 Free energy of the ion-electron system (eV)
  ---------------------------------------------------
  alpha Z        PSCENC =      1658.98012577
  Ewald energy   TEWEN  =    -21683.58437796
  -Hartree energ DENC   =     -6768.84891393
  -exchange      EXHF   =         0.00000000
  -V(xc)+E(xc)   XCENC  =      -138.62596030
  PAW double counting   =     35909.74700165   -34320.27234226
  entropy T*S    EENTRO =         0.01220586
  eigenvalues    EBANDS =     -2817.31324295
  atomic energy  EATOM  =     27792.92836812
  Solvation  Ediel_sol  =         0.00000000
  ---------------------------------------------------
  free energy    TOTEN  =      -366.97713601 eV

  energy without entropy =     -366.98934186  energy(sigma->0) =     -366.98120463


--------------------------------------------------------------------------------------------------------




----------------------------------------- Iteration    1(  13)  ---------------------------------------


    POTLOK:  cpu time    0.0285: real time    0.0319
    SETDIJ:  cpu time    0.0040: real time    0.0048
    EDDIAG:  cpu time    0.1132: real time    0.1297
  RMM-DIIS:  cpu time    0.8689: real time    0.8713
    ORTHCH:  cpu time    0.0130: real time    0.0130
       DOS:  cpu time    0.0017: real time    0.0017
    CHARGE:  cpu time    0.0318: real time    0.0319
    MIXING:  cpu time    0.0015: real time    0.0015
    --------------------------------------------
      LOOP:  cpu time    1.0632: real time    1.1323

 eigenvalue-minimisations  :  7938
 total energy-change (2. order) : 0.2214469E-02  (-0.1461084E-02)
 number of electron     309.0000005 magnetization 
 augmentation part       19.5139562 magnetization 

 Broyden mixing:
  rms(total) = 0.25385E-01    rms(broyden)= 0.25376E-01
  rms(prec ) = 0.34419E-01
  weight for this iteration     100.00

 eigenvalues of (default mixing * dielectric matrix)
  average eigenvalue GAMMA=   1.0588
  2.3865  1.9313  1.5382  0.9302  0.5249  0.4692  0.3548  0.3357

 Free energy of the ion-electron system (eV)
  ---------------------------------------------------
  alpha Z        PSCENC =      1658.98012577
  Ewald energy   TEWEN  =    -21683.58437796
  -Hartree energ DENC   =     -6768.59146724
  -exchange      EXHF   =         0.00000000
  -V(xc)+E(xc)   XCENC  =      -138.63005296
  PAW double counting   =     35979.78494834   -34389.37020066
  entropy T*S    EENTRO =         0.01191707
  eigenvalues    EBANDS =     -2818.50418202
  atomic energy  EATOM  =     27792.92836812
  Solvation  Ediel_sol  =         0.00000000
  ---------------------------------------------------
  free energy    TOTEN  =      -366.97492154 eV

  energy without entropy =     -366.98683861  energy(sigma->0) =     -366.97889390


--------------------------------------------------------------------------------------------------------




----------------------------------------- Iteration    1(  14)  ---------------------------------------


    POTLOK:  cpu time    0.0402: real time    0.0403
    SETDIJ:  cpu time    0.0050: real time    0.0050
    EDDIAG:  cpu time    0.1105: real time    0.1109
  RMM-DIIS:  cpu time    0.9620: real time    0.9652
    ORTHCH:  cpu time    0.0129: real time    0.0130
       DOS:  cpu time    0.0012: real time    0.0012
    CHARGE:  cpu time    0.0312: real time    0.0313
    MIXING:  cpu time    0.0016: real time    0.0016
    --------------------------------------------
      LOOP:  cpu time    1.1652: real time    1.2476

 eigenvalue-minimisations  :  8215
 total energy-change (2. order) :-0.6506795E-04  (-0.5816841E-03)
 number of electron     309.0000005 magnetization 
 augmentation part       19.5113921 magnetization 

 Broyden mixing:
  rms(total) = 0.14366E-01    rms(broyden)= 0.14363E-01
  rms(prec ) = 0.22883E-01
  weight for this iteration     100.00

 eigenvalues of (default mixing * dielectric matrix)
  average eigenvalue GAMMA=   1.0679
  2.6066  2.0745  1.4881  1.1981  0.5558  0.5558  0.4446  0.3584  0.3295

 Free energy of the ion-electron system (eV)
  ---------------------------------------------------
  alpha Z        PSCENC =      1658.98012577
  Ewald energy   TEWEN  =    -21683.58437796
  -Hartree energ DENC   =     -6768.69648550
  -exchange      EXHF   =         0.00000000
  -V(xc)+E(xc)   XCENC  =      -138.63233366
  PAW double counting   =     36014.70044833   -34423.60577399
  entropy T*S    EENTRO =         0.01214160
  eigenvalues    EBANDS =     -2819.07709933
  atomic energy  EATOM  =     27792.92836812
  Solvation  Ediel_sol  =         0.00000000
  ---------------------------------------------------
  free energy    TOTEN  =      -366.97498661 eV

  energy without entropy =     -366.98712821  energy(sigma->0) =     -366.97903381


--------------------------------------------------------------------------------------------------------




----------------------------------------- Iteration    1(  15)  ---------------------------------------


    POTLOK:  cpu time    0.0290: real time    0.0292
    SETDIJ:  cpu time    0.0058: real time    0.0058
    EDDIAG:  cpu time    0.0827: real time    0.0832
  RMM-DIIS:  cpu time    0.9315: real time    0.9381
    ORTHCH:  cpu time    0.0130: real time    0.0131
       DOS:  cpu time    0.0011: real time    0.0011
    CHARGE:  cpu time    0.0309: real time    0.0310
    MIXING:  cpu time    0.0016: real time    0.0016
    --------------------------------------------
      LOOP:  cpu time    1.0962: real time    1.1353

 eigenvalue-minimisations  :  8183
 total energy-change (2. order) :-0.2202918E-04  (-0.2405181E-03)
 number of electron     309.0000005 magnetization 
 augmentation part       19.5097402 magnetization 

 Broyden mixing:
  rms(total) = 0.62903E-02    rms(broyden)= 0.62861E-02
  rms(prec ) = 0.13131E-01
  weight for this iteration     100.00

 eigenvalues of (default mixing * dielectric matrix)
  average eigenvalue GAMMA=   1.0408
  2.6513  2.0698  1.5486  1.2725  0.6975  0.6074  0.4437  0.4334  0.3304  0.3531

 Free energy of the ion-electron system (eV)
  ---------------------------------------------------
  alpha Z        PSCENC =      1658.98012577
  Ewald energy   TEWEN  =    -21683.58437796
  -Hartree energ DENC   =     -6769.47959307
  -exchange      EXHF   =         0.00000000
  -V(xc)+E(xc)   XCENC  =      -138.60783775
  PAW double counting   =     36034.78564303   -34443.17201858
  entropy T*S    EENTRO =         0.01206145
  eigenvalues    EBANDS =     -2818.83737963
  atomic energy  EATOM  =     27792.92836812
  Solvation  Ediel_sol  =         0.00000000
  ---------------------------------------------------
  free energy    TOTEN  =      -366.97500864 eV

  energy without entropy =     -366.98707008  energy(sigma->0) =     -366.97902912


--------------------------------------------------------------------------------------------------------




----------------------------------------- Iteration    1(  16)  ---------------------------------------


    POTLOK:  cpu time    0.0291: real time    0.0293
    SETDIJ:  cpu time    0.0074: real time    0.0074
    EDDIAG:  cpu time    0.0833: real time    0.0838
  RMM-DIIS:  cpu time    0.7785: real time    0.7829
    ORTHCH:  cpu time    0.0133: real time    0.0134
       DOS:  cpu time    0.0015: real time    0.0015
    CHARGE:  cpu time    0.0310: real time    0.0311
    MIXING:  cpu time    0.0017: real time    0.0017
    --------------------------------------------
      LOOP:  cpu time    0.9464: real time    0.9800

 eigenvalue-minimisations  :  7364
 total energy-change (2. order) :-0.6071659E-05  (-0.1061902E-03)
 number of electron     309.0000005 magnetization 
 augmentation part       19.5086886 magnetization 

 Broyden mixing:
  rms(total) = 0.34477E-02    rms(broyden)= 0.34458E-02
  rms(prec ) = 0.67714E-02
  weight for this iteration     100.00

 eigenvalues of (default mixing * dielectric matrix)
  average eigenvalue GAMMA=   1.0154
  2.6740  2.0581  1.5664  1.3856  0.8511  0.6160  0.4842  0.4842  0.3294  0.3603
  0.3603

 Free energy of the ion-electron system (eV)
  ---------------------------------------------------
  alpha Z        PSCENC =      1658.98012577
  Ewald energy   TEWEN  =    -21683.58437796
  -Hartree energ DENC   =     -6769.66678039
  -exchange      EXHF   =         0.00000000
  -V(xc)+E(xc)   XCENC  =      -138.60219777
[...]
     98       5.3900      2.00000
     99       5.4161      2.00000
    100       5.4500      2.00000
    101       5.5093      2.00000
    102       5.5456      2.00000
    103       5.5795      2.00000
    104       5.6030      2.00000
    105       5.6450      2.00000
    106       5.6844      2.00000
    107       5.8078      2.00000
    108       5.8329      2.00000
    109       5.9081      2.00000
    110       5.9480      2.00000
    111       5.9893      2.00000
    112       6.0496      2.00000
    113       6.1090      2.00000
    114       6.2748      2.00000
    115       6.3396      2.00000
    116       6.4043      2.00000
    117       6.4248      2.00000
    118       6.4408      2.00000
    119       6.4781      2.00000
    120       6.5033      2.00000
    121       6.5398      2.00000
    122       6.5732      2.00000
    123       6.5909      2.00000
    124       6.6139      2.00000
    125       6.6690      2.00000
    126       6.7020      2.00000
    127       6.7269      2.00000
    128       6.7492      2.00000
    129       6.8046      2.00000
    130       6.8362      2.00000
    131       6.8785      2.00000
    132       6.9134      2.00000
    133       6.9402      2.00000
    134       6.9814      2.00000
    135       7.0187      2.00000
    136       7.0980      2.00000
    137       7.1365      2.00000
    138       7.1690      2.00000
    139       7.2182      2.00000
    140       7.2451      2.00000
    141       7.2945      2.00001
    142       7.3301      2.00003
    143       7.3751      2.00017
    144       7.4149      2.00072
    145       7.4456      2.00191
    146       7.4880      2.00632
    147       7.5061      2.00993
    148       7.5550      2.02786
    149       7.5762      2.03959
    150       7.6085      2.05904
    151       7.6698      2.05884
    152       7.6794      2.04680
    153       7.7122      1.96113
    154       7.7464      1.77984
    155       7.7702      1.59326
    156       7.8046      1.24927
    157       7.8196      1.08377
    158       7.8527      0.71523
    159       7.8953      0.31105
    160       7.9403      0.04471
    161       8.0008     -0.06944
    162       8.0300     -0.06666
    163       8.0622     -0.04911
    164       8.1051     -0.02490
    165       8.1420     -0.01142
    166       8.1789     -0.00449
    167       8.2163     -0.00150
    168       8.2397     -0.00070
    169       8.3131     -0.00005
    170       8.3255     -0.00003
    171       8.3869     -0.00000
    172       8.4176     -0.00000
    173       8.4704     -0.00000
    174       8.4909     -0.00000
    175       8.6652     -0.00000
    176       8.7226     -0.00000
    177       8.9164     -0.00000
    178       8.9983     -0.00000
    179       9.1219     -0.00000
    180       9.6902     -0.00000
    181       9.7585     -0.00000
    182       9.7783     -0.00000
    183       9.8761     -0.00000
    184       9.9348     -0.00000
    185       9.9658     -0.00000
    186      10.0119     -0.00000
    187      10.1327     -0.00000
    188      10.2079     -0.00000


--------------------------------------------------------------------------------------------------------


 soft charge-density along one line, spin component           1
         0         1         2         3         4         5         6         7         8         9
 total charge-density along one line
 
 pseudopotential strength for first ion, spin component:           1
 13.436 -26.180   0.001  -0.000  -0.001  -0.001  -0.001  -0.003
-26.180  13.909   0.001   0.002   0.005   0.001  -0.000  -0.001
  0.001   0.001  -6.407   0.003  -0.002   5.111  -0.004   0.003
 -0.000   0.002   0.003  -6.409   0.001  -0.004   5.113   0.001
 -0.001   0.005  -0.002   0.001  -6.411   0.003   0.001   5.114
 -0.001   0.001   5.111  -0.004   0.003   8.352   0.002  -0.002
 -0.001  -0.000  -0.004   5.113   0.001   0.002   8.350  -0.000
 -0.003  -0.001   0.003   0.001   5.114  -0.002  -0.000   8.350
 -0.003  -0.002   0.001   0.000   0.001  -0.002  -0.000  -0.001
  0.003   0.002   0.000   0.000   0.000  -0.001  -0.000  -0.000
 -0.000  -0.000  -0.001   0.000  -0.000   0.000  -0.000   0.001
  0.000  -0.001   0.000   0.002   0.001  -0.000  -0.002  -0.000
 -0.002  -0.001  -0.000   0.000   0.001   0.000   0.000  -0.001
 -0.003  -0.002   0.002   0.000   0.001  -0.002  -0.000  -0.001
  0.004   0.003   0.000   0.001   0.000  -0.001  -0.001  -0.000
 -0.000  -0.001  -0.001   0.000  -0.000   0.000  -0.000   0.001
  0.000  -0.001   0.000   0.002   0.001  -0.000  -0.002  -0.001
 -0.003  -0.001  -0.000   0.000   0.001   0.000  -0.000  -0.002
 total augmentation occupancy for first ion, spin component:           1
  1.999  -0.025  -0.000  -0.000  -0.000  -0.001   0.000   0.000   0.004   0.004  -0.005  -0.005   0.005  -0.002  -0.005   0.004
 -0.025   1.418  -0.007  -0.000  -0.004   0.004   0.004   0.009   0.015   0.042  -0.035  -0.024   0.029  -0.006  -0.029   0.021
 -0.000  -0.007   2.003   0.001  -0.001  -0.027  -0.002   0.002  -0.000   0.001   0.001  -0.004   0.004  -0.002  -0.004  -0.001
 -0.000  -0.000   0.001   2.003   0.000  -0.002  -0.025  -0.001  -0.001  -0.025   0.011   0.010   0.004   0.001   0.014  -0.008
 -0.000  -0.004  -0.001   0.000   2.002   0.002  -0.001  -0.023  -0.020  -0.001  -0.008   0.015   0.016   0.013   0.001   0.007
 -0.001   0.004  -0.027  -0.002   0.002   0.043   0.003  -0.002   0.011   0.017   0.009   0.005  -0.004  -0.006  -0.009  -0.005
  0.000   0.004  -0.002  -0.025  -0.001   0.003   0.040   0.001  -0.001   0.030  -0.004  -0.012  -0.011   0.001  -0.016   0.003
  0.000   0.009   0.002  -0.001  -0.023  -0.002   0.001   0.038   0.009  -0.001  -0.007  -0.014   0.004  -0.005   0.000   0.003
  0.004   0.015  -0.000  -0.001  -0.020   0.011  -0.001   0.009   4.258   0.065  -0.200   0.079  -0.018  -2.218  -0.038   0.092
  0.004   0.042   0.001  -0.025  -0.001   0.017   0.030  -0.001   0.065   4.085   0.039  -0.232  -0.099  -0.038  -2.117  -0.020
 -0.005  -0.035   0.001   0.011  -0.008   0.009  -0.004  -0.007  -0.200   0.039   4.084  -0.072  -0.022   0.092  -0.020  -2.188
 -0.005  -0.024  -0.004   0.010   0.015   0.005  -0.012  -0.014   0.079  -0.232  -0.072   4.162  -0.062  -0.047   0.118   0.031
  0.005   0.029   0.004   0.004   0.016  -0.004  -0.011   0.004  -0.018  -0.099  -0.022  -0.062   4.168   0.008   0.061  -0.002
 -0.002  -0.006  -0.002   0.001   0.013  -0.006   0.001  -0.005  -2.218  -0.038   0.092  -0.047   0.008   1.170   0.021  -0.042
 -0.005  -0.029  -0.004   0.014   0.001  -0.009  -0.016   0.000  -0.038  -2.117  -0.020   0.118   0.061   0.021   1.112   0.011
  0.004   0.021  -0.001  -0.008   0.007  -0.005   0.003   0.003   0.092  -0.020  -2.188   0.031  -0.002  -0.042   0.011   1.182
  0.004   0.005   0.002  -0.006  -0.009  -0.002   0.005   0.006  -0.048   0.118   0.031  -2.171   0.026   0.028  -0.060  -0.012
 -0.004  -0.013  -0.002  -0.001  -0.013   0.001   0.005  -0.001   0.009   0.061  -0.003   0.027  -2.240  -0.004  -0.037   0.008


------------------------ aborting loop because EDIFF is reached ----------------------------------------


    CHARGE:  cpu time    0.0532: real time    0.0535
    FORLOC:  cpu time    0.0129: real time    0.0130
    FORNL :  cpu time    0.3614: real time    0.3632
    STRESS:  cpu time    0.9759: real time    0.9804
    FORCOR:  cpu time    0.0424: real time    0.0426
    FORHAR:  cpu time    0.0181: real time    0.0181
    MIXING:  cpu time    0.0013: real time    0.0013
    OFIELD:  cpu time    0.0000: real time    0.0000

  FORCE on cell =-STRESS in cart. coord.  units (eV):
  Direction    XX          YY          ZZ          XY          YZ          ZX
  --------------------------------------------------------------------------------------
  Alpha Z  1659.12756  1659.12756  1659.12756
  Ewald   -6791.85797 -7285.47174 -7614.91303  -344.65761  -230.95153  -372.47162
  Hartree  2665.78829  2202.09105  1893.76807  -307.62276  -178.79436  -334.28380
  E(xc)   -1358.25399 -1358.38929 -1358.37018    -0.26726    -0.55275     0.11654
  Local   -1393.55062  -439.11472   198.80241   652.19824   410.16265   704.39597
  n-local  -318.51230  -320.14455  -317.48493    -1.78205     2.26620    -2.64539
  augment   245.05337   245.30536   244.92372     0.25125    -0.42804     0.65377
  Kinetic  5292.10404  5296.41075  5294.02851     1.89360    -1.66345     4.24562
  Fock        0.00000     0.00000     0.00000     0.00000     0.00000     0.00000
  -------------------------------------------------------------------------------------
  Total      -0.10162    -0.18559    -0.11789     0.01340     0.03871     0.01108
  in kB      -0.22824    -0.41685    -0.26479     0.03009     0.08695     0.02489
  external pressure =       -0.30 kB  Pullay stress =        0.00 kB


 VOLUME and BASIS-vectors are now :
 -----------------------------------------------------------------------------
  energy-cutoff  :      300.00
  volume of cell :      713.33
      direct lattice vectors                 reciprocal lattice vectors
     6.876188354 -0.018546283 -0.013539322     0.145430988  0.000376737  0.000286256
    -0.026404625 10.184274096  0.011384399     0.000264629  0.098191407 -0.000107101
    -0.020079092  0.011164784 10.186387783     0.000193005 -0.000109239  0.098170727

  length of vectors
     6.876226695 10.184314689 10.186413691     0.145431757  0.098191822  0.098170978


 FORCES acting on ions
    electron-ion (+dipol)            ewald-force                    non-local-force                 convergence-correction
 -----------------------------------------------------------------------------------------------
   0.855E+02 -.265E+03 0.185E+03   -.850E+02 0.266E+03 -.184E+03   -.438E+00 -.465E+00 -.983E-01   0.308E-03 0.496E-02 -.631E-02
   -.647E+02 0.115E+02 0.197E+02   0.646E+02 -.110E+02 -.196E+02   0.304E-01 -.522E+00 -.159E+00   0.384E-02 0.218E-01 -.776E-02
   -.255E+02 0.142E+03 0.912E+02   0.252E+02 -.142E+03 -.913E+02   0.282E+00 -.365E+00 0.985E-01   0.807E-03 -.107E-01 -.192E-01
   -.787E+02 -.326E+03 0.135E+03   0.784E+02 0.327E+03 -.135E+03   0.260E+00 -.621E+00 -.335E+00   0.164E-03 0.183E-02 -.427E-02
   -.851E+02 0.768E+02 -.197E+03   0.846E+02 -.767E+02 0.197E+03   0.426E+00 -.171E+00 -.529E+00   0.447E-02 -.315E-02 -.116E-01
   0.315E+02 0.177E+03 0.104E+03   -.312E+02 -.177E+03 -.104E+03   -.241E+00 0.907E-01 0.405E+00   -.957E-03 -.954E-02 -.208E-01
   -.176E+02 -.113E+03 0.174E+01   0.169E+02 0.112E+03 -.225E+01   0.699E+00 0.955E+00 0.533E+00   -.469E-02 0.121E-01 -.269E-01
   0.638E+02 -.197E+02 0.465E+02   -.633E+02 0.189E+02 -.461E+02   -.477E+00 0.824E+00 -.397E+00   -.595E-03 -.187E-01 0.532E-03
   -.118E+01 -.487E+01 -.156E+02   0.152E+01 0.455E+01 0.162E+02   -.341E+00 0.320E+00 -.593E+00   0.914E-04 0.542E-02 0.365E-02
   0.187E+02 -.364E+01 -.283E+01   -.185E+02 0.405E+01 0.310E+01   -.154E+00 -.424E+00 -.263E+00   -.903E-03 0.627E-02 -.260E-02
   0.318E+02 0.801E+02 0.693E+01   -.315E+02 -.799E+02 -.729E+01   -.228E+00 -.152E+00 0.364E+00   0.481E-04 -.172E-02 0.260E-02
   -.334E+02 0.504E+02 0.412E+02   0.327E+02 -.509E+02 -.412E+02   0.765E+00 0.513E+00 0.403E-01   0.105E-02 -.218E-02 -.188E-02
   -.383E+02 -.569E+02 0.349E+02   0.383E+02 0.566E+02 -.353E+02   -.229E-01 0.269E+00 0.328E+00   -.797E-03 0.183E-02 0.491E-02
   -.172E+02 -.321E+02 -.332E+02   0.175E+02 0.326E+02 0.324E+02   -.245E+00 -.439E+00 0.774E+00   -.436E-03 0.345E-03 0.477E-03
   -.154E+02 -.304E+02 -.403E+02   0.154E+02 0.308E+02 0.411E+02   0.189E-02 -.426E+00 -.742E+00   -.707E-03 -.708E-02 0.410E-02
   0.293E+02 -.721E+01 0.104E+03   -.292E+02 0.786E+01 -.103E+03   -.106E+00 -.643E+00 -.173E+00   0.468E-03 -.935E-03 -.201E-02
   0.246E+02 -.135E+02 -.708E+02   -.240E+02 0.141E+02 0.704E+02   -.628E+00 -.584E+00 0.416E+00   -.797E-03 0.636E-02 0.487E-02
   -.204E+02 0.262E+02 -.966E+02   0.198E+02 -.257E+02 0.964E+02   0.599E+00 -.528E+00 0.283E+00   0.981E-03 0.655E-02 0.536E-02
   0.415E+02 0.187E+02 -.882E+02   -.412E+02 -.184E+02 0.887E+02   -.257E+00 -.291E+00 -.480E+00   -.155E-02 -.398E-04 -.531E-02
   -.560E+02 0.447E+01 0.563E+01   0.555E+02 -.459E+01 -.561E+01   0.529E+00 0.121E+00 -.275E-01   0.161E-02 -.217E-02 0.958E-02
   -.257E+02 -.447E+01 0.102E+03   0.253E+02 0.514E+01 -.103E+03   0.349E+00 -.666E+00 0.198E+00   -.618E-03 -.174E-02 -.201E-02
   0.160E+02 0.520E+02 0.741E+02   -.156E+02 -.518E+02 -.746E+02   -.352E+00 -.180E+00 0.504E+00   0.142E-02 0.911E-03 -.373E-02
   0.657E+02 0.474E+01 -.903E+02   -.648E+02 -.494E+01 0.898E+02   -.837E+00 0.207E+00 0.456E+00   -.957E-03 -.460E-02 0.273E-02
   0.354E+02 0.723E+02 0.637E+02   -.345E+02 -.730E+02 -.635E+02   -.852E+00 0.742E+00 -.139E+00   -.126E-02 -.262E-02 -.251E-02
   0.181E+02 -.132E+01 -.460E+02   -.183E+02 0.129E+01 0.451E+02   0.181E+00 0.390E-01 0.892E+00   0.392E-03 -.941E-04 0.740E-03
   0.183E+02 -.292E+02 -.261E+02   -.183E+02 0.293E+02 0.266E+02   -.297E-01 -.425E-01 -.466E+00   0.108E-02 -.981E-02 0.459E-02
   0.145E+02 -.100E+03 -.147E+03   -.137E+02 0.991E+02 0.147E+03   -.784E+00 0.123E+01 0.198E+00   0.420E-02 0.972E-02 -.238E-01
   0.326E+02 -.482E+02 -.117E+03   -.332E+02 0.478E+02 0.118E+03   0.603E+00 0.325E+00 -.103E+01   0.182E-02 0.208E-01 0.136E-01
   0.135E+03 0.457E+02 0.115E+03   -.134E+03 -.461E+02 -.115E+03   -.933E+00 0.378E+00 0.204E+00   -.549E-02 -.637E-02 0.251E-01
   0.167E+03 0.125E+03 -.158E+03   -.167E+03 -.125E+03 0.159E+03   -.324E+00 -.101E+00 -.978E+00   0.170E-02 0.824E-02 0.446E-02
   -.163E+03 0.993E+02 -.189E+03   0.162E+03 -.995E+02 0.191E+03   0.200E+00 0.192E+00 -.136E+01   -.928E-04 0.575E-02 0.630E-02
   0.128E+03 -.121E+03 0.243E+03   -.128E+03 0.120E+03 -.244E+03   0.209E+00 0.103E+01 0.535E+00   0.117E-02 0.554E-02 0.214E-01
   -.294E+02 0.150E+03 0.152E+03   0.288E+02 -.149E+03 -.153E+03   0.674E+00 -.662E+00 0.409E+00   -.249E-02 0.717E-02 -.126E-01
   -.918E+02 0.191E+03 -.409E+02   0.916E+02 -.191E+03 0.404E+02   0.239E+00 -.590E+00 0.448E+00   0.111E-02 -.539E-02 0.148E-01
   -.600E+02 -.799E+02 0.124E+03   0.595E+02 0.788E+02 -.124E+03   0.541E+00 0.110E+01 0.201E+00   0.366E-02 -.186E-01 -.351E-02
   -.135E+03 -.721E+02 -.290E+03   0.134E+03 0.717E+02 0.290E+03   0.120E+01 0.467E+00 0.561E-01   0.373E-02 -.119E-01 0.827E-02
 -----------------------------------------------------------------------------------------------
   -.556E+00 -.931E+00 0.446E+00   0.853E-13 0.000E+00 0.000E+00   0.546E+00 0.922E+00 -.428E+00   0.118E-01 0.833E-02 -.187E-01
 
 
 POSITION                                       TOTAL-FORCE (eV/Angst)
 -----------------------------------------------------------------------------------
      5.24629      8.48178      8.54091        -0.002672      0.004084      0.004852
      5.19772      8.49707      1.71731        -0.003126      0.002780      0.002015
      3.35945      3.44203      0.00442        -0.004391      0.002863     -0.001551
      1.53515      8.58478      8.58691         0.000407      0.004555      0.004374
      5.09910      5.21250      1.74342         0.001401      0.001495     -0.001070
     -0.00908      3.37953     10.16699        -0.002090      0.000526      0.000245
      3.32675      6.70956     10.04391        -0.000510     -0.001243     -0.002002
      1.77316      1.59516      1.79290         0.001725     -0.002821     -0.001909
      0.05037      6.72866      3.61988         0.001707     -0.003437      0.002732
      1.67715      8.49186      1.73869         0.001511     -0.000016      0.000355
      0.03424      3.35162      6.71189         0.004394      0.002463     -0.000058
      4.95774      1.70770      8.39648         0.004116     -0.001176      0.003416
      3.36675      6.84127      6.78395         0.001069     -0.004316     -0.001658
      0.00380      0.10660      6.64048         0.000956     -0.004015     -0.000788
      6.83561      3.40001      3.48564         0.000650      0.002280     -0.003518
      3.49918      0.03290      0.01712        -0.002096      0.003745      0.000155
      1.76879      8.57644      4.99669         0.007355      0.000426      0.002018
      5.06927      8.51006      5.04231         0.000721     -0.001766      0.005697
      1.76034      5.17994      1.78596         0.001148      0.004205      0.000599
      5.04250      5.04920      5.19432         0.003075      0.001005      0.000662
      6.82294      0.26323      0.00463        -0.000651      0.000989      0.002036
      5.17503      5.04482      8.31440        -0.001986     -0.003563      0.001127
      1.85048      1.66757      5.01073         0.003369     -0.000529     -0.001433
      1.83371      1.56706      8.44940        -0.003560     -0.001221     -0.000489
      3.36896     10.07780      6.70490        -0.002375      0.001904     -0.005380
      3.46652      3.39929      3.42329         0.002807      0.003265     -0.002223
      0.04423      6.58791     10.14895         0.001353      0.003020     -0.007165
      3.38367      6.76275      3.53204        -0.005185      0.001271      0.003373
      1.80951      5.01278      5.10510         0.002783     -0.001387      0.001023
      3.50751      0.00805      3.43407        -0.001254     -0.003883      0.002654
      6.84278     -0.00534      3.50629        -0.000072     -0.004218      0.001875
     -0.02854      6.72917      6.70880         0.001058     -0.004319     -0.003640
      1.56881      5.13574      8.41767        -0.002961     -0.002948      0.000396
      3.32559      3.43742      6.74546        -0.002236     -0.000401     -0.007831
      5.09187      1.60919      1.72520        -0.005889     -0.001224      0.003091
      5.01584      1.66734      5.07261        -0.000552      0.001607     -0.001979
 -----------------------------------------------------------------------------------
    total drift:                                0.001063     -0.000528     -0.000548


--------------------------------------------------------------------------------------------------------



  FREE ENERGIE OF THE ION-ELECTRON SYSTEM (eV)
  ---------------------------------------------------
  free  energy   TOTEN  =      -366.98347709 eV

  energy  without entropy=     -366.99718378  energy(sigma->0) =     -366.98804598
 
 d Force = 0.2478916E-04[ 0.219E-04, 0.276E-04]  d Energy = 0.9822033E-06 0.238E-04
 d Force = 0.4122451E-01[ 0.411E-01, 0.413E-01]  d Ewald  =-0.1921180E+01 0.196E+01


--------------------------------------------------------------------------------------------------------


    POTLOK:  cpu time    0.1304: real time    0.1309


--------------------------------------------------------------------------------------------------------




--------------------------------------------------------------------------------------------------------


  
 reached required accuracy - stopping structural energy minimisation
     LOOP+:  cpu time    6.1081: real time    6.5995
    4ORBIT:  cpu time    0.0000: real time    0.0000

 total amount of memory used by VASP on root node    68407. kBytes
========================================================================

   base      :      30000. kBytes
   nonlr-proj:      10738. kBytes
   fftplans  :       2814. kBytes
   grid      :       5360. kBytes
   one-center:        124. kBytes
   wavefun   :      19371. kBytes
 
  
  
 General timing and accounting informations for this job:
 ========================================================
  
                  Total CPU time used (sec):      164.231
                            User time (sec):      163.526
                          System time (sec):        0.706
                         Elapsed time (sec):      181.096
  
                   Maximum memory used (kb):      277044.
                   Average memory used (kb):           0.
  
                          Minor page faults:       101649
                          Major page faults:           34
                 Voluntary context switches:         7197
