<?xml version="1.0" encoding="ISO-8859-1"?>
<modeling>
 <generator>
  <i name="program" type="string">vasp </i>
  <i name="version" type="string">5.4.1  </i>
  <i name="subversion" type="string">05Feb16 (build Jan 29 2020 16:04:39) complex                          parallel </i>
  <i name="platform" type="string">IFC91_ompi </i>
  <i name="date" type="string">2020 06 15 </i>
  <i name="time" type="string">11:29:14 </i>
 </generator>
 <incar>
  <i type="string" name="SYSTEM"> automatically generated by mexm</i>
  <i type="int" name="ISTART">     0</i>
  <i type="string" name="PREC">accurate               ! avoid wrap aro</i>
  <i type="string" name="ALGO"> Fast                   ! blocked Davids</i>
  <i type="int" name="ISPIN">     1</i>
  <i type="int" name="ICHARG">     2</i>
  <i type="int" name="NELM">    70</i>
  <i type="int" name="IBRION">     2</i>
  <i name="EDIFF">      0.00001000</i>
  <i name="EDIFFG">     -0.01000000</i>
  <i type="int" name="NSW">   300</i>
  <i type="int" name="ISIF">     3</i>
  <i type="int" name="ISYM">     1</i>
  <i name="ENCUT">    300.00000000</i>
  <i name="POTIM">      0.15000000</i>
  <i type="string" name="LREAL"> Auto                  ! unpublished met</i>
  <i type="int" name="ISMEAR">     1</i>
  <i name="SIGMA">      0.15000000</i>
  <i type="logical" name="LWAVE"> F  </i>
  <i type="logical" name="LCHARG"> F  </i>
  <i type="logical" name="LVTOT"> F  </i>
  <v type="int" name="KPOINT_BSE">    -1     0     0     0</v>
  <i type="int" name="NELM">    70</i>
 </incar>
 <kpoints>
  <generation param="Gamma">
   <v type="int" name="divisions">       3        3        3 </v>
   <v name="usershift">      0.00000000       0.00000000       0.00000000 </v>
   <v name="genvec1">      0.33333333       0.00000000       0.00000000 </v>
   <v name="genvec2">      0.00000000       0.33333333       0.00000000 </v>
   <v name="genvec3">     -0.00000000       0.00000000       0.33333333 </v>
   <v name="shift">      0.00000000       0.00000000       0.00000000 </v>
  </generation>
  <varray name="kpointlist" >
   <v>       0.00000000       0.00000000       0.00000000 </v>
   <v>       0.33333333      -0.00000000      -0.00000000 </v>
   <v>       0.00000000       0.33333333      -0.00000000 </v>
   <v>       0.33333333       0.33333333      -0.00000000 </v>
   <v>      -0.33333333       0.33333333       0.00000000 </v>
   <v>       0.00000000       0.00000000       0.33333333 </v>
   <v>       0.33333333       0.00000000       0.33333333 </v>
   <v>      -0.33333333       0.00000000       0.33333333 </v>
   <v>       0.00000000       0.33333333       0.33333333 </v>
   <v>       0.33333333       0.33333333       0.33333333 </v>
   <v>      -0.33333333       0.33333333       0.33333333 </v>
   <v>       0.00000000      -0.33333333       0.33333333 </v>
   <v>       0.33333333      -0.33333333       0.33333333 </v>
   <v>      -0.33333333      -0.33333333       0.33333333 </v>
  </varray>
  <varray name="weights" >
   <v>       0.03703704 </v>
   <v>       0.07407407 </v>
   <v>       0.07407407 </v>
   <v>       0.07407407 </v>
   <v>       0.07407407 </v>
   <v>       0.07407407 </v>
   <v>       0.07407407 </v>
   <v>       0.07407407 </v>
   <v>       0.07407407 </v>
   <v>       0.07407407 </v>
   <v>       0.07407407 </v>
   <v>       0.07407407 </v>
   <v>       0.07407407 </v>
   <v>       0.07407407 </v>
  </varray>
 </kpoints>
 <parameters>
  <separator name="general" >
   <i type="string" name="SYSTEM">automatically generated by mexm</i>
   <i type="logical" name="LCOMPAT"> F  </i>
  </separator>
  <separator name="electronic" >
   <i type="string" name="PREC">accura</i>
   <i name="ENMAX">    300.00000000</i>
   <i name="ENAUG">    461.25700000</i>
   <i name="EDIFF">      0.00001000</i>
   <i type="int" name="IALGO">    68</i>
   <i type="int" name="IWAVPR">    11</i>
   <i type="int" name="NBANDS">   180</i>
   <i name="NELECT">    296.00000000</i>
   <i type="int" name="TURBO">     0</i>
   <i type="int" name="IRESTART">     0</i>
   <i type="int" name="NREBOOT">     0</i>
   <i type="int" name="NMIN">     0</i>
   <i name="EREF">      0.00000000</i>
   <separator name="electronic smearing" >
    <i type="int" name="ISMEAR">     1</i>
    <i name="SIGMA">      0.15000000</i>
    <i name="KSPACING">      0.50000000</i>
    <i type="logical" name="KGAMMA"> T  </i>
   </separator>
   <separator name="electronic projectors" >
    <i type="logical" name="LREAL"> T  </i>
    <v name="ROPT">     -0.00025000     -0.00025000     -0.00025000     -0.00025000</v>
    <i type="int" name="LMAXPAW">  -100</i>
    <i type="int" name="LMAXMIX">     2</i>
    <i type="logical" name="NLSPLINE"> F  </i>
   </separator>
   <separator name="electronic startup" >
    <i type="int" name="ISTART">     0</i>
    <i type="int" name="ICHARG">     2</i>
    <i type="int" name="INIWAV">     1</i>
   </separator>
   <separator name="electronic spin" >
    <i type="int" name="ISPIN">     1</i>
    <i type="logical" name="LNONCOLLINEAR"> F  </i>
    <v name="MAGMOM">      1.00000000      1.00000000      1.00000000      1.00000000      1.00000000      1.00000000      1.00000000      1.00000000      1.00000000      1.00000000      1.00000000      1.00000000      1.00000000      1.00000000      1.00000000      1.00000000      1.00000000      1.00000000      1.00000000      1.00000000
      1.00000000      1.00000000      1.00000000      1.00000000      1.00000000      1.00000000      1.00000000      1.00000000      1.00000000      1.00000000      1.00000000      1.00000000      1.00000000      1.00000000      1.00000000      1.00000000</v>
    <i name="NUPDOWN">     -1.00000000</i>
    <i type="logical" name="LSORBIT"> F  </i>
    <v name="SAXIS">      0.00000000      0.00000000      1.00000000</v>
    <i type="logical" name="LSPIRAL"> F  </i>
    <v name="QSPIRAL">      0.00000000      0.00000000      0.00000000</v>
    <i type="logical" name="LZEROZ"> F  </i>
   </separator>
   <separator name="electronic exchange-correlation" >
    <i type="logical" name="LASPH"> F  </i>
    <i type="logical" name="LMETAGGA"> F  </i>
   </separator>
   <separator name="electronic convergence" >
    <i type="int" name="NELM">    70</i>
    <i type="int" name="NELMDL">    -5</i>
    <i type="int" name="NELMIN">     2</i>
    <i name="ENINI">    300.00000000</i>
    <separator name="electronic convergence detail" >
     <i type="logical" name="LDIAG"> T  </i>
     <i type="logical" name="LSUBROT"> F  </i>
     <i name="WEIMIN">      0.00100000</i>
     <i name="EBREAK">      0.00000001</i>
     <i name="DEPER">      0.30000000</i>
     <i type="int" name="NRMM">     4</i>
     <i name="TIME">      0.40000000</i>
    </separator>
   </separator>
   <separator name="electronic mixer" >
    <i name="AMIX">      0.40000000</i>
    <i name="BMIX">      1.00000000</i>
    <i name="AMIN">      0.10000000</i>
    <i name="AMIX_MAG">      1.60000000</i>
    <i name="BMIX_MAG">      1.00000000</i>
    <separator name="electronic mixer details" >
     <i type="int" name="IMIX">     4</i>
     <i type="logical" name="MIXFIRST"> F  </i>
     <i type="int" name="MAXMIX">   -45</i>
     <i name="WC">    100.00000000</i>
     <i type="int" name="INIMIX">     1</i>
     <i type="int" name="MIXPRE">     1</i>
     <i type="int" name="MREMOVE">     5</i>
    </separator>
   </separator>
   <separator name="electronic dipolcorrection" >
    <i type="logical" name="LDIPOL"> F  </i>
    <i type="logical" name="LMONO"> F  </i>
    <i type="int" name="IDIPOL">     0</i>
    <i name="EPSILON">      1.00000000</i>
    <v name="DIPOL">   -100.00000000   -100.00000000   -100.00000000</v>
    <i name="EFIELD">      0.00000000</i>
   </separator>
  </separator>
  <separator name="grids" >
   <i type="int" name="NGX">    40</i>
   <i type="int" name="NGY">    60</i>
   <i type="int" name="NGZ">    60</i>
   <i type="int" name="NGXF">    80</i>
   <i type="int" name="NGYF">   120</i>
   <i type="int" name="NGZF">   120</i>
   <i type="logical" name="ADDGRID"> F  </i>
  </separator>
  <separator name="ionic" >
   <i type="int" name="NSW">   300</i>
   <i type="int" name="IBRION">     2</i>
   <i type="int" name="ISIF">     3</i>
   <i name="PSTRESS">      0.00000000</i>
   <i name="EDIFFG">     -0.01000000</i>
   <i type="int" name="NFREE">     1</i>
   <i name="POTIM">      0.15000000</i>
   <i name="SMASS">     -3.00000000</i>
   <i name="SCALEE">      1.00000000</i>
  </separator>
  <separator name="ionic md" >
   <i name="TEBEG">      0.00010000</i>
   <i name="TEEND">      0.00010000</i>
   <i type="int" name="NBLOCK">     1</i>
   <i type="int" name="KBLOCK">   300</i>
   <i type="int" name="NPACO">   256</i>
   <i name="APACO">     16.00000000</i>
  </separator>
  <separator name="symmetry" >
   <i type="int" name="ISYM">     1</i>
   <i name="SYMPREC">      0.00001000</i>
  </separator>
  <separator name="dos" >
   <i type="logical" name="LORBIT"> F  </i>
   <v name="RWIGS">     -1.00000000     -1.00000000     -1.00000000     -1.00000000</v>
   <i type="int" name="NEDOS">   301</i>
   <i name="EMIN">     10.00000000</i>
   <i name="EMAX">    -10.00000000</i>
   <i name="EFERMI">      0.00000000</i>
  </separator>
  <separator name="writing" >
   <i type="int" name="NWRITE">     2</i>
   <i type="logical" name="LWAVE"> F  </i>
   <i type="logical" name="LCHARG"> F  </i>
   <i type="logical" name="LPARD"> F  </i>
   <i type="logical" name="LVTOT"> F  </i>
   <i type="logical" name="LVHAR"> F  </i>
   <i type="logical" name="LELF"> F  </i>
   <i type="logical" name="LOPTICS"> F  </i>
   <v name="STM">      0.00000000      0.00000000      0.00000000      0.00000000      0.00000000      0.00000000      0.00000000</v>
  </separator>
  <separator name="performance" >
   <i type="int" name="NPAR">     4</i>
   <i type="int" name="NSIM">     4</i>
   <i type="int" name="NBLK">    -1</i>
   <i type="logical" name="LPLANE"> T  </i>
   <i type="logical" name="LSCALAPACK"> T  </i>
   <i type="logical" name="LSCAAWARE"> F  </i>
   <i type="logical" name="LSCALU"> F  </i>
   <i type="logical" name="LASYNC"> F  </i>
   <i type="logical" name="LORBITALREAL"> F  </i>
  </separator>
  <separator name="miscellaneous" >
   <i type="int" name="IDIOT">     3</i>
   <i type="logical" name="LMUSIC"> F  </i>
   <v name="POMASS">     91.22400000    180.94800000     92.91000000    178.49000000</v>
   <v name="DARWINR">      0.00000000      0.00000000      0.00000000      0.00000000</v>
   <v name="DARWINV">      1.00000000      1.00000000      1.00000000      1.00000000</v>
   <i type="logical" name="LCORR"> T  </i>
  </separator>
  <i type="logical" name="GGA_COMPAT"> T  </i>
  <i type="logical" name="LBERRY"> F  </i>
  <i type="int" name="ICORELEVEL">     0</i>
  <i type="logical" name="LDAU"> F  </i>
  <i type="int" name="I_CONSTRAINED_M">     0</i>
  <separator name="electronic exchange-correlation" >
   <i type="string" name="GGA">--</i>
   <i type="int" name="VOSKOWN">     0</i>
   <i type="logical" name="LHFCALC"> F  </i>
   <i type="string" name="PRECFOCK"></i>
   <i type="logical" name="LSYMGRAD"> F  </i>
   <i type="logical" name="LHFONE"> F  </i>
   <i type="logical" name="LRHFCALC"> F  </i>
   <i type="logical" name="LTHOMAS"> F  </i>
   <i type="logical" name="LMODELHF"> F  </i>
   <i name="ENCUT4O">     -1.00000000</i>
   <i type="int" name="EXXOEP">     0</i>
   <i type="int" name="FOURORBIT">     0</i>
   <i name="AEXX">      0.00000000</i>
   <i name="HFALPHA">      0.00000000</i>
   <i name="MCALPHA">      0.00000000</i>
   <i name="ALDAX">      1.00000000</i>
   <i name="AGGAX">      1.00000000</i>
   <i name="ALDAC">      1.00000000</i>
   <i name="AGGAC">      1.00000000</i>
   <i type="int" name="NKREDX">     1</i>
   <i type="int" name="NKREDY">     1</i>
   <i type="int" name="NKREDZ">     1</i>
   <i type="logical" name="SHIFTRED"> F  </i>
   <i type="logical" name="ODDONLY"> F  </i>
   <i type="logical" name="EVENONLY"> F  </i>
   <i type="int" name="LMAXFOCK">     0</i>
   <i type="int" name="NMAXFOCKAE">     0</i>
   <i type="logical" name="LFOCKAEDFT"> F  </i>
   <i name="HFSCREEN">      0.00000000</i>
   <i name="HFSCREENC">      0.00000000</i>
   <i type="int" name="NBANDSGWLOW">     0</i>
  </separator>
  <separator name="vdW DFT" >
   <i type="logical" name="LUSE_VDW"> F  </i>
   <i name="Zab_VDW">     -0.84910000</i>
   <i name="PARAM1">      0.12340000</i>
   <i name="PARAM2">      1.00000000</i>
   <i name="PARAM3">      0.00000000</i>
  </separator>
  <separator name="model GW" >
   <i type="int" name="MODEL_GW">     0</i>
   <i name="MODEL_EPS0">     11.57792177</i>
   <i name="MODEL_ALPHA">      1.00000000</i>
  </separator>
  <separator name="linear response parameters" >
   <i type="logical" name="LEPSILON"> F  </i>
   <i type="logical" name="LRPA"> F  </i>
   <i type="logical" name="LNABLA"> F  </i>
   <i type="logical" name="LVEL"> F  </i>
   <i type="int" name="KINTER">     0</i>
   <i name="CSHIFT">      0.10000000</i>
   <i name="OMEGAMAX">     -1.00000000</i>
   <i name="DEG_THRESHOLD">      0.00200000</i>
  </separator>
  <separator name="orbital magnetization" >
   <i type="logical" name="NUCIND"> F  </i>
   <v name="MAGPOS">      0.00000000      0.00000000      0.00000000</v>
   <i type="logical" name="LNICSALL"> T  </i>
   <i type="logical" name="ORBITALMAG"> F  </i>
   <i type="logical" name="LMAGBLOCH"> F  </i>
   <i type="logical" name="LCHIMAG"> F  </i>
   <i type="logical" name="LGAUGE"> T  </i>
   <i type="int" name="MAGATOM">     0</i>
   <v name="MAGDIPOL">      0.00000000      0.00000000      0.00000000</v>
   <v name="AVECCONST">      0.00000000      0.00000000      0.00000000</v>
  </separator>
  <separator name="response functions" >
   <i type="logical" name="LADDER"> F  </i>
   <i type="logical" name="LFXC"> F  </i>
   <i type="logical" name="LHARTREE"> T  </i>
   <i type="int" name="IBSE">     0</i>
   <v type="int" name="KPOINT">    -1     0     0     0</v>
   <i type="logical" name="LTCTE"> F  </i>
   <i type="logical" name="LTETE"> F  </i>
   <i type="logical" name="LTRIPLET"> F  </i>
   <i type="logical" name="LFXCEPS"> F  </i>
   <i type="logical" name="LFXHEG"> F  </i>
   <i type="int" name="NATURALO">     0</i>
   <i type="logical" name="L2ORDER"> F  </i>
   <i type="logical" name="LUSEW"> F  </i>
   <i name="ENCUTGW">     -2.00000000</i>
   <i name="ENCUTGWSOFT">     -2.00000000</i>
   <i name="ENCUTLF">     -1.00000000</i>
   <i type="int" name="LMAXMP2">    -1</i>
   <i name="SCISSOR">      0.00000000</i>
   <i type="int" name="NOMEGA">     0</i>
   <i type="int" name="NOMEGAR">     0</i>
   <i type="int" name="NBANDSGW">    -1</i>
   <i type="int" name="NBANDSO">    -1</i>
   <i type="int" name="NBANDSV">    -1</i>
   <i type="int" name="NELM">    70</i>
   <i type="int" name="NELMHF">     1</i>
   <i type="int" name="DIM">     3</i>
   <i type="int" name="ANTIRES">     0</i>
   <i name="OMEGAMAX">    -30.00000000</i>
   <i name="OMEGAMIN">    -30.00000000</i>
   <i name="OMEGATL">   -200.00000000</i>
   <i type="int" name="OMEGAGRID">     0</i>
   <i name="CSHIFT">     -0.10000000</i>
   <i type="logical" name="SELFENERGY"> F  </i>
   <i type="logical" name="LSPECTRAL"> F  </i>
   <i type="logical" name="LSPECTRALGW"> F  </i>
   <i type="logical" name="LSINGLES"> F  </i>
   <i type="logical" name="LFERMIGW"> F  </i>
   <i type="logical" name="ODDONLYGW"> F  </i>
   <i type="logical" name="EVENONLYGW"> F  </i>
   <i type="int" name="NKREDLFX">     1</i>
   <i type="int" name="NKREDLFY">     1</i>
   <i type="int" name="NKREDLFZ">     1</i>
   <i type="int" name="MAXMEM">  1800</i>
   <i type="int" name="TELESCOPE">     0</i>
   <i type="int" name="TAUPAR">     1</i>
   <i type="int" name="OMEGAPAR">    -1</i>
   <i name="LAMBDA">      1.00000000</i>
  </separator>
  <separator name="External order field" >
   <i name="OFIELD_KAPPA">      0.00000000</i>
   <v name="OFIELD_K">      0.00000000      0.00000000      0.00000000</v>
   <i name="OFIELD_Q6_NEAR">      0.00000000</i>
   <i name="OFIELD_Q6_FAR">      0.00000000</i>
   <i name="OFIELD_A">      0.00000000</i>
  </separator>
 </parameters>
 <atominfo>
  <atoms>      36 </atoms>
  <types>       4 </types>
  <array name="atoms" >
   <dimension dim="1">ion</dimension>
   <field type="string">element</field>
   <field type="int">atomtype</field>
   <set>
    <rc><c>Zr</c><c>   1</c></rc>
    <rc><c>Zr</c><c>   1</c></rc>
    <rc><c>Zr</c><c>   1</c></rc>
    <rc><c>Zr</c><c>   1</c></rc>
    <rc><c>Zr</c><c>   1</c></rc>
    <rc><c>Zr</c><c>   1</c></rc>
    <rc><c>Ta</c><c>   2</c></rc>
    <rc><c>Ta</c><c>   2</c></rc>
    <rc><c>Ta</c><c>   2</c></rc>
    <rc><c>Ta</c><c>   2</c></rc>
    <rc><c>Ta</c><c>   2</c></rc>
    <rc><c>Ta</c><c>   2</c></rc>
    <rc><c>Ta</c><c>   2</c></rc>
    <rc><c>Ta</c><c>   2</c></rc>
    <rc><c>Ta</c><c>   2</c></rc>
    <rc><c>Ta</c><c>   2</c></rc>
    <rc><c>Ta</c><c>   2</c></rc>
    <rc><c>Ta</c><c>   2</c></rc>
    <rc><c>Ta</c><c>   2</c></rc>
    <rc><c>Ta</c><c>   2</c></rc>
    <rc><c>Nb</c><c>   3</c></rc>
    <rc><c>Nb</c><c>   3</c></rc>
    <rc><c>Nb</c><c>   3</c></rc>
    <rc><c>Nb</c><c>   3</c></rc>
    <rc><c>Nb</c><c>   3</c></rc>
    <rc><c>Nb</c><c>   3</c></rc>
    <rc><c>Nb</c><c>   3</c></rc>
    <rc><c>Nb</c><c>   3</c></rc>
    <rc><c>Nb</c><c>   3</c></rc>
    <rc><c>Nb</c><c>   3</c></rc>
    <rc><c>Hf</c><c>   4</c></rc>
    <rc><c>Hf</c><c>   4</c></rc>
    <rc><c>Hf</c><c>   4</c></rc>
    <rc><c>Hf</c><c>   4</c></rc>
    <rc><c>Hf</c><c>   4</c></rc>
    <rc><c>Hf</c><c>   4</c></rc>
   </set>
  </array>
  <array name="atomtypes" >
   <dimension dim="1">type</dimension>
   <field type="int">atomspertype</field>
   <field type="string">element</field>
   <field>mass</field>
   <field>valence</field>
   <field type="string">pseudopotential</field>
   <set>
    <rc><c>   6</c><c>Zr</c><c>     91.22400000</c><c>     12.00000000</c><c>  PAW_PBE Zr_sv 04Jan2005               </c></rc>
    <rc><c>  14</c><c>Ta</c><c>    180.94800000</c><c>      5.00000000</c><c>  PAW_PBE Ta 17Jan2003                  </c></rc>
    <rc><c>  10</c><c>Nb</c><c>     92.91000000</c><c>     13.00000000</c><c>  PAW_PBE Nb_sv 25May2007               </c></rc>
    <rc><c>   6</c><c>Hf</c><c>    178.49000000</c><c>      4.00000000</c><c>  PAW_PBE Hf 20Jan2003                  </c></rc>
   </set>
  </array>
 </atominfo>
 <structure name="initialpos" >
  <crystal>
   <varray name="basis" >
    <v>       6.77268336      -0.02152955      -0.00643991 </v>
    <v>      -0.03105223      10.08813866      -0.00764708 </v>
    <v>      -0.00935807      -0.00790647      10.16751764 </v>
   </varray>
   <i name="volume">    694.67530631 </i>
   <varray name="rec_basis" >
    <v>       0.14765354       0.00045459       0.00013625 </v>
    <v>       0.00031519       0.09912734       0.00007737 </v>
    <v>       0.00009376       0.00007484       0.09835257 </v>
   </varray>
  </crystal>
  <varray name="positions" >
   <v>       0.99875100       0.66757400       0.34051100 </v>
   <v>       0.24233300       0.84130500       0.83267800 </v>
   <v>       0.75248700       0.49187200       0.17637800 </v>
   <v>       0.01831700       0.33089500       0.99367700 </v>
   <v>       0.50714000       0.66381400       0.99410800 </v>
   <v>       0.25575000       0.16259300       0.17440300 </v>
   <v>       0.52225400       0.99372700       0.00506600 </v>
   <v>       0.24583000       0.83793600       0.49608600 </v>
   <v>       0.75643000       0.83610300       0.49664100 </v>
   <v>       0.24477300       0.50726900       0.17910400 </v>
   <v>       0.75303400       0.50046000       0.49183200 </v>
   <v>       0.75267200       0.83669600       0.17342200 </v>
   <v>       0.98057000       0.00059800       0.00720500 </v>
   <v>       0.77155700       0.50273100       0.82607800 </v>
   <v>       0.25346200       0.15810700       0.49304300 </v>
   <v>       0.25914800       0.14281100       0.83079300 </v>
   <v>       0.50386600       0.99398300       0.65735900 </v>
   <v>       0.49919200       0.33082100       0.34634600 </v>
   <v>       0.74718200       0.16330500       0.17377600 </v>
   <v>       0.74937100       0.16170000       0.49767100 </v>
   <v>       0.98872400       0.66920500       0.00123500 </v>
   <v>       0.49870900       0.66478800       0.34280600 </v>
   <v>       0.75830600       0.83965900       0.83003600 </v>
   <v>       0.24600500       0.50414400       0.48888400 </v>
   <v>       0.50893600       0.99961400       0.33826000 </v>
   <v>       0.99435200       0.99755200       0.33523600 </v>
   <v>       0.99866100       0.00446400       0.65926500 </v>
   <v>       0.99548700       0.66656700       0.65935000 </v>
   <v>       0.00286500       0.33240000       0.34433200 </v>
   <v>       0.21855000       0.52477500       0.83326100 </v>
   <v>       0.24916500       0.82911400       0.17082100 </v>
   <v>       0.48729200       0.34001300       0.66533100 </v>
   <v>       0.01277200       0.33206900       0.66196500 </v>
   <v>       0.74092500       0.16155200       0.83045900 </v>
   <v>       0.50335800       0.66849900       0.66288600 </v>
   <v>       0.48177300       0.34129700       0.98970200 </v>
  </varray>
 </structure>
 <calculation>
  <scstep>
   <time name="dav">    1.11    1.13</time>
   <time name="total">    1.28    1.66</time>
   <energy>
    <i name="alphaZ">   1644.26740088 </i>
    <i name="ewald"> -19829.29469501 </i>
    <i name="hartreedc">  -6851.39144897 </i>
    <i name="XCdc">   -382.21219275 </i>
    <i name="pawpsdc">  21753.48753423 </i>
    <i name="pawaedc"> -20058.44501918 </i>
    <i name="eentropy">     -0.00978755 </i>
    <i name="bandstr">     49.91452805 </i>
    <i name="atom">  25540.60277421 </i>
    <i name="e_fr_energy">   1866.91909393 </i>
    <i name="e_wo_entrp">   1866.92888147 </i>
    <i name="e_0_energy">   1866.92235644 </i>
   </energy>
  </scstep>
  <scstep>
   <time name="dav">    1.12    1.12</time>
   <time name="total">    1.12    1.29</time>
   <energy>
    <i name="e_fr_energy">   -112.53258662 </i>
    <i name="e_wo_entrp">   -112.52968519 </i>
    <i name="e_0_energy">   -112.53161947 </i>
   </energy>
  </scstep>
  <scstep>
   <time name="dav">    1.54    1.54</time>
   <time name="total">    1.54    1.58</time>
   <energy>
    <i name="e_fr_energy">   -360.52524474 </i>
    <i name="e_wo_entrp">   -360.52721504 </i>
    <i name="e_0_energy">   -360.52590150 </i>
   </energy>
  </scstep>
  <scstep>
   <time name="dav">    1.52    1.53</time>
   <time name="total">    1.52    1.56</time>
   <energy>
    <i name="e_fr_energy">   -388.20253677 </i>
    <i name="e_wo_entrp">   -388.22029042 </i>
    <i name="e_0_energy">   -388.20845465 </i>
   </energy>
  </scstep>
  <scstep>
   <time name="dav">    1.45    1.46</time>
   <time name="total">    1.49    1.53</time>
   <energy>
    <i name="e_fr_energy">   -390.89666340 </i>
    <i name="e_wo_entrp">   -390.91344968 </i>
    <i name="e_0_energy">   -390.90225883 </i>
   </energy>
  </scstep>
  <scstep>
   <time name="diag">    0.08    0.08</time>
   <time name="diis">    0.86    0.91</time>
   <time name="orth">    0.01    0.01</time>
   <time name="total">    1.02    1.10</time>
   <energy>
    <i name="e_fr_energy">   -380.40847409 </i>
    <i name="e_wo_entrp">   -380.42191790 </i>
    <i name="e_0_energy">   -380.41295536 </i>
   </energy>
  </scstep>
  <scstep>
   <time name="diag">    0.21    0.27</time>
   <time name="diis">    0.59    1.15</time>
   <time name="orth">    0.03    0.03</time>
   <time name="total">    1.03    1.69</time>
   <energy>
    <i name="e_fr_energy">   -384.52861813 </i>
    <i name="e_wo_entrp">   -384.52331324 </i>
    <i name="e_0_energy">   -384.52684984 </i>
   </energy>
  </scstep>
  <scstep>
   <time name="diag">    0.29    0.29</time>
   <time name="diis">    0.77    0.79</time>
   <time name="orth">    0.01    0.01</time>
   <time name="total">    1.19    1.38</time>
   <energy>
    <i name="e_fr_energy">   -375.97256723 </i>
    <i name="e_wo_entrp">   -375.98835338 </i>
    <i name="e_0_energy">   -375.97782928 </i>
   </energy>
  </scstep>
  <scstep>
   <time name="diag">    0.09    0.09</time>
   <time name="diis">    1.44    1.45</time>
   <time name="orth">    0.17    0.17</time>
   <time name="total">    1.77    1.82</time>
   <energy>
    <i name="e_fr_energy">   -375.71713146 </i>
    <i name="e_wo_entrp">   -375.73557398 </i>
    <i name="e_0_energy">   -375.72327897 </i>
   </energy>
  </scstep>
  <scstep>
   <time name="diag">    0.86    0.87</time>
   <time name="diis">    0.82    0.82</time>
   <time name="orth">    0.01    0.01</time>
   <time name="total">    2.06    2.11</time>
   <energy>
    <i name="e_fr_energy">   -375.69446751 </i>
    <i name="e_wo_entrp">   -375.71237731 </i>
    <i name="e_0_energy">   -375.70043744 </i>
   </energy>
  </scstep>
  <scstep>
   <time name="diag">    0.11    0.11</time>
   <time name="diis">    0.81    0.81</time>
   <time name="orth">    0.02    0.02</time>
   <time name="total">    1.02    1.08</time>
   <energy>
    <i name="e_fr_energy">   -375.65392970 </i>
    <i name="e_wo_entrp">   -375.67220483 </i>
    <i name="e_0_energy">   -375.66002141 </i>
   </energy>
  </scstep>
  <scstep>
   <time name="diag">    0.08    0.08</time>
   <time name="diis">    0.82    0.83</time>
   <time name="orth">    0.01    0.01</time>
   <time name="total">    0.98    1.01</time>
   <energy>
    <i name="e_fr_energy">   -375.64713124 </i>
    <i name="e_wo_entrp">   -375.66546148 </i>
    <i name="e_0_energy">   -375.65324132 </i>
   </energy>
  </scstep>
  <scstep>
   <time name="diag">    0.08    0.08</time>
   <time name="diis">    0.87    0.88</time>
   <time name="orth">    0.01    0.01</time>
   <time name="total">    1.03    1.07</time>
   <energy>
    <i name="e_fr_energy">   -375.64375174 </i>
    <i name="e_wo_entrp">   -375.66179191 </i>
    <i name="e_0_energy">   -375.64976513 </i>
   </energy>
  </scstep>
  <scstep>
   <time name="diag">    0.08    0.08</time>
   <time name="diis">    0.83    0.83</time>
   <time name="orth">    0.01    0.01</time>
   <time name="total">    1.00    1.03</time>
   <energy>
    <i name="e_fr_energy">   -375.64298896 </i>
    <i name="e_wo_entrp">   -375.66127296 </i>
    <i name="e_0_energy">   -375.64908363 </i>
   </energy>
  </scstep>
  <scstep>
   <time name="diag">    0.08    0.08</time>
   <time name="diis">    0.83    0.83</time>
   <time name="orth">    0.01    0.01</time>
   <time name="total">    0.98    1.02</time>
   <energy>
    <i name="e_fr_energy">   -375.64291876 </i>
    <i name="e_wo_entrp">   -375.66114763 </i>
    <i name="e_0_energy">   -375.64899505 </i>
   </energy>
  </scstep>
  <scstep>
   <time name="diag">    0.08    0.08</time>
   <time name="diis">    0.81    0.81</time>
   <time name="orth">    0.01    0.01</time>
   <time name="total">    1.13    1.17</time>
   <energy>
    <i name="e_fr_energy">   -375.64292226 </i>
    <i name="e_wo_entrp">   -375.66117472 </i>
    <i name="e_0_energy">   -375.64900642 </i>
   </energy>
  </scstep>
  <scstep>
   <time name="diag">    0.08    0.08</time>
   <time name="diis">    0.71    0.71</time>
   <time name="orth">    0.01    0.01</time>
   <time name="total">    0.90    0.94</time>
   <energy>
    <i name="e_fr_energy">   -375.64289992 </i>
    <i name="e_wo_entrp">   -375.66118463 </i>
    <i name="e_0_energy">   -375.64899482 </i>
   </energy>
  </scstep>
  <scstep>
   <time name="diag">    0.08    0.12</time>
   <time name="diis">    0.67    0.76</time>
   <time name="orth">    0.01    0.01</time>
   <time name="total">    0.83    1.07</time>
   <energy>
    <i name="e_fr_energy">   -375.64289713 </i>
    <i name="e_wo_entrp">   -375.66116154 </i>
    <i name="e_0_energy">   -375.64898527 </i>
   </energy>
  </scstep>
  <scstep>
   <time name="diag">    0.09    0.09</time>
   <time name="diis">    0.41    0.56</time>
   <time name="orth">    0.01    0.02</time>
   <time name="total">    0.54    0.74</time>
   <energy>
    <i name="alphaZ">   1644.26740088 </i>
    <i name="ewald"> -19829.29469501 </i>
    <i name="hartreedc">  -6624.00311572 </i>
    <i name="XCdc">   -381.10247656 </i>
    <i name="pawpsdc">  34899.08267498 </i>
    <i name="pawaedc"> -33184.19371253 </i>
    <i name="eentropy">      0.01826005 </i>
    <i name="bandstr">  -2441.02000780 </i>
    <i name="atom">  25540.60277421 </i>
    <i name="e_fr_energy">   -375.64289750 </i>
    <i name="e_wo_entrp">   -375.66115755 </i>
    <i name="e_0_energy">   -375.64898418 </i>
   </energy>
  </scstep>
  <structure>
   <crystal>
    <varray name="basis" >
     <v>       6.77268336      -0.02152955      -0.00643991 </v>
     <v>      -0.03105223      10.08813866      -0.00764708 </v>
     <v>      -0.00935807      -0.00790647      10.16751764 </v>
    </varray>
    <i name="volume">    694.67530631 </i>
    <varray name="rec_basis" >
     <v>       0.14765354       0.00045459       0.00013625 </v>
     <v>       0.00031519       0.09912734       0.00007737 </v>
     <v>       0.00009376       0.00007484       0.09835257 </v>
    </varray>
   </crystal>
   <varray name="positions" >
    <v>       0.99875100       0.66757400       0.34051100 </v>
    <v>       0.24233300       0.84130500       0.83267800 </v>
    <v>       0.75248700       0.49187200       0.17637800 </v>
    <v>       0.01831700       0.33089500       0.99367700 </v>
    <v>       0.50714000       0.66381400       0.99410800 </v>
    <v>       0.25575000       0.16259300       0.17440300 </v>
    <v>       0.52225400       0.99372700       0.00506600 </v>
    <v>       0.24583000       0.83793600       0.49608600 </v>
    <v>       0.75643000       0.83610300       0.49664100 </v>
    <v>       0.24477300       0.50726900       0.17910400 </v>
    <v>       0.75303400       0.50046000       0.49183200 </v>
    <v>       0.75267200       0.83669600       0.17342200 </v>
    <v>       0.98057000       0.00059800       0.00720500 </v>
    <v>       0.77155700       0.50273100       0.82607800 </v>
    <v>       0.25346200       0.15810700       0.49304300 </v>
    <v>       0.25914800       0.14281100       0.83079300 </v>
    <v>       0.50386600       0.99398300       0.65735900 </v>
    <v>       0.49919200       0.33082100       0.34634600 </v>
    <v>       0.74718200       0.16330500       0.17377600 </v>
    <v>       0.74937100       0.16170000       0.49767100 </v>
    <v>       0.98872400       0.66920500       0.00123500 </v>
    <v>       0.49870900       0.66478800       0.34280600 </v>
    <v>       0.75830600       0.83965900       0.83003600 </v>
    <v>       0.24600500       0.50414400       0.48888400 </v>
    <v>       0.50893600       0.99961400       0.33826000 </v>
    <v>       0.99435200       0.99755200       0.33523600 </v>
    <v>       0.99866100       0.00446400       0.65926500 </v>
    <v>       0.99548700       0.66656700       0.65935000 </v>
    <v>       0.00286500       0.33240000       0.34433200 </v>
    <v>       0.21855000       0.52477500       0.83326100 </v>
    <v>       0.24916500       0.82911400       0.17082100 </v>
    <v>       0.48729200       0.34001300       0.66533100 </v>
    <v>       0.01277200       0.33206900       0.66196500 </v>
    <v>       0.74092500       0.16155200       0.83045900 </v>
    <v>       0.50335800       0.66849900       0.66288600 </v>
    <v>       0.48177300       0.34129700       0.98970200 </v>
   </varray>
  </structure>
  <varray name="forces" >
   <v>      -0.05012800       0.06383459      -0.14719021 </v>
   <v>       0.04475595       0.00756714       0.02692321 </v>
   <v>      -0.17865693      -0.25008665      -0.14157113 </v>
   <v>      -0.00977161       0.03013101       0.01946533 </v>
   <v>       0.00148064      -0.01685191       0.04106745 </v>
   <v>       0.02866808      -0.00354177      -0.04250504 </v>
   <v>       0.01842569      -0.04900320       0.05347121 </v>
   <v>       0.29762857       0.40542225       0.31346678 </v>
   <v>      -0.24250281       0.33241008       0.29263988 </v>
   <v>       0.35775532      -0.35727074      -0.29845183 </v>
   <v>      -0.36946498      -0.41312620       0.30733826 </v>
   <v>      -0.27244673       0.36105541      -0.32338501 </v>
   <v>       0.00945413      -0.01808741       0.03534949 </v>
   <v>      -0.02017302      -0.03097205       0.02366831 </v>
   <v>       0.04849946      -0.00629870       0.05246489 </v>
   <v>      -0.01009219       0.00506106      -0.00038832 </v>
   <v>      -0.00250651      -0.06225820      -0.05088997 </v>
   <v>      -0.00047396       0.05506173       0.02114109 </v>
   <v>      -0.05743847       0.01498721      -0.04103547 </v>
   <v>      -0.04456817      -0.00074732       0.03692390 </v>
   <v>      -0.01387135       0.01387970      -0.10176109 </v>
   <v>       0.01416028      -0.00537370      -0.01570253 </v>
   <v>      -0.04244224       0.03749240      -0.00350378 </v>
   <v>       0.26523450      -0.33230681       0.17692765 </v>
   <v>       0.00278414      -0.01951710      -0.01044234 </v>
   <v>      -0.00089465       0.05391696      -0.00238158 </v>
   <v>       0.00480295      -0.01379866      -0.00929276 </v>
   <v>      -0.02357502       0.03410241       0.10379632 </v>
   <v>       0.00043633      -0.08027281      -0.03014669 </v>
   <v>       0.03059899      -0.02501723       0.00758131 </v>
   <v>       0.21866517       0.22988529      -0.25732830 </v>
   <v>       0.00507258       0.01432896      -0.01133118 </v>
   <v>       0.00678350       0.02221987      -0.00712156 </v>
   <v>      -0.01398919       0.00596676      -0.00539316 </v>
   <v>       0.00457652      -0.00848937      -0.04033214 </v>
   <v>      -0.00678700       0.00569700       0.02792901 </v>
  </varray>
  <varray name="stress" >
   <v>       9.72676643      -0.37216485      -0.71667028 </v>
   <v>      -0.37216481       8.41688742       0.21981666 </v>
   <v>      -0.71667027       0.21981671       8.68609946 </v>
  </varray>
  <energy>
   <i name="e_fr_energy">   -375.64289750 </i>
   <i name="e_wo_entrp">   -375.64898418 </i>
   <i name="e_0_energy">      0.01826005 </i>
  </energy>
  <time name="totalsc">   24.22   26.75</time>
 </calculation>
 <calculation>
  <scstep>
   <time name="dav">    1.20    1.20</time>
   <time name="total">    1.31    1.47</time>
   <energy>
    <i name="alphaZ">   1636.60165518 </i>
    <i name="ewald"> -19807.96489676 </i>
    <i name="hartreedc">  -6604.56290952 </i>
    <i name="XCdc">   -382.47594725 </i>
    <i name="pawpsdc">  34899.34952579 </i>
    <i name="pawaedc"> -33184.45215900 </i>
    <i name="eentropy">      0.01948776 </i>
    <i name="bandstr">  -2472.84364949 </i>
    <i name="atom">  25540.60277421 </i>
    <i name="e_fr_energy">   -375.72611908 </i>
    <i name="e_wo_entrp">   -375.74560684 </i>
    <i name="e_0_energy">   -375.73261500 </i>
   </energy>
  </scstep>
  <scstep>
   <time name="diag">    0.18    0.18</time>
   <time name="diis">    0.80    0.81</time>
   <time name="orth">    0.01    0.01</time>
   <time name="total">    1.06    1.10</time>
   <energy>
    <i name="e_fr_energy">   -375.70338983 </i>
    <i name="e_wo_entrp">   -375.72161771 </i>
    <i name="e_0_energy">   -375.70946579 </i>
   </energy>
  </scstep>
  <scstep>
   <time name="diag">    0.08    0.08</time>
   <time name="diis">    0.82    0.82</time>
   <time name="orth">    0.01    0.01</time>
   <time name="total">    0.97    1.02</time>
   <energy>
    <i name="e_fr_energy">   -375.69166660 </i>
    <i name="e_wo_entrp">   -375.71100070 </i>
    <i name="e_0_energy">   -375.69811130 </i>
   </energy>
  </scstep>
  <scstep>
   <time name="diag">    0.08    0.08</time>
   <time name="diis">    0.83    0.83</time>
   <time name="orth">    0.01    0.01</time>
   <time name="total">    0.98    1.03</time>
   <energy>
    <i name="e_fr_energy">   -375.68514732 </i>
    <i name="e_wo_entrp">   -375.70446236 </i>
    <i name="e_0_energy">   -375.69158567 </i>
   </energy>
  </scstep>
  <scstep>
   <time name="diag">    0.08    0.08</time>
   <time name="diis">    0.83    0.83</time>
   <time name="orth">    0.01    0.01</time>
   <time name="total">    0.99    1.03</time>
   <energy>
    <i name="e_fr_energy">   -375.68396935 </i>
    <i name="e_wo_entrp">   -375.70297699 </i>
    <i name="e_0_energy">   -375.69030523 </i>
   </energy>
  </scstep>
  <scstep>
   <time name="diag">    0.12    0.12</time>
   <time name="diis">    0.94    0.94</time>
   <time name="orth">    0.01    0.01</time>
   <time name="total">    1.13    1.19</time>
   <energy>
    <i name="e_fr_energy">   -375.68405975 </i>
    <i name="e_wo_entrp">   -375.70310359 </i>
    <i name="e_0_energy">   -375.69040770 </i>
   </energy>
  </scstep>
  <scstep>
   <time name="diag">    0.14    0.14</time>
   <time name="diis">    0.76    0.85</time>
   <time name="orth">    0.01    0.02</time>
   <time name="total">    1.00    1.16</time>
   <energy>
    <i name="e_fr_energy">   -375.68406739 </i>
    <i name="e_wo_entrp">   -375.70316436 </i>
    <i name="e_0_energy">   -375.69043305 </i>
   </energy>
  </scstep>
  <scstep>
   <time name="diag">    0.08    0.08</time>
   <time name="diis">    0.75    0.75</time>
   <time name="orth">    0.01    0.01</time>
   <time name="total">    0.90    0.95</time>
   <energy>
    <i name="e_fr_energy">   -375.68412244 </i>
    <i name="e_wo_entrp">   -375.70319442 </i>
    <i name="e_0_energy">   -375.69047977 </i>
   </energy>
  </scstep>
  <scstep>
   <time name="diag">    0.08    0.08</time>
   <time name="diis">    0.70    0.70</time>
   <time name="orth">    0.01    0.01</time>
   <time name="total">    0.85    0.89</time>
   <energy>
    <i name="e_fr_energy">   -375.68414805 </i>
    <i name="e_wo_entrp">   -375.70321551 </i>
    <i name="e_0_energy">   -375.69050387 </i>
   </energy>
  </scstep>
  <scstep>
   <time name="diag">    0.08    0.08</time>
   <time name="diis">    0.56    0.56</time>
   <time name="orth">    0.01    0.01</time>
   <time name="total">    0.71    0.75</time>
   <energy>
    <i name="e_fr_energy">   -375.68416646 </i>
    <i name="e_wo_entrp">   -375.70323636 </i>
    <i name="e_0_energy">   -375.69052310 </i>
   </energy>
  </scstep>
  <scstep>
   <time name="diag">    0.08    0.08</time>
   <time name="diis">    0.48    0.48</time>
   <time name="orth">    0.01    0.01</time>
   <time name="total">    0.60    0.65</time>
   <energy>
    <i name="alphaZ">   1636.60165518 </i>
    <i name="ewald"> -19807.96489676 </i>
    <i name="hartreedc">  -6622.52164241 </i>
    <i name="XCdc">   -381.71518816 </i>
    <i name="pawpsdc">  34669.70843359 </i>
    <i name="pawaedc"> -32955.09888664 </i>
    <i name="eentropy">      0.01907792 </i>
    <i name="bandstr">  -2455.31549402 </i>
    <i name="atom">  25540.60277421 </i>
    <i name="e_fr_energy">   -375.68416709 </i>
    <i name="e_wo_entrp">   -375.70324502 </i>
    <i name="e_0_energy">   -375.69052640 </i>
   </energy>
  </scstep>
  <structure>
   <crystal>
    <varray name="basis" >
     <v>       6.78416843      -0.02200074      -0.00729654 </v>
     <v>      -0.03175836      10.10294113      -0.00726824 </v>
     <v>      -0.01064357      -0.00752788      10.18291284 </v>
    </varray>
    <i name="volume">    697.92912451 </i>
    <varray name="rec_basis" >
     <v>       0.14740367       0.00046347       0.00015441 </v>
     <v>       0.00032107       0.09898214       0.00007351 </v>
     <v>       0.00010585       0.00007098       0.09820389 </v>
    </varray>
   </crystal>
   <varray name="positions" >
    <v>       0.99864401       0.66766519       0.34030149 </v>
    <v>       0.24242874       0.84131609       0.83271639 </v>
    <v>       0.75210329       0.49151224       0.17617597 </v>
    <v>       0.01829636       0.33093820       0.99370473 </v>
    <v>       0.50714313       0.66378988       0.99416644 </v>
    <v>       0.25581116       0.16258800       0.17434253 </v>
    <v>       0.52229316       0.99365684       0.00514208 </v>
    <v>       0.24646931       0.83851935       0.49653304 </v>
    <v>       0.75591455       0.83657911       0.49705759 </v>
    <v>       0.24553457       0.50675774       0.17867927 </v>
    <v>       0.75224236       0.49986597       0.49226853 </v>
    <v>       0.75209153       0.83721238       0.17296170 </v>
    <v>       0.98059015       0.00057213       0.00725531 </v>
    <v>       0.77151373       0.50268650       0.82611163 </v>
    <v>       0.25356570       0.15809824       0.49311774 </v>
    <v>       0.25912647       0.14281821       0.83079244 </v>
    <v>       0.50386013       0.99389361       0.65728649 </v>
    <v>       0.49919139       0.33090002       0.34637615 </v>
    <v>       0.74705927       0.16332619       0.17371753 </v>
    <v>       0.74927583       0.16169877       0.49772350 </v>
    <v>       0.98869425       0.66922474       0.00109015 </v>
    <v>       0.49873919       0.66478034       0.34278366 </v>
    <v>       0.75821554       0.83971259       0.83003100 </v>
    <v>       0.24656996       0.50366866       0.48913585 </v>
    <v>       0.50894180       0.99958600       0.33824512 </v>
    <v>       0.99435044       0.99762935       0.33523267 </v>
    <v>       0.99867115       0.00444422       0.65925176 </v>
    <v>       0.99543705       0.66661593       0.65949775 </v>
    <v>       0.00286534       0.33228480       0.34428900 </v>
    <v>       0.21861524       0.52473926       0.83327181 </v>
    <v>       0.24963328       0.82944451       0.17045526 </v>
    <v>       0.48730291       0.34003357       0.66531489 </v>
    <v>       0.01278663       0.33210090       0.66195490 </v>
    <v>       0.74089513       0.16156049       0.83045131 </v>
    <v>       0.50336764       0.66848680       0.66282859 </v>
    <v>       0.48175859       0.34130517       0.98974175 </v>
   </varray>
  </structure>
  <varray name="forces" >
   <v>      -0.04496331       0.05916901      -0.11274001 </v>
   <v>       0.03144377       0.00892057       0.02360693 </v>
   <v>      -0.15823676      -0.22520642      -0.10303661 </v>
   <v>      -0.00549260       0.01949522       0.00592406 </v>
   <v>       0.01218147      -0.02049584       0.02265312 </v>
   <v>       0.02315238      -0.00835708      -0.02872251 </v>
   <v>       0.02867032      -0.03209379       0.04023364 </v>
   <v>       0.24764207       0.36402725       0.26482770 </v>
   <v>      -0.20393796       0.30202230       0.24951223 </v>
   <v>       0.31703448      -0.30883495      -0.23412487 </v>
   <v>      -0.31016211      -0.35426384       0.24168611 </v>
   <v>      -0.23523887       0.32818827      -0.28055562 </v>
   <v>      -0.00640326      -0.00636903       0.02443113 </v>
   <v>       0.00490268      -0.00779785       0.01711696 </v>
   <v>       0.03711027      -0.00859510       0.03148537 </v>
   <v>      -0.00752294      -0.00987914       0.00173406 </v>
   <v>      -0.00114742      -0.04733993      -0.04291449 </v>
   <v>      -0.00441084       0.03613821       0.03384915 </v>
   <v>      -0.04435470      -0.00192514      -0.02588130 </v>
   <v>      -0.03494386      -0.00558186       0.01847388 </v>
   <v>      -0.01447219       0.00479593      -0.09427399 </v>
   <v>       0.01063686      -0.01719574       0.00214255 </v>
   <v>      -0.02959376       0.03534907       0.00447300 </v>
   <v>       0.22618396      -0.29422440       0.12423404 </v>
   <v>       0.01096024      -0.00084028      -0.00170612 </v>
   <v>      -0.01044194       0.03626732       0.00446766 </v>
   <v>       0.00630972       0.00190255      -0.00759739 </v>
   <v>      -0.02848517       0.01663806       0.08440451 </v>
   <v>       0.00149807      -0.06234414      -0.00960046 </v>
   <v>       0.00697211      -0.00552652       0.00434375 </v>
   <v>       0.19298550       0.20678030      -0.22636133 </v>
   <v>      -0.00425738       0.00367816       0.00087544 </v>
   <v>       0.00894666       0.01751461      -0.00232273 </v>
   <v>      -0.01477610      -0.01193932      -0.00335430 </v>
   <v>       0.00851492      -0.01170955      -0.02894138 </v>
   <v>      -0.01630430      -0.00036692       0.00165783 </v>
  </varray>
  <varray name="stress" >
   <v>       2.31313308      -0.27379262      -0.60302155 </v>
   <v>      -0.27379262       1.32727783       0.12135406 </v>
   <v>      -0.60302153       0.12135399       1.37442401 </v>
  </varray>
  <energy>
   <i name="e_fr_energy">   -375.68416709 </i>
   <i name="e_wo_entrp">   -375.69052640 </i>
   <i name="e_0_energy">      0.01907792 </i>
  </energy>
  <time name="totalsc">   12.31   13.34</time>
 </calculation>
 <calculation>
  <scstep>
   <time name="dav">    1.51    1.52</time>
   <time name="total">    2.54    2.75</time>
   <energy>
    <i name="alphaZ">   1622.88482412 </i>
    <i name="ewald"> -19769.26222503 </i>
    <i name="hartreedc">  -6587.74685272 </i>
    <i name="XCdc">   -384.18759710 </i>
    <i name="pawpsdc">  34669.74501671 </i>
    <i name="pawaedc"> -32955.22325599 </i>
    <i name="eentropy">      0.02051001 </i>
    <i name="bandstr">  -2512.67988953 </i>
    <i name="atom">  25540.60277421 </i>
    <i name="e_fr_energy">   -375.84669530 </i>
    <i name="e_wo_entrp">   -375.86720531 </i>
    <i name="e_0_energy">   -375.85353197 </i>
   </energy>
  </scstep>
  <scstep>
   <time name="diag">    0.10    0.10</time>
   <time name="diis">    1.44    1.48</time>
   <time name="orth">    0.01    0.02</time>
   <time name="total">    2.04    2.23</time>
   <energy>
    <i name="e_fr_energy">   -375.77258650 </i>
    <i name="e_wo_entrp">   -375.79107073 </i>
    <i name="e_0_energy">   -375.77874791 </i>
   </energy>
  </scstep>
  <scstep>
   <time name="diag">    0.08    0.09</time>
   <time name="diis">    0.85    0.85</time>
   <time name="orth">    0.01    0.01</time>
   <time name="total">    1.09    1.14</time>
   <energy>
    <i name="e_fr_energy">   -375.73274285 </i>
    <i name="e_wo_entrp">   -375.75288470 </i>
    <i name="e_0_energy">   -375.73945680 </i>
   </energy>
  </scstep>
  <scstep>
   <time name="diag">    0.09    0.09</time>
   <time name="diis">    0.86    0.86</time>
   <time name="orth">    0.01    0.01</time>
   <time name="total">    1.18    1.24</time>
   <energy>
    <i name="e_fr_energy">   -375.71208996 </i>
    <i name="e_wo_entrp">   -375.73249495 </i>
    <i name="e_0_energy">   -375.71889162 </i>
   </energy>
  </scstep>
  <scstep>
   <time name="diag">    0.12    0.12</time>
   <time name="diis">    0.83    0.83</time>
   <time name="orth">    0.01    0.01</time>
   <time name="total">    1.03    1.07</time>
   <energy>
    <i name="e_fr_energy">   -375.70823981 </i>
    <i name="e_wo_entrp">   -375.72799987 </i>
    <i name="e_0_energy">   -375.71482649 </i>
   </energy>
  </scstep>
  <scstep>
   <time name="diag">    0.08    0.08</time>
   <time name="diis">    0.89    0.89</time>
   <time name="orth">    0.01    0.01</time>
   <time name="total">    1.05    1.08</time>
   <energy>
    <i name="e_fr_energy">   -375.70861991 </i>
    <i name="e_wo_entrp">   -375.72845949 </i>
    <i name="e_0_energy">   -375.71523310 </i>
   </energy>
  </scstep>
  <scstep>
   <time name="diag">    0.08    0.08</time>
   <time name="diis">    0.88    0.89</time>
   <time name="orth">    0.01    0.01</time>
   <time name="total">    1.04    1.09</time>
   <energy>
    <i name="e_fr_energy">   -375.70872591 </i>
    <i name="e_wo_entrp">   -375.72862426 </i>
    <i name="e_0_energy">   -375.71535869 </i>
   </energy>
  </scstep>
  <scstep>
   <time name="diag">    0.08    0.08</time>
   <time name="diis">    0.87    0.88</time>
   <time name="orth">    0.01    0.01</time>
   <time name="total">    1.03    1.07</time>
   <energy>
    <i name="e_fr_energy">   -375.70895936 </i>
    <i name="e_wo_entrp">   -375.72884512 </i>
    <i name="e_0_energy">   -375.71558795 </i>
   </energy>
  </scstep>
  <scstep>
   <time name="diag">    0.08    0.08</time>
   <time name="diis">    0.80    0.80</time>
   <time name="orth">    0.01    0.01</time>
   <time name="total">    0.95    0.99</time>
   <energy>
    <i name="e_fr_energy">   -375.70906363 </i>
    <i name="e_wo_entrp">   -375.72892796 </i>
    <i name="e_0_energy">   -375.71568507 </i>
   </energy>
  </scstep>
  <scstep>
   <time name="diag">    0.09    0.09</time>
   <time name="diis">    0.64    0.86</time>
   <time name="orth">    0.01    0.01</time>
   <time name="total">    0.87    1.14</time>
   <energy>
    <i name="e_fr_energy">   -375.70915369 </i>
    <i name="e_wo_entrp">   -375.72902301 </i>
    <i name="e_0_energy">   -375.71577680 </i>
   </energy>
  </scstep>
  <scstep>
   <time name="diag">    0.08    0.08</time>
   <time name="diis">    0.56    0.67</time>
   <time name="orth">    0.01    0.02</time>
   <time name="total">    0.72    0.90</time>
   <energy>
    <i name="e_fr_energy">   -375.70917406 </i>
    <i name="e_wo_entrp">   -375.72905470 </i>
    <i name="e_0_energy">   -375.71580094 </i>
   </energy>
  </scstep>
  <scstep>
   <time name="diag">    0.08    0.08</time>
   <time name="diis">    0.59    0.59</time>
   <time name="orth">    0.01    0.01</time>
   <time name="total">    0.74    0.79</time>
   <energy>
    <i name="e_fr_energy">   -375.70917268 </i>
    <i name="e_wo_entrp">   -375.72904652 </i>
    <i name="e_0_energy">   -375.71579730 </i>
   </energy>
  </scstep>
  <scstep>
   <time name="diag">    0.08    0.08</time>
   <time name="diis">    0.47    0.47</time>
   <time name="orth">    0.01    0.01</time>
   <time name="total">    0.59    0.62</time>
   <energy>
    <i name="alphaZ">   1622.88482412 </i>
    <i name="ewald"> -19769.26222503 </i>
    <i name="hartreedc">  -6619.81720716 </i>
    <i name="XCdc">   -382.82772612 </i>
    <i name="pawpsdc">  34266.38475875 </i>
    <i name="pawaedc"> -32552.71096391 </i>
    <i name="eentropy">      0.01987343 </i>
    <i name="bandstr">  -2480.98328071 </i>
    <i name="atom">  25540.60277421 </i>
    <i name="e_fr_energy">   -375.70917244 </i>
    <i name="e_wo_entrp">   -375.72904587 </i>
    <i name="e_0_energy">   -375.71579691 </i>
   </energy>
  </scstep>
  <structure>
   <crystal>
    <varray name="basis" >
     <v>       6.80489996      -0.02285128      -0.00884284 </v>
     <v>      -0.03303298      10.12966086      -0.00658440 </v>
     <v>      -0.01296402      -0.00684450      10.21070249 </v>
    </varray>
    <i name="volume">    703.82811114 </i>
    <varray name="rec_basis" >
     <v>       0.14695478       0.00047934       0.00018690 </v>
     <v>       0.00033160       0.09872111       0.00006660 </v>
     <v>       0.00012748       0.00006408       0.09793666 </v>
    </varray>
   </crystal>
   <varray name="positions" >
    <v>       0.99845115       0.66782955       0.33992384 </v>
    <v>       0.24260129       0.84133609       0.83278560 </v>
    <v>       0.75141171       0.49086378       0.17581180 </v>
    <v>       0.01825917       0.33101608       0.99375469 </v>
    <v>       0.50714880       0.66374639       0.99427177 </v>
    <v>       0.25592134       0.16257900       0.17423356 </v>
    <v>       0.52236374       0.99353038       0.00527923 </v>
    <v>       0.24762161       0.83957082       0.49733883 </v>
    <v>       0.75498590       0.83743721       0.49780831 </v>
    <v>       0.24690671       0.50583631       0.17791391 </v>
    <v>       0.75081583       0.49879517       0.49305523 </v>
    <v>       0.75104544       0.83814312       0.17213196 </v>
    <v>       0.98062648       0.00052551       0.00734599 </v>
    <v>       0.77143577       0.50260629       0.82617224 </v>
    <v>       0.25375260       0.15808246       0.49325246 </v>
    <v>       0.25908766       0.14283122       0.83079142 </v>
    <v>       0.50384952       0.99373250       0.65715581 </v>
    <v>       0.49919032       0.33104244       0.34643049 </v>
    <v>       0.74683810       0.16336439       0.17361212 </v>
    <v>       0.74910434       0.16169653       0.49781810 </v>
    <v>       0.98864059       0.66926031       0.00082906 </v>
    <v>       0.49879359       0.66476653       0.34274341 </v>
    <v>       0.75805254       0.83980918       0.83002196 </v>
    <v>       0.24758803       0.50281193       0.48958988 </v>
    <v>       0.50895224       0.99953554       0.33821830 </v>
    <v>       0.99434764       0.99776876       0.33522665 </v>
    <v>       0.99868945       0.00440856       0.65922791 </v>
    <v>       0.99534710       0.66670412       0.65976404 </v>
    <v>       0.00286593       0.33207718       0.34421151 </v>
    <v>       0.21873280       0.52467484       0.83329129 </v>
    <v>       0.25047708       0.83004031       0.16979610 </v>
    <v>       0.48732257       0.34007064       0.66528586 </v>
    <v>       0.01281299       0.33215840       0.66193669 </v>
    <v>       0.74084131       0.16157579       0.83043745 </v>
    <v>       0.50338500       0.66846480       0.66272511 </v>
    <v>       0.48173263       0.34131990       0.98981340 </v>
   </varray>
  </structure>
  <varray name="forces" >
   <v>      -0.03547443       0.04973418      -0.05387094 </v>
   <v>       0.00643194       0.00885751       0.01670903 </v>
   <v>      -0.12372885      -0.18056479      -0.03565734 </v>
   <v>       0.00374190       0.00206195      -0.01810439 </v>
   <v>       0.03108698      -0.02613417      -0.00896557 </v>
   <v>       0.01155635      -0.01581259      -0.00383348 </v>
   <v>       0.04592127      -0.00097793       0.01467373 </v>
   <v>       0.16263446       0.29373035       0.18165735 </v>
   <v>      -0.13960173       0.25102032       0.17620456 </v>
   <v>       0.24744686      -0.22691341      -0.12343594 </v>
   <v>      -0.20964596      -0.25318894       0.12823249 </v>
   <v>      -0.17116675       0.27021878      -0.20545237 </v>
   <v>      -0.03391995       0.01300479       0.00403521 </v>
   <v>       0.04955914       0.03328470       0.00570666 </v>
   <v>       0.01697282      -0.01320405      -0.00514070 </v>
   <v>      -0.00164294      -0.03610086       0.00594703 </v>
   <v>       0.00264495      -0.02088591      -0.02733440 </v>
   <v>      -0.01144150       0.00612443       0.05544724 </v>
   <v>      -0.01969665      -0.03245823       0.00091225 </v>
   <v>      -0.01844731      -0.01386902      -0.01376761 </v>
   <v>      -0.01553141      -0.01141549      -0.08647122 </v>
   <v>       0.00480982      -0.03887821       0.03308098 </v>
   <v>      -0.00542160       0.03104398       0.01937456 </v>
   <v>       0.16020871      -0.22913799       0.03446005 </v>
   <v>       0.02541037       0.02992970       0.01459923 </v>
   <v>      -0.02709756       0.00738990       0.01697453 </v>
   <v>       0.00880014       0.02722137      -0.00554417 </v>
   <v>      -0.03614053      -0.01421301       0.05500817 </v>
   <v>       0.00376442      -0.03187895       0.02766309 </v>
   <v>      -0.03674276       0.02916140      -0.00022575 </v>
   <v>       0.15008843       0.16897608      -0.17327947 </v>
   <v>      -0.02073958      -0.01522362       0.02266341 </v>
   <v>       0.01243618       0.01026190       0.00402597 </v>
   <v>      -0.01812414      -0.04369676       0.00014407 </v>
   <v>       0.01462240      -0.01692718      -0.01229568 </v>
   <v>      -0.03357349      -0.01054024      -0.04414057 </v>
  </varray>
  <varray name="stress" >
   <v>     -11.01334355      -0.07963868      -0.38966320 </v>
   <v>      -0.07963877     -11.42408801      -0.04351531 </v>
   <v>      -0.38966316      -0.04351533     -11.73304951 </v>
  </varray>
  <energy>
   <i name="e_fr_energy">   -375.70917244 </i>
   <i name="e_wo_entrp">   -375.71579691 </i>
   <i name="e_0_energy">      0.01987343 </i>
  </energy>
  <time name="totalsc">   16.64   18.00</time>
 </calculation>
 <calculation>
  <scstep>
   <time name="dav">    1.01    1.01</time>
   <time name="total">    1.69    1.85</time>
   <energy>
    <i name="alphaZ">   1625.32870508 </i>
    <i name="ewald"> -19790.77406205 </i>
    <i name="hartreedc">  -6611.92119970 </i>
    <i name="XCdc">   -382.42740209 </i>
    <i name="pawpsdc">  34266.08050749 </i>
    <i name="pawaedc"> -32552.43060137 </i>
    <i name="eentropy">      0.01949458 </i>
    <i name="bandstr">  -2470.22163092 </i>
    <i name="atom">  25540.60277421 </i>
    <i name="e_fr_energy">   -375.74341477 </i>
    <i name="e_wo_entrp">   -375.76290935 </i>
    <i name="e_0_energy">   -375.74991296 </i>
   </energy>
  </scstep>
  <scstep>
   <time name="diag">    0.08    0.08</time>
   <time name="diis">    0.78    0.79</time>
   <time name="orth">    0.01    0.01</time>
   <time name="total">    0.94    0.98</time>
   <energy>
    <i name="e_fr_energy">   -375.74822813 </i>
    <i name="e_wo_entrp">   -375.76800290 </i>
    <i name="e_0_energy">   -375.75481972 </i>
   </energy>
  </scstep>
  <scstep>
   <time name="diag">    0.08    0.08</time>
   <time name="diis">    0.80    0.81</time>
   <time name="orth">    0.01    0.01</time>
   <time name="total">    0.96    0.99</time>
   <energy>
    <i name="e_fr_energy">   -375.74112309 </i>
    <i name="e_wo_entrp">   -375.76102418 </i>
    <i name="e_0_energy">   -375.74775679 </i>
   </energy>
  </scstep>
  <scstep>
   <time name="diag">    0.08    0.08</time>
   <time name="diis">    0.84    0.84</time>
   <time name="orth">    0.01    0.01</time>
   <time name="total">    0.99    1.03</time>
   <energy>
    <i name="e_fr_energy">   -375.74007835 </i>
    <i name="e_wo_entrp">   -375.75968538 </i>
    <i name="e_0_energy">   -375.74661403 </i>
   </energy>
  </scstep>
  <scstep>
   <time name="diag">    0.13    0.13</time>
   <time name="diis">    0.92    0.93</time>
   <time name="orth">    0.01    0.01</time>
   <time name="total">    1.13    1.17</time>
   <energy>
    <i name="e_fr_energy">   -375.73980702 </i>
    <i name="e_wo_entrp">   -375.75958628 </i>
    <i name="e_0_energy">   -375.74640011 </i>
   </energy>
  </scstep>
  <scstep>
   <time name="diag">    0.08    0.08</time>
   <time name="diis">    0.71    0.88</time>
   <time name="orth">    0.01    0.01</time>
   <time name="total">    0.86    1.06</time>
   <energy>
    <i name="e_fr_energy">   -375.73982964 </i>
    <i name="e_wo_entrp">   -375.75956339 </i>
    <i name="e_0_energy">   -375.74640755 </i>
   </energy>
  </scstep>
  <scstep>
   <time name="diag">    0.08    0.08</time>
   <time name="diis">    0.72    0.73</time>
   <time name="orth">    0.01    0.01</time>
   <time name="total">    0.88    0.92</time>
   <energy>
    <i name="e_fr_energy">   -375.73983652 </i>
    <i name="e_wo_entrp">   -375.75956620 </i>
    <i name="e_0_energy">   -375.74641308 </i>
   </energy>
  </scstep>
  <scstep>
   <time name="diag">    0.08    0.08</time>
   <time name="diis">    0.65    0.65</time>
   <time name="orth">    0.01    0.01</time>
   <time name="total">    0.81    0.84</time>
   <energy>
    <i name="e_fr_energy">   -375.73985141 </i>
    <i name="e_wo_entrp">   -375.75960350 </i>
    <i name="e_0_energy">   -375.74643544 </i>
   </energy>
  </scstep>
  <scstep>
   <time name="diag">    0.08    0.08</time>
   <time name="diis">    0.47    0.48</time>
   <time name="orth">    0.01    0.01</time>
   <time name="total">    0.60    0.63</time>
   <energy>
    <i name="alphaZ">   1625.32870508 </i>
    <i name="ewald"> -19790.77406205 </i>
    <i name="hartreedc">  -6604.89427718 </i>
    <i name="XCdc">   -382.70564292 </i>
    <i name="pawpsdc">  34315.05165707 </i>
    <i name="pawaedc"> -32601.60556688 </i>
    <i name="eentropy">      0.01974693 </i>
    <i name="bandstr">  -2476.76319401 </i>
    <i name="atom">  25540.60277421 </i>
    <i name="e_fr_energy">   -375.73985975 </i>
    <i name="e_wo_entrp">   -375.75960668 </i>
    <i name="e_0_energy">   -375.74644206 </i>
   </energy>
  </scstep>
  <structure>
   <crystal>
    <varray name="basis" >
     <v>       6.80261964      -0.02327135      -0.00991767 </v>
     <v>      -0.03366557      10.12379324      -0.00633451 </v>
     <v>      -0.01457901      -0.00659701      10.20468658 </v>
    </varray>
    <i name="volume">    702.76981930 </i>
    <varray name="rec_basis" >
     <v>       0.14700417       0.00048898       0.00021033 </v>
     <v>       0.00033801       0.09877837       0.00006434 </v>
     <v>       0.00014308       0.00006179       0.09799443 </v>
    </varray>
   </crystal>
   <varray name="positions" >
    <v>       0.99830152       0.66796287       0.33969221 </v>
    <v>       0.24268886       0.84135584       0.83283645 </v>
    <v>       0.75087981       0.49035585       0.17560806 </v>
    <v>       0.01824973       0.33105277       0.99375443 </v>
    <v>       0.50720826       0.66369516       0.99430701 </v>
    <v>       0.25599076       0.16255558       0.17418109 </v>
    <v>       0.52247913       0.99347392       0.00535742 </v>
    <v>       0.24842810       0.84039552       0.49791527 </v>
    <v>       0.75432427       0.83812304       0.49835328 </v>
    <v>       0.24796127       0.50515298       0.17742739 </v>
    <v>       0.74980390       0.49801205       0.49355671 </v>
    <v>       0.75027329       0.83888411       0.17151625 </v>
    <v>       0.98058015       0.00052098       0.00739066 </v>
    <v>       0.77149292       0.50261242       0.82620591 </v>
    <v>       0.25386566       0.15805930       0.49330527 </v>
    <v>       0.25906743       0.14279233       0.83079823 </v>
    <v>       0.50384951       0.99363605       0.65706500 </v>
    <v>       0.49916900       0.33111245       0.34652223 </v>
    <v>       0.74670473       0.16334097       0.17356694 </v>
    <v>       0.74899515       0.16167833       0.49784267 </v>
    <v>       0.98858821       0.66926169       0.00060859 </v>
    <v>       0.49882612       0.66471251       0.34276626 </v>
    <v>       0.75797136       0.83988986       0.83004174 </v>
    <v>       0.24832755       0.50215394       0.48983136 </v>
    <v>       0.50900374       0.99955049       0.33822449 </v>
    <v>       0.99429669       0.99783892       0.33524477 </v>
    <v>       0.99871379       0.00442657       0.65921070 </v>
    <v>       0.99524131       0.66672513       0.65994813 </v>
    <v>       0.00287296       0.33194679       0.34421141 </v>
    <v>       0.21871696       0.52468245       0.83329954 </v>
    <v>       0.25112345       0.83051080       0.16929517 </v>
    <v>       0.48729303       0.34006803       0.66530085 </v>
    <v>       0.01284748       0.33219635       0.66193366 </v>
    <v>       0.74078414       0.16152846       0.83043148 </v>
    <v>       0.50341935       0.66843431       0.66266468 </v>
    <v>       0.48165938       0.34131316       0.98979067 </v>
   </varray>
  </structure>
  <varray name="forces" >
   <v>      -0.02813071       0.04672651      -0.03297089 </v>
   <v>      -0.00303714      -0.00658323       0.01248787 </v>
   <v>      -0.09950031      -0.14917178      -0.00888854 </v>
   <v>      -0.00168434      -0.01560355      -0.02150177 </v>
   <v>       0.03469117      -0.02648814      -0.02027596 </v>
   <v>      -0.00142947      -0.01145652      -0.00358458 </v>
   <v>       0.02135008       0.02511770      -0.00604567 </v>
   <v>       0.10789540       0.22390530       0.12979251 </v>
   <v>      -0.09859963       0.19653387       0.13069181 </v>
   <v>       0.19799956      -0.17495387      -0.06653050 </v>
   <v>      -0.14008920      -0.18650258       0.07668008 </v>
   <v>      -0.13159118       0.19983273      -0.14621622 </v>
   <v>      -0.01612413       0.02750604      -0.01005589 </v>
   <v>       0.04362720       0.04516633      -0.00039218 </v>
   <v>      -0.00124029      -0.00448429      -0.00939844 </v>
   <v>      -0.00289110      -0.02620879       0.01007852 </v>
   <v>       0.00527248       0.00126262      -0.00086526 </v>
   <v>      -0.01913312      -0.01251507       0.04104327 </v>
   <v>      -0.00184915      -0.02597655       0.00791737 </v>
   <v>      -0.00370525       0.00017382      -0.01785913 </v>
   <v>      -0.01019448      -0.00915389      -0.06837036 </v>
   <v>       0.00390177      -0.03965690       0.03231488 </v>
   <v>       0.00540852       0.00783023       0.02134339 </v>
   <v>       0.11106726      -0.17615462       0.00093168 </v>
   <v>       0.01693277       0.03923980       0.00812668 </v>
   <v>      -0.02020381      -0.00042729       0.01007723 </v>
   <v>       0.00991149       0.03590494       0.00907447 </v>
   <v>      -0.03207848      -0.01819961       0.03877671 </v>
   <v>       0.00797858      -0.02261743       0.02479777 </v>
   <v>      -0.02849579       0.03574170      -0.00234342 </v>
   <v>       0.12402864       0.13708887      -0.13805984 </v>
   <v>      -0.02645158      -0.02924502       0.04814633 </v>
   <v>       0.00905429       0.00035634       0.01220036 </v>
   <v>      -0.01420553      -0.04071583       0.00222218 </v>
   <v>       0.01039737      -0.02068163       0.00290196 </v>
   <v>      -0.02888188      -0.02559024      -0.06624643 </v>
  </varray>
  <varray name="stress" >
   <v>      -8.95907178       0.04377221      -0.27214088 </v>
   <v>       0.04377216      -9.05624402      -0.12083378 </v>
   <v>      -0.27214086      -0.12083384      -9.51535153 </v>
  </varray>
  <energy>
   <i name="e_fr_energy">   -375.73985975 </i>
   <i name="e_wo_entrp">   -375.74644206 </i>
   <i name="e_0_energy">      0.01974693 </i>
  </energy>
  <time name="totalsc">   10.52   11.25</time>
 </calculation>
 <calculation>
  <scstep>
   <time name="dav">    0.99    0.99</time>
   <time name="total">    1.83    2.04</time>
   <energy>
    <i name="alphaZ">   1632.69084635 </i>
    <i name="ewald"> -19854.08736480 </i>
    <i name="hartreedc">  -6582.32755852 </i>
    <i name="XCdc">   -381.49741178 </i>
    <i name="pawpsdc">  34315.40226184 </i>
    <i name="pawaedc"> -32601.92233484 </i>
    <i name="eentropy">      0.01680037 </i>
    <i name="bandstr">  -2444.68858862 </i>
    <i name="atom">  25540.60277421 </i>
    <i name="e_fr_energy">   -375.81057579 </i>
    <i name="e_wo_entrp">   -375.82737616 </i>
    <i name="e_0_energy">   -375.81617591 </i>
   </energy>
  </scstep>
  <scstep>
   <time name="diag">    0.08    0.08</time>
   <time name="diis">    0.79    0.79</time>
   <time name="orth">    0.01    0.01</time>
   <time name="total">    0.94    0.97</time>
   <energy>
    <i name="e_fr_energy">   -375.85912194 </i>
    <i name="e_wo_entrp">   -375.87658763 </i>
    <i name="e_0_energy">   -375.86494384 </i>
   </energy>
  </scstep>
  <scstep>
   <time name="diag">    0.08    0.08</time>
   <time name="diis">    0.88    0.89</time>
   <time name="orth">    0.01    0.01</time>
   <time name="total">    1.04    1.08</time>
   <energy>
    <i name="e_fr_energy">   -375.78844942 </i>
    <i name="e_wo_entrp">   -375.80685793 </i>
    <i name="e_0_energy">   -375.79458559 </i>
   </energy>
  </scstep>
  <scstep>
   <time name="diag">    0.12    0.12</time>
   <time name="diis">    0.84    0.89</time>
   <time name="orth">    0.01    0.02</time>
   <time name="total">    1.05    1.19</time>
   <energy>
    <i name="e_fr_energy">   -375.77984391 </i>
    <i name="e_wo_entrp">   -375.79720003 </i>
    <i name="e_0_energy">   -375.78562928 </i>
   </energy>
  </scstep>
  <scstep>
   <time name="diag">    0.08    0.11</time>
   <time name="diis">    0.82    0.83</time>
   <time name="orth">    0.01    0.01</time>
   <time name="total">    0.98    1.07</time>
   <energy>
    <i name="e_fr_energy">   -375.77751168 </i>
    <i name="e_wo_entrp">   -375.79539279 </i>
    <i name="e_0_energy">   -375.78347205 </i>
   </energy>
  </scstep>
  <scstep>
   <time name="diag">    0.09    0.09</time>
   <time name="diis">    0.85    0.86</time>
   <time name="orth">    0.01    0.01</time>
   <time name="total">    1.08    1.13</time>
   <energy>
    <i name="e_fr_energy">   -375.77770721 </i>
    <i name="e_wo_entrp">   -375.79549815 </i>
    <i name="e_0_energy">   -375.78363752 </i>
   </energy>
  </scstep>
  <scstep>
   <time name="diag">    0.08    0.08</time>
   <time name="diis">    0.88    0.89</time>
   <time name="orth">    0.01    0.01</time>
   <time name="total">    1.21    1.26</time>
   <energy>
    <i name="e_fr_energy">   -375.77772428 </i>
    <i name="e_wo_entrp">   -375.79549566 </i>
    <i name="e_0_energy">   -375.78364807 </i>
   </energy>
  </scstep>
  <scstep>
   <time name="diag">    0.08    0.08</time>
   <time name="diis">    0.83    0.83</time>
   <time name="orth">    0.01    0.01</time>
   <time name="total">    0.98    1.02</time>
   <energy>
    <i name="e_fr_energy">   -375.77782382 </i>
    <i name="e_wo_entrp">   -375.79561242 </i>
    <i name="e_0_energy">   -375.78375335 </i>
   </energy>
  </scstep>
  <scstep>
   <time name="diag">    0.08    0.08</time>
   <time name="diis">    0.76    0.77</time>
   <time name="orth">    0.01    0.01</time>
   <time name="total">    0.92    0.96</time>
   <energy>
    <i name="e_fr_energy">   -375.77785869 </i>
    <i name="e_wo_entrp">   -375.79567190 </i>
    <i name="e_0_energy">   -375.78379642 </i>
   </energy>
  </scstep>
  <scstep>
   <time name="diag">    0.08    0.08</time>
   <time name="diis">    0.65    0.65</time>
   <time name="orth">    0.01    0.01</time>
   <time name="total">    0.81    0.84</time>
   <energy>
    <i name="e_fr_energy">   -375.77788379 </i>
    <i name="e_wo_entrp">   -375.79566208 </i>
    <i name="e_0_energy">   -375.78380988 </i>
   </energy>
  </scstep>
  <scstep>
   <time name="diag">    0.08    0.08</time>
   <time name="diis">    0.56    0.56</time>
   <time name="orth">    0.01    0.01</time>
   <time name="total">    0.69    0.73</time>
   <energy>
    <i name="alphaZ">   1632.69084635 </i>
    <i name="ewald"> -19854.08736480 </i>
    <i name="hartreedc">  -6561.80279208 </i>
    <i name="XCdc">   -382.31036415 </i>
    <i name="pawpsdc">  34484.44351218 </i>
    <i name="pawaedc"> -32770.97768166 </i>
    <i name="eentropy">      0.01780541 </i>
    <i name="bandstr">  -2464.35462616 </i>
    <i name="atom">  25540.60277421 </i>
    <i name="e_fr_energy">   -375.77789069 </i>
    <i name="e_wo_entrp">   -375.79569610 </i>
    <i name="e_0_energy">   -375.78382583 </i>
   </energy>
  </scstep>
  <structure>
   <crystal>
    <varray name="basis" >
     <v>       6.79577866      -0.02453157      -0.01314214 </v>
     <v>      -0.03556333      10.10619037      -0.00558484 </v>
     <v>      -0.01942396      -0.00585455      10.18663886 </v>
    </varray>
    <i name="volume">    699.60088459 </i>
    <varray name="rec_basis" >
     <v>       0.14715259       0.00051798       0.00028089 </v>
     <v>       0.00035731       0.09895054       0.00005755 </v>
     <v>       0.00019004       0.00005492       0.09816820 </v>
    </varray>
   </crystal>
   <varray name="positions" >
    <v>       0.99785236       0.66836304       0.33899684 </v>
    <v>       0.24295170       0.84141513       0.83298911 </v>
    <v>       0.74928330       0.48883112       0.17499634 </v>
    <v>       0.01822142       0.33116291       0.99375362 </v>
    <v>       0.50738674       0.66354140       0.99441280 </v>
    <v>       0.25619906       0.16248528       0.17402361 </v>
    <v>       0.52282548       0.99330444       0.00559219 </v>
    <v>       0.25084906       0.84287115       0.49964582 </v>
    <v>       0.75233930       0.84018162       0.49998890 </v>
    <v>       0.25112549       0.50310198       0.17596736 </v>
    <v>       0.74676723       0.49566119       0.49506178 </v>
    <v>       0.74795584       0.84110833       0.16966772 </v>
    <v>       0.98044113       0.00050739       0.00752474 </v>
    <v>       0.77166445       0.50263084       0.82630700 </v>
    <v>       0.25420499       0.15798980       0.49346383 </v>
    <v>       0.25900671       0.14267560       0.83081866 </v>
    <v>       0.50384939       0.99334652       0.65679244 </v>
    <v>       0.49910511       0.33132262       0.34679761 </v>
    <v>       0.74630445       0.16327065       0.17343128 </v>
    <v>       0.74866749       0.16162366       0.49791638 </v>
    <v>       0.98843085       0.66926582      -0.00005322 </v>
    <v>       0.49892374       0.66455037       0.34283489 </v>
    <v>       0.75772777       0.84013205       0.83010107 </v>
    <v>       0.25054684       0.50017892       0.49055651 </v>
    <v>       0.50915829       0.99959537       0.33824310 </v>
    <v>       0.99414382       0.99804953       0.33529914 </v>
    <v>       0.99878682       0.00448064       0.65915903 </v>
    <v>       0.99492400       0.66678815       0.66050069 </v>
    <v>       0.00289400       0.33155541       0.34421112 </v>
    <v>       0.21866943       0.52470530       0.83332428 </v>
    <v>       0.25306297       0.83192321       0.16779167 </v>
    <v>       0.48720436       0.34006020       0.66534585 </v>
    <v>       0.01295100       0.33231026       0.66192459 </v>
    <v>       0.74061254       0.16138638       0.83041354 </v>
    <v>       0.50352236       0.66834278       0.66248330 </v>
    <v>       0.48143953       0.34129293       0.98972243 </v>
   </varray>
  </structure>
  <varray name="forces" >
   <v>      -0.00696434       0.03542997       0.02248811 </v>
   <v>      -0.03401375      -0.05665525      -0.00174667 </v>
   <v>      -0.02706747      -0.04890714       0.07011576 </v>
   <v>      -0.02142026      -0.06721511      -0.03253568 </v>
   <v>       0.04544266      -0.02445408      -0.04937070 </v>
   <v>      -0.04269666       0.00220849      -0.00196632 </v>
   <v>      -0.06340632       0.11987009      -0.08531236 </v>
   <v>      -0.05860484       0.00442932      -0.03303187 </v>
   <v>       0.02680620       0.02287763      -0.01186468 </v>
   <v>       0.05034651      -0.01709699       0.10320794 </v>
   <v>       0.07115908       0.01860117      -0.07134142 </v>
   <v>      -0.00700918      -0.02828744       0.04387388 </v>
   <v>       0.04230728       0.07379884      -0.05706008 </v>
   <v>       0.02450257       0.08225814      -0.01594418 </v>
   <v>      -0.05673719       0.02341563      -0.02334355 </v>
   <v>      -0.00442366       0.00308538       0.02361817 </v>
   <v>       0.01717154       0.08389785       0.09888682 </v>
   <v>      -0.04245472      -0.07082962      -0.01208097 </v>
   <v>       0.05643908      -0.00444875       0.02968062 </v>
   <v>       0.04120350       0.04331703      -0.02898086 </v>
   <v>       0.00529570      -0.00290246      -0.02026933 </v>
   <v>       0.00189738      -0.04185591       0.02267573 </v>
   <v>       0.03883003      -0.06440262       0.02695354 </v>
   <v>      -0.03382339      -0.01503075      -0.09288743 </v>
   <v>      -0.00982634       0.06684612      -0.01410236 </v>
   <v>       0.00080358      -0.01787391      -0.01234633 </v>
   <v>       0.01321150       0.06328219       0.05651503 </v>
   <v>      -0.01993677      -0.02991035      -0.00169629 </v>
   <v>       0.01806783       0.00017019       0.01261225 </v>
   <v>       0.00007415       0.05373221      -0.01062894 </v>
   <v>       0.04573947       0.03970431      -0.03050449 </v>
   <v>      -0.04408261      -0.07983090       0.13814392 </v>
   <v>      -0.00220859      -0.02891732       0.04148457 </v>
   <v>      -0.00452223      -0.03133590       0.00742171 </v>
   <v>      -0.00691279      -0.03213982       0.04905876 </v>
   <v>      -0.01318699      -0.07483024      -0.13972227 </v>
  </varray>
  <varray name="stress" >
   <v>      -1.70040714       0.45033890       0.09076450 </v>
   <v>       0.45033890      -0.85889133      -0.34350384 </v>
   <v>       0.09076456      -0.34350386      -1.81505692 </v>
  </varray>
  <energy>
   <i name="e_fr_energy">   -375.77789069 </i>
   <i name="e_wo_entrp">   -375.78382583 </i>
   <i name="e_0_energy">      0.01780541 </i>
  </energy>
  <time name="totalsc">   13.17   14.21</time>
 </calculation>
 <calculation>
  <scstep>
   <time name="dav">    1.03    1.10</time>
   <time name="total">    1.94    2.23</time>
   <energy>
    <i name="alphaZ">   1632.35069126 </i>
    <i name="ewald"> -19851.20910213 </i>
    <i name="hartreedc">  -6562.89557980 </i>
    <i name="XCdc">   -382.36258426 </i>
    <i name="pawpsdc">  34485.53806745 </i>
    <i name="pawaedc"> -32771.99457608 </i>
    <i name="eentropy">      0.01797817 </i>
    <i name="bandstr">  -2465.82573290 </i>
    <i name="atom">  25540.60277421 </i>
    <i name="e_fr_energy">   -375.77806407 </i>
    <i name="e_wo_entrp">   -375.79604224 </i>
    <i name="e_0_energy">   -375.78405680 </i>
   </energy>
  </scstep>
  <scstep>
   <time name="diag">    0.09    0.09</time>
   <time name="diis">    0.77    0.79</time>
   <time name="orth">    0.01    0.01</time>
   <time name="total">    0.94    0.99</time>
   <energy>
    <i name="e_fr_energy">   -375.77815838 </i>
    <i name="e_wo_entrp">   -375.79607236 </i>
    <i name="e_0_energy">   -375.78412971 </i>
   </energy>
  </scstep>
  <scstep>
   <time name="diag">    0.08    0.08</time>
   <time name="diis">    0.79    0.80</time>
   <time name="orth">    0.01    0.01</time>
   <time name="total">    0.95    1.03</time>
   <energy>
    <i name="e_fr_energy">   -375.77800807 </i>
    <i name="e_wo_entrp">   -375.79591065 </i>
    <i name="e_0_energy">   -375.78397560 </i>
   </energy>
  </scstep>
  <scstep>
   <time name="diag">    0.13    0.14</time>
   <time name="diis">    0.68    0.76</time>
   <time name="orth">    0.01    0.01</time>
   <time name="total">    0.90    1.02</time>
   <energy>
    <i name="e_fr_energy">   -375.77798281 </i>
    <i name="e_wo_entrp">   -375.79594136 </i>
    <i name="e_0_energy">   -375.78396899 </i>
   </energy>
  </scstep>
  <scstep>
   <time name="diag">    0.12    0.13</time>
   <time name="diis">    0.35    0.36</time>
   <time name="orth">    0.01    0.01</time>
   <time name="total">    0.52    0.58</time>
   <energy>
    <i name="alphaZ">   1632.35069126 </i>
    <i name="ewald"> -19851.20910213 </i>
    <i name="hartreedc">  -6563.98722575 </i>
    <i name="XCdc">   -382.31848620 </i>
    <i name="pawpsdc">  34477.41870129 </i>
    <i name="pawaedc"> -32763.75686408 </i>
    <i name="eentropy">      0.01793257 </i>
    <i name="bandstr">  -2464.89639464 </i>
    <i name="atom">  25540.60277421 </i>
    <i name="e_fr_energy">   -375.77797347 </i>
    <i name="e_wo_entrp">   -375.79590604 </i>
    <i name="e_0_energy">   -375.78395100 </i>
   </energy>
  </scstep>
  <structure>
   <crystal>
    <varray name="basis" >
     <v>       6.79609380      -0.02447352      -0.01299360 </v>
     <v>      -0.03547590      10.10700127      -0.00561937 </v>
     <v>      -0.01920077      -0.00588875      10.18747025 </v>
    </varray>
    <i name="volume">    699.74666993 </i>
    <varray name="rec_basis" >
     <v>       0.14714574       0.00051664       0.00027763 </v>
     <v>       0.00035641       0.09894260       0.00005786 </v>
     <v>       0.00018787       0.00005524       0.09816018 </v>
    </varray>
   </crystal>
   <varray name="positions" >
    <v>       0.99787309       0.66834457       0.33902894 </v>
    <v>       0.24293957       0.84141240       0.83298207 </v>
    <v>       0.74935696       0.48890149       0.17502459 </v>
    <v>       0.01822272       0.33115783       0.99375366 </v>
    <v>       0.50737850       0.66354849       0.99440791 </v>
    <v>       0.25618946       0.16248852       0.17403087 </v>
    <v>       0.52280951       0.99331226       0.00558135 </v>
    <v>       0.25073733       0.84275690       0.49956593 </v>
[...]
       <r>    7.0589    1.0000 </r>
       <r>    7.1053    1.0000 </r>
       <r>    7.1279    1.0000 </r>
       <r>    7.1867    1.0000 </r>
       <r>    7.2492    1.0001 </r>
       <r>    7.3050    1.0009 </r>
       <r>    7.3117    1.0011 </r>
       <r>    7.3438    1.0028 </r>
       <r>    7.3896    1.0085 </r>
       <r>    7.4285    1.0176 </r>
       <r>    7.4506    1.0242 </r>
       <r>    7.4590    1.0267 </r>
       <r>    7.4836    1.0333 </r>
       <r>    7.5183    1.0337 </r>
       <r>    7.5306    1.0290 </r>
       <r>    7.5740    0.9771 </r>
       <r>    7.5891    0.9421 </r>
       <r>    7.6141    0.8621 </r>
       <r>    7.6544    0.6793 </r>
       <r>    7.6694    0.5984 </r>
       <r>    7.7156    0.3420 </r>
       <r>    7.7679    0.1090 </r>
       <r>    7.8193   -0.0082 </r>
       <r>    7.8468   -0.0306 </r>
       <r>    7.8874   -0.0338 </r>
       <r>    7.9334   -0.0211 </r>
       <r>    7.9766   -0.0099 </r>
       <r>    8.0018   -0.0057 </r>
       <r>    8.0319   -0.0027 </r>
       <r>    8.0763   -0.0007 </r>
       <r>    8.1100   -0.0002 </r>
       <r>    8.1645   -0.0000 </r>
       <r>    8.2091   -0.0000 </r>
       <r>    8.2480   -0.0000 </r>
       <r>    8.2765   -0.0000 </r>
       <r>    8.4569   -0.0000 </r>
       <r>    8.5412   -0.0000 </r>
       <r>    8.7240   -0.0000 </r>
       <r>    8.8546   -0.0000 </r>
       <r>    8.8970   -0.0000 </r>
       <r>    9.6235   -0.0000 </r>
       <r>    9.6706   -0.0000 </r>
       <r>    9.7099   -0.0000 </r>
       <r>    9.7489   -0.0000 </r>
       <r>    9.8248   -0.0000 </r>
       <r>    9.8891   -0.0000 </r>
       <r>    9.9132   -0.0000 </r>
       <r>   10.0488   -0.0000 </r>
       <r>   10.1542   -0.0000 </r>
      </set>
     </set>
    </set>
   </array>
  </eigenvalues>
  <separator name="orbital magnetization" >
   <v name="MAGDIPOLOUT">      0.00000000      0.00000000      0.00000000</v>
  </separator>
  <dos>
   <i name="efermi">      7.68699385 </i>
   <total>
    <array>
     <dimension dim="1">gridpoints</dimension>
     <dimension dim="2">spin</dimension>
     <field>energy</field>
     <field>total</field>
     <field>integrated</field>
     <set>
      <set comment="spin 1">
       <r>   -49.3901     0.0000     0.0000 </r>
       <r>   -49.1822     0.0000     0.0000 </r>
       <r>   -48.9742     0.0000     0.0000 </r>
       <r>   -48.7663     0.0000     0.0000 </r>
       <r>   -48.5584     0.0000     0.0000 </r>
       <r>   -48.3504     0.0000     0.0000 </r>
       <r>   -48.1425     0.0000     0.0000 </r>
       <r>   -47.9346    -0.0000    -0.0000 </r>
       <r>   -47.7266    -0.0000    -0.0000 </r>
       <r>   -47.5187    -0.0000    -0.0000 </r>
       <r>   -47.3108    -0.0000    -0.0000 </r>
       <r>   -47.1028    -0.0000    -0.0000 </r>
       <r>   -46.8949    -0.0479    -0.0100 </r>
       <r>   -46.6870    -1.6027    -0.3432 </r>
       <r>   -46.4790    33.6726     6.6584 </r>
       <r>   -46.2711    64.3316    20.0350 </r>
       <r>   -46.0632     0.0851    20.0527 </r>
       <r>   -45.8552    -0.2533    20.0000 </r>
       <r>   -45.6473    -0.0002    20.0000 </r>
       <r>   -45.4394    -0.0000    20.0000 </r>
       <r>   -45.2315    -0.0000    20.0000 </r>
       <r>   -45.0235     0.0000    20.0000 </r>
       <r>   -44.8156     0.0000    20.0000 </r>
       <r>   -44.6077     0.0000    20.0000 </r>
       <r>   -44.3997     0.0000    20.0000 </r>
       <r>   -44.1918     0.0000    20.0000 </r>
       <r>   -43.9839     0.0000    20.0000 </r>
       <r>   -43.7759     0.0000    20.0000 </r>
       <r>   -43.5680     0.0000    20.0000 </r>
       <r>   -43.3601     0.0000    20.0000 </r>
       <r>   -43.1521     0.0000    20.0000 </r>
       <r>   -42.9442     0.0000    20.0000 </r>
       <r>   -42.7363     0.0000    20.0000 </r>
       <r>   -42.5283     0.0000    20.0000 </r>
       <r>   -42.3204     0.0000    20.0000 </r>
       <r>   -42.1125     0.0000    20.0000 </r>
       <r>   -41.9045     0.0000    20.0000 </r>
       <r>   -41.6966    -0.0000    20.0000 </r>
       <r>   -41.4887    -0.0000    20.0000 </r>
       <r>   -41.2807    -0.0000    20.0000 </r>
       <r>   -41.0728    -0.0000    20.0000 </r>
       <r>   -40.8649    -0.0025    19.9995 </r>
       <r>   -40.6569    -0.5852    19.8778 </r>
       <r>   -40.4490     7.2251    21.3801 </r>
       <r>   -40.2411    44.8066    30.6969 </r>
       <r>   -40.0331     6.8255    32.1161 </r>
       <r>   -39.8252    -0.5551    32.0007 </r>
       <r>   -39.6173    -0.0033    32.0000 </r>
       <r>   -39.4093    -0.0000    32.0000 </r>
       <r>   -39.2014    -0.0000    32.0000 </r>
       <r>   -38.9935     0.0000    32.0000 </r>
       <r>   -38.7855     0.0000    32.0000 </r>
       <r>   -38.5776     0.0000    32.0000 </r>
       <r>   -38.3697     0.0000    32.0000 </r>
       <r>   -38.1617     0.0000    32.0000 </r>
       <r>   -37.9538     0.0000    32.0000 </r>
       <r>   -37.7459     0.0000    32.0000 </r>
       <r>   -37.5380     0.0000    32.0000 </r>
       <r>   -37.3300     0.0000    32.0000 </r>
       <r>   -37.1221     0.0000    32.0000 </r>
       <r>   -36.9142     0.0000    32.0000 </r>
       <r>   -36.7062     0.0000    32.0000 </r>
       <r>   -36.4983     0.0000    32.0000 </r>
       <r>   -36.2904     0.0000    32.0000 </r>
       <r>   -36.0824     0.0000    32.0000 </r>
       <r>   -35.8745     0.0000    32.0000 </r>
       <r>   -35.6666     0.0000    32.0000 </r>
       <r>   -35.4586     0.0000    32.0000 </r>
       <r>   -35.2507     0.0000    32.0000 </r>
       <r>   -35.0428     0.0000    32.0000 </r>
       <r>   -34.8348     0.0000    32.0000 </r>
       <r>   -34.6269     0.0000    32.0000 </r>
       <r>   -34.4190     0.0000    32.0000 </r>
       <r>   -34.2110     0.0000    32.0000 </r>
       <r>   -34.0031     0.0000    32.0000 </r>
       <r>   -33.7952     0.0000    32.0000 </r>
       <r>   -33.5872     0.0000    32.0000 </r>
       <r>   -33.3793     0.0000    32.0000 </r>
       <r>   -33.1714     0.0000    32.0000 </r>
       <r>   -32.9634     0.0000    32.0000 </r>
       <r>   -32.7555     0.0000    32.0000 </r>
       <r>   -32.5476     0.0000    32.0000 </r>
       <r>   -32.3396     0.0000    32.0000 </r>
       <r>   -32.1317     0.0000    32.0000 </r>
       <r>   -31.9238     0.0000    32.0000 </r>
       <r>   -31.7158     0.0000    32.0000 </r>
       <r>   -31.5079     0.0000    32.0000 </r>
       <r>   -31.3000     0.0000    32.0000 </r>
       <r>   -31.0920     0.0000    32.0000 </r>
       <r>   -30.8841     0.0000    32.0000 </r>
       <r>   -30.6762     0.0000    32.0000 </r>
       <r>   -30.4682     0.0000    32.0000 </r>
       <r>   -30.2603     0.0000    32.0000 </r>
       <r>   -30.0524     0.0000    32.0000 </r>
       <r>   -29.8445     0.0000    32.0000 </r>
       <r>   -29.6365     0.0000    32.0000 </r>
       <r>   -29.4286     0.0000    32.0000 </r>
       <r>   -29.2207     0.0000    32.0000 </r>
       <r>   -29.0127     0.0000    32.0000 </r>
       <r>   -28.8048     0.0000    32.0000 </r>
       <r>   -28.5969     0.0000    32.0000 </r>
       <r>   -28.3889     0.0000    32.0000 </r>
       <r>   -28.1810     0.0000    32.0000 </r>
       <r>   -27.9731     0.0000    32.0000 </r>
       <r>   -27.7651     0.0000    32.0000 </r>
       <r>   -27.5572     0.0000    32.0000 </r>
       <r>   -27.3493     0.0000    32.0000 </r>
       <r>   -27.1413     0.0000    32.0000 </r>
       <r>   -26.9334     0.0000    32.0000 </r>
       <r>   -26.7255     0.0000    32.0000 </r>
       <r>   -26.5175     0.0000    32.0000 </r>
       <r>   -26.3096     0.0000    32.0000 </r>
       <r>   -26.1017     0.0000    32.0000 </r>
       <r>   -25.8937     0.0000    32.0000 </r>
       <r>   -25.6858     0.0000    32.0000 </r>
       <r>   -25.4779     0.0000    32.0000 </r>
       <r>   -25.2699     0.0000    32.0000 </r>
       <r>   -25.0620     0.0000    32.0000 </r>
       <r>   -24.8541     0.0000    32.0000 </r>
       <r>   -24.6461     0.0000    32.0000 </r>
       <r>   -24.4382     0.0000    32.0000 </r>
       <r>   -24.2303    -0.0000    32.0000 </r>
       <r>   -24.0223    -0.0000    32.0000 </r>
       <r>   -23.8144    -0.0000    32.0000 </r>
       <r>   -23.6065    -0.0000    32.0000 </r>
       <r>   -23.3985    -0.0059    31.9988 </r>
       <r>   -23.1906    -0.6277    31.8683 </r>
       <r>   -22.9827     8.3818    33.6111 </r>
       <r>   -22.7747    40.2183    41.9738 </r>
       <r>   -22.5668    93.6499    61.4466 </r>
       <r>   -22.3589   108.0086    83.9051 </r>
       <r>   -22.1510    38.2545    91.8595 </r>
       <r>   -21.9430     0.8975    92.0461 </r>
       <r>   -21.7351    -0.2213    92.0001 </r>
       <r>   -21.5272    -0.0003    92.0000 </r>
       <r>   -21.3192    -0.0000    92.0000 </r>
       <r>   -21.1113    -0.0000    92.0000 </r>
       <r>   -20.9034     0.0000    92.0000 </r>
       <r>   -20.6954     0.0000    92.0000 </r>
       <r>   -20.4875     0.0000    92.0000 </r>
       <r>   -20.2796     0.0000    92.0000 </r>
       <r>   -20.0716    -0.0000    92.0000 </r>
       <r>   -19.8637    -0.0000    92.0000 </r>
       <r>   -19.6558    -0.0000    92.0000 </r>
       <r>   -19.4478    -0.0000    92.0000 </r>
       <r>   -19.2399    -0.0016    91.9997 </r>
       <r>   -19.0320    -0.4696    91.9020 </r>
       <r>   -18.8240     5.8517    93.1188 </r>
       <r>   -18.6161    29.6435    99.2826 </r>
       <r>   -18.4082    72.0034   114.2545 </r>
       <r>   -18.2002    57.0161   126.1099 </r>
       <r>   -17.9923     9.8799   128.1643 </r>
       <r>   -17.7844    -0.7843   128.0012 </r>
       <r>   -17.5764    -0.0059   128.0000 </r>
       <r>   -17.3685    -0.0000   128.0000 </r>
       <r>   -17.1606    -0.0000   128.0000 </r>
       <r>   -16.9526     0.0000   128.0000 </r>
       <r>   -16.7447     0.0000   128.0000 </r>
       <r>   -16.5368     0.0000   128.0000 </r>
       <r>   -16.3288     0.0000   128.0000 </r>
       <r>   -16.1209     0.0000   128.0000 </r>
       <r>   -15.9130     0.0000   128.0000 </r>
       <r>   -15.7050     0.0000   128.0000 </r>
       <r>   -15.4971     0.0000   128.0000 </r>
       <r>   -15.2892     0.0000   128.0000 </r>
       <r>   -15.0813     0.0000   128.0000 </r>
       <r>   -14.8733     0.0000   128.0000 </r>
       <r>   -14.6654     0.0000   128.0000 </r>
       <r>   -14.4575     0.0000   128.0000 </r>
       <r>   -14.2495     0.0000   128.0000 </r>
       <r>   -14.0416     0.0000   128.0000 </r>
       <r>   -13.8337     0.0000   128.0000 </r>
       <r>   -13.6257     0.0000   128.0000 </r>
       <r>   -13.4178     0.0000   128.0000 </r>
       <r>   -13.2099     0.0000   128.0000 </r>
       <r>   -13.0019     0.0000   128.0000 </r>
       <r>   -12.7940     0.0000   128.0000 </r>
       <r>   -12.5861     0.0000   128.0000 </r>
       <r>   -12.3781     0.0000   128.0000 </r>
       <r>   -12.1702     0.0000   128.0000 </r>
       <r>   -11.9623     0.0000   128.0000 </r>
       <r>   -11.7543     0.0000   128.0000 </r>
       <r>   -11.5464     0.0000   128.0000 </r>
       <r>   -11.3385     0.0000   128.0000 </r>
       <r>   -11.1305     0.0000   128.0000 </r>
       <r>   -10.9226     0.0000   128.0000 </r>
       <r>   -10.7147     0.0000   128.0000 </r>
       <r>   -10.5067     0.0000   128.0000 </r>
       <r>   -10.2988     0.0000   128.0000 </r>
       <r>   -10.0909     0.0000   128.0000 </r>
       <r>    -9.8829     0.0000   128.0000 </r>
       <r>    -9.6750     0.0000   128.0000 </r>
       <r>    -9.4671     0.0000   128.0000 </r>
       <r>    -9.2591     0.0000   128.0000 </r>
       <r>    -9.0512     0.0000   128.0000 </r>
       <r>    -8.8433     0.0000   128.0000 </r>
       <r>    -8.6353     0.0000   128.0000 </r>
       <r>    -8.4274     0.0000   128.0000 </r>
       <r>    -8.2195     0.0000   128.0000 </r>
       <r>    -8.0115     0.0000   128.0000 </r>
       <r>    -7.8036     0.0000   128.0000 </r>
       <r>    -7.5957     0.0000   128.0000 </r>
       <r>    -7.3878     0.0000   128.0000 </r>
       <r>    -7.1798     0.0000   128.0000 </r>
       <r>    -6.9719     0.0000   128.0000 </r>
       <r>    -6.7640     0.0000   128.0000 </r>
       <r>    -6.5560     0.0000   128.0000 </r>
       <r>    -6.3481     0.0000   128.0000 </r>
       <r>    -6.1402     0.0000   128.0000 </r>
       <r>    -5.9322     0.0000   128.0000 </r>
       <r>    -5.7243     0.0000   128.0000 </r>
       <r>    -5.5164     0.0000   128.0000 </r>
       <r>    -5.3084     0.0000   128.0000 </r>
       <r>    -5.1005     0.0000   128.0000 </r>
       <r>    -4.8926     0.0000   128.0000 </r>
       <r>    -4.6846     0.0000   128.0000 </r>
       <r>    -4.4767     0.0000   128.0000 </r>
       <r>    -4.2688     0.0000   128.0000 </r>
       <r>    -4.0608     0.0000   128.0000 </r>
       <r>    -3.8529     0.0000   128.0000 </r>
       <r>    -3.6450     0.0000   128.0000 </r>
       <r>    -3.4370     0.0000   128.0000 </r>
       <r>    -3.2291     0.0000   128.0000 </r>
       <r>    -3.0212     0.0000   128.0000 </r>
       <r>    -2.8132     0.0000   128.0000 </r>
       <r>    -2.6053     0.0000   128.0000 </r>
       <r>    -2.3974     0.0000   128.0000 </r>
       <r>    -2.1894     0.0000   128.0000 </r>
       <r>    -1.9815     0.0000   128.0000 </r>
       <r>    -1.7736     0.0000   128.0000 </r>
       <r>    -1.5656     0.0000   128.0000 </r>
       <r>    -1.3577     0.0000   128.0000 </r>
       <r>    -1.1498     0.0000   128.0000 </r>
       <r>    -0.9418     0.0000   128.0000 </r>
       <r>    -0.7339     0.0000   128.0000 </r>
       <r>    -0.5260    -0.0000   128.0000 </r>
       <r>    -0.3180    -0.0000   128.0000 </r>
       <r>    -0.1101    -0.0000   128.0000 </r>
       <r>     0.0978    -0.0000   128.0000 </r>
       <r>     0.3057    -0.0000   128.0000 </r>
       <r>     0.5137    -0.0062   127.9987 </r>
       <r>     0.7216     0.0695   128.0132 </r>
       <r>     0.9295     0.4962   128.1163 </r>
       <r>     1.1375     1.3823   128.4038 </r>
       <r>     1.3454     1.7126   128.7599 </r>
       <r>     1.5533     2.3578   129.2501 </r>
       <r>     1.7613     3.9432   130.0701 </r>
       <r>     1.9692     2.7543   130.6428 </r>
       <r>     2.1771     2.6196   131.1875 </r>
       <r>     2.3851     4.6775   132.1601 </r>
       <r>     2.5930     3.5474   132.8977 </r>
       <r>     2.8009     3.6447   133.6555 </r>
       <r>     3.0089     8.8264   135.4908 </r>
       <r>     3.2168     8.7418   137.3085 </r>
       <r>     3.4247     6.4278   138.6451 </r>
       <r>     3.6327     9.2209   140.5624 </r>
       <r>     3.8406    13.3104   143.3301 </r>
       <r>     4.0485    19.4575   147.3759 </r>
       <r>     4.2565    21.4903   151.8445 </r>
       <r>     4.4644    25.2563   157.0961 </r>
       <r>     4.6723    30.7319   163.4862 </r>
       <r>     4.8803    34.7590   170.7137 </r>
       <r>     5.0882    39.4231   178.9111 </r>
       <r>     5.2961    38.9238   187.0046 </r>
       <r>     5.5041    36.5014   194.5944 </r>
       <r>     5.7120    33.0510   201.4668 </r>
       <r>     5.9199    28.4023   207.3726 </r>
       <r>     6.1279    11.1507   209.6912 </r>
       <r>     6.3358    47.6593   219.6011 </r>
       <r>     6.5437    71.4555   234.4590 </r>
       <r>     6.7517    57.2710   246.3675 </r>
       <r>     6.9596    50.1824   256.8020 </r>
       <r>     7.1675    48.3491   266.8554 </r>
       <r>     7.3755    56.7279   278.6510 </r>
       <r>     7.5834    58.2041   290.7535 </r>
       <r>     7.7913    49.4815   301.0423 </r>
       <r>     7.9992    47.3459   310.8870 </r>
       <r>     8.2072    45.2663   320.2994 </r>
       <r>     8.4151    32.0768   326.9692 </r>
       <r>     8.6230    25.6406   332.3007 </r>
       <r>     8.8310    16.0321   335.6343 </r>
       <r>     9.0389    14.7016   338.6912 </r>
       <r>     9.2468    10.2671   340.8261 </r>
       <r>     9.4548    20.3206   345.0514 </r>
       <r>     9.6627    27.8359   350.8394 </r>
       <r>     9.8706    24.7514   355.9860 </r>
       <r>    10.0786    15.2412   359.1551 </r>
       <r>    10.2865     4.3145   360.0522 </r>
       <r>    10.4944    -0.2452   360.0013 </r>
       <r>    10.7024    -0.0060   360.0000 </r>
       <r>    10.9103    -0.0000   360.0000 </r>
       <r>    11.1182    -0.0000   360.0000 </r>
       <r>    11.3262     0.0000   360.0000 </r>
       <r>    11.5341     0.0000   360.0000 </r>
       <r>    11.7420     0.0000   360.0000 </r>
       <r>    11.9500     0.0000   360.0000 </r>
       <r>    12.1579     0.0000   360.0000 </r>
       <r>    12.3658     0.0000   360.0000 </r>
       <r>    12.5738     0.0000   360.0000 </r>
       <r>    12.7817     0.0000   360.0000 </r>
       <r>    12.9896     0.0000   360.0000 </r>
      </set>
     </set>
    </array>
   </total>
  </dos>
 </calculation>
 <structure name="finalpos" >
  <crystal>
   <varray name="basis" >
    <v>       6.79027215      -0.01367462      -0.01369882 </v>
    <v>      -0.01931680      10.13010750      -0.01195591 </v>
    <v>      -0.02032884      -0.01235056      10.15892834 </v>
   </varray>
   <i name="volume">    698.78742931 </i>
   <varray name="rec_basis" >
    <v>       0.14727066       0.00028117       0.00029504 </v>
    <v>       0.00019904       0.09871616       0.00012041 </v>
    <v>       0.00019882       0.00011656       0.09843612 </v>
   </varray>
  </crystal>
  <varray name="positions" >
   <v>       0.99752712       0.66893941       0.33671981 </v>
   <v>       0.24278762       0.84006511       0.83292630 </v>
   <v>       0.74564064       0.48592805       0.17709448 </v>
   <v>       0.01533102       0.33175061       0.99266363 </v>
   <v>       0.51062796       0.66266051       0.99456375 </v>
   <v>       0.25244435       0.16380057       0.17318983 </v>
   <v>       0.51990058       0.99677879       0.00365045 </v>
   <v>       0.24918726       0.84350989       0.49894590 </v>
   <v>       0.75149418       0.84107045       0.49913305 </v>
   <v>       0.25655243       0.49973409       0.17743475 </v>
   <v>       0.74788273       0.49484529       0.49446217 </v>
   <v>       0.74440553       0.84229674       0.16962701 </v>
   <v>       0.98213420       0.00035353       0.00717905 </v>
   <v>       0.77314952       0.50816457       0.82463705 </v>
   <v>       0.25215074       0.15875193       0.49456767 </v>
   <v>       0.25563851       0.14267941       0.83169801 </v>
   <v>       0.50249317       0.99486269       0.65805848 </v>
   <v>       0.49782001       0.32951508       0.34786294 </v>
   <v>       0.74815565       0.16305200       0.17302080 </v>
   <v>       0.74970437       0.16227922       0.49900594 </v>
   <v>       0.98920332       0.66911777       0.00110774 </v>
   <v>       0.49932276       0.66438216       0.34319907 </v>
   <v>       0.75763181       0.83951347       0.83045840 </v>
   <v>       0.24975226       0.49878331       0.48941906 </v>
   <v>       0.50776144       0.00140076       0.33847179 </v>
   <v>       0.99346888       0.99729732       0.33491214 </v>
   <v>       0.99912820       0.00389057       0.65933242 </v>
   <v>       0.99545427       0.66672991       0.65945721 </v>
   <v>       0.00319357       0.33109477       0.34482377 </v>
   <v>       0.22062778       0.52589009       0.83450114 </v>
   <v>       0.25760490       0.83338665       0.16747852 </v>
   <v>       0.48768591       0.33903483       0.66826257 </v>
   <v>       0.01255224       0.33351754       0.66387499 </v>
   <v>       0.74497749       0.15765340       0.82960037 </v>
   <v>       0.50292467       0.66841318       0.66160713 </v>
   <v>       0.48368190       0.33886828       0.98705861 </v>
  </varray>
 </structure>
</modeling>
