<?xml version="1.0" encoding="ISO-8859-1"?>
<modeling>
 <generator>
  <i name="program" type="string">vasp </i>
  <i name="version" type="string">5.4.1  </i>
  <i name="subversion" type="string">05Feb16 (build Jan 29 2020 16:04:39) complex                          parallel </i>
  <i name="platform" type="string">IFC91_ompi </i>
  <i name="date" type="string">2020 06 15 </i>
  <i name="time" type="string">12:52:27 </i>
 </generator>
 <incar>
  <i type="string" name="SYSTEM"> automatically generated by mexm</i>
  <i type="int" name="ISTART">     0</i>
  <i type="string" name="PREC">accurate               ! avoid wrap aro</i>
  <i type="string" name="ALGO"> Fast                   ! blocked Davids</i>
  <i type="int" name="ISPIN">     1</i>
  <i type="int" name="ICHARG">     2</i>
  <i type="int" name="NELM">    70</i>
  <i type="int" name="IBRION">     2</i>
  <i name="EDIFF">      0.00001000</i>
  <i name="EDIFFG">     -0.01000000</i>
  <i type="int" name="NSW">   300</i>
  <i type="int" name="ISIF">     3</i>
  <i type="int" name="ISYM">     1</i>
  <i name="ENCUT">    300.00000000</i>
  <i name="POTIM">      0.15000000</i>
  <i type="string" name="LREAL"> Auto                  ! unpublished met</i>
  <i type="int" name="ISMEAR">     1</i>
  <i name="SIGMA">      0.15000000</i>
  <i type="logical" name="LWAVE"> F  </i>
  <i type="logical" name="LCHARG"> F  </i>
  <i type="logical" name="LVTOT"> F  </i>
  <v type="int" name="KPOINT_BSE">    -1     0     0     0</v>
  <i type="int" name="NELM">    70</i>
 </incar>
 <kpoints>
  <generation param="Gamma">
   <v type="int" name="divisions">       3        3        3 </v>
   <v name="usershift">      0.00000000       0.00000000       0.00000000 </v>
   <v name="genvec1">      0.33333333      -0.00000000       0.00000000 </v>
   <v name="genvec2">      0.00000000       0.33333333      -0.00000000 </v>
   <v name="genvec3">      0.00000000       0.00000000       0.33333333 </v>
   <v name="shift">      0.00000000       0.00000000       0.00000000 </v>
  </generation>
  <varray name="kpointlist" >
   <v>       0.00000000       0.00000000       0.00000000 </v>
   <v>       0.33333333       0.00000000       0.00000000 </v>
   <v>       0.00000000       0.33333333       0.00000000 </v>
   <v>       0.33333333       0.33333333       0.00000000 </v>
   <v>      -0.33333333       0.33333333       0.00000000 </v>
   <v>      -0.00000000      -0.00000000       0.33333333 </v>
   <v>       0.33333333       0.00000000       0.33333333 </v>
   <v>      -0.33333333      -0.00000000       0.33333333 </v>
   <v>       0.00000000       0.33333333       0.33333333 </v>
   <v>       0.33333333       0.33333333       0.33333333 </v>
   <v>      -0.33333333       0.33333333       0.33333333 </v>
   <v>       0.00000000      -0.33333333       0.33333333 </v>
   <v>       0.33333333      -0.33333333       0.33333333 </v>
   <v>      -0.33333333      -0.33333333       0.33333333 </v>
  </varray>
  <varray name="weights" >
   <v>       0.03703704 </v>
   <v>       0.07407407 </v>
   <v>       0.07407407 </v>
   <v>       0.07407407 </v>
   <v>       0.07407407 </v>
   <v>       0.07407407 </v>
   <v>       0.07407407 </v>
   <v>       0.07407407 </v>
   <v>       0.07407407 </v>
   <v>       0.07407407 </v>
   <v>       0.07407407 </v>
   <v>       0.07407407 </v>
   <v>       0.07407407 </v>
   <v>       0.07407407 </v>
  </varray>
 </kpoints>
 <parameters>
  <separator name="general" >
   <i type="string" name="SYSTEM">automatically generated by mexm</i>
   <i type="logical" name="LCOMPAT"> F  </i>
  </separator>
  <separator name="electronic" >
   <i type="string" name="PREC">accura</i>
   <i name="ENMAX">    300.00000000</i>
   <i name="ENAUG">    461.25700000</i>
   <i name="EDIFF">      0.00001000</i>
   <i type="int" name="IALGO">    68</i>
   <i type="int" name="IWAVPR">    11</i>
   <i type="int" name="NBANDS">   168</i>
   <i name="NELECT">    281.00000000</i>
   <i type="int" name="TURBO">     0</i>
   <i type="int" name="IRESTART">     0</i>
   <i type="int" name="NREBOOT">     0</i>
   <i type="int" name="NMIN">     0</i>
   <i name="EREF">      0.00000000</i>
   <separator name="electronic smearing" >
    <i type="int" name="ISMEAR">     1</i>
    <i name="SIGMA">      0.15000000</i>
    <i name="KSPACING">      0.50000000</i>
    <i type="logical" name="KGAMMA"> T  </i>
   </separator>
   <separator name="electronic projectors" >
    <i type="logical" name="LREAL"> T  </i>
    <v name="ROPT">     -0.00025000     -0.00025000     -0.00025000     -0.00025000</v>
    <i type="int" name="LMAXPAW">  -100</i>
    <i type="int" name="LMAXMIX">     2</i>
    <i type="logical" name="NLSPLINE"> F  </i>
   </separator>
   <separator name="electronic startup" >
    <i type="int" name="ISTART">     0</i>
    <i type="int" name="ICHARG">     2</i>
    <i type="int" name="INIWAV">     1</i>
   </separator>
   <separator name="electronic spin" >
    <i type="int" name="ISPIN">     1</i>
    <i type="logical" name="LNONCOLLINEAR"> F  </i>
    <v name="MAGMOM">      1.00000000      1.00000000      1.00000000      1.00000000      1.00000000      1.00000000      1.00000000      1.00000000      1.00000000      1.00000000      1.00000000      1.00000000      1.00000000      1.00000000      1.00000000      1.00000000      1.00000000      1.00000000      1.00000000      1.00000000
      1.00000000      1.00000000      1.00000000      1.00000000      1.00000000      1.00000000      1.00000000      1.00000000      1.00000000      1.00000000      1.00000000      1.00000000      1.00000000      1.00000000      1.00000000      1.00000000</v>
    <i name="NUPDOWN">     -1.00000000</i>
    <i type="logical" name="LSORBIT"> F  </i>
    <v name="SAXIS">      0.00000000      0.00000000      1.00000000</v>
    <i type="logical" name="LSPIRAL"> F  </i>
    <v name="QSPIRAL">      0.00000000      0.00000000      0.00000000</v>
    <i type="logical" name="LZEROZ"> F  </i>
   </separator>
   <separator name="electronic exchange-correlation" >
    <i type="logical" name="LASPH"> F  </i>
    <i type="logical" name="LMETAGGA"> F  </i>
   </separator>
   <separator name="electronic convergence" >
    <i type="int" name="NELM">    70</i>
    <i type="int" name="NELMDL">    -5</i>
    <i type="int" name="NELMIN">     2</i>
    <i name="ENINI">    300.00000000</i>
    <separator name="electronic convergence detail" >
     <i type="logical" name="LDIAG"> T  </i>
     <i type="logical" name="LSUBROT"> F  </i>
     <i name="WEIMIN">      0.00100000</i>
     <i name="EBREAK">      0.00000001</i>
     <i name="DEPER">      0.30000000</i>
     <i type="int" name="NRMM">     4</i>
     <i name="TIME">      0.40000000</i>
    </separator>
   </separator>
   <separator name="electronic mixer" >
    <i name="AMIX">      0.40000000</i>
    <i name="BMIX">      1.00000000</i>
    <i name="AMIN">      0.10000000</i>
    <i name="AMIX_MAG">      1.60000000</i>
    <i name="BMIX_MAG">      1.00000000</i>
    <separator name="electronic mixer details" >
     <i type="int" name="IMIX">     4</i>
     <i type="logical" name="MIXFIRST"> F  </i>
     <i type="int" name="MAXMIX">   -45</i>
     <i name="WC">    100.00000000</i>
     <i type="int" name="INIMIX">     1</i>
     <i type="int" name="MIXPRE">     1</i>
     <i type="int" name="MREMOVE">     5</i>
    </separator>
   </separator>
   <separator name="electronic dipolcorrection" >
    <i type="logical" name="LDIPOL"> F  </i>
    <i type="logical" name="LMONO"> F  </i>
    <i type="int" name="IDIPOL">     0</i>
    <i name="EPSILON">      1.00000000</i>
    <v name="DIPOL">   -100.00000000   -100.00000000   -100.00000000</v>
    <i name="EFIELD">      0.00000000</i>
   </separator>
  </separator>
  <separator name="grids" >
   <i type="int" name="NGX">    40</i>
   <i type="int" name="NGY">    60</i>
   <i type="int" name="NGZ">    60</i>
   <i type="int" name="NGXF">    80</i>
   <i type="int" name="NGYF">   120</i>
   <i type="int" name="NGZF">   120</i>
   <i type="logical" name="ADDGRID"> F  </i>
  </separator>
  <separator name="ionic" >
   <i type="int" name="NSW">   300</i>
   <i type="int" name="IBRION">     2</i>
   <i type="int" name="ISIF">     3</i>
   <i name="PSTRESS">      0.00000000</i>
   <i name="EDIFFG">     -0.01000000</i>
   <i type="int" name="NFREE">     1</i>
   <i name="POTIM">      0.15000000</i>
   <i name="SMASS">     -3.00000000</i>
   <i name="SCALEE">      1.00000000</i>
  </separator>
  <separator name="ionic md" >
   <i name="TEBEG">      0.00010000</i>
   <i name="TEEND">      0.00010000</i>
   <i type="int" name="NBLOCK">     1</i>
   <i type="int" name="KBLOCK">   300</i>
   <i type="int" name="NPACO">   256</i>
   <i name="APACO">     16.00000000</i>
  </separator>
  <separator name="symmetry" >
   <i type="int" name="ISYM">     1</i>
   <i name="SYMPREC">      0.00001000</i>
  </separator>
  <separator name="dos" >
   <i type="logical" name="LORBIT"> F  </i>
   <v name="RWIGS">     -1.00000000     -1.00000000     -1.00000000     -1.00000000</v>
   <i type="int" name="NEDOS">   301</i>
   <i name="EMIN">     10.00000000</i>
   <i name="EMAX">    -10.00000000</i>
   <i name="EFERMI">      0.00000000</i>
  </separator>
  <separator name="writing" >
   <i type="int" name="NWRITE">     2</i>
   <i type="logical" name="LWAVE"> F  </i>
   <i type="logical" name="LCHARG"> F  </i>
   <i type="logical" name="LPARD"> F  </i>
   <i type="logical" name="LVTOT"> F  </i>
   <i type="logical" name="LVHAR"> F  </i>
   <i type="logical" name="LELF"> F  </i>
   <i type="logical" name="LOPTICS"> F  </i>
   <v name="STM">      0.00000000      0.00000000      0.00000000      0.00000000      0.00000000      0.00000000      0.00000000</v>
  </separator>
  <separator name="performance" >
   <i type="int" name="NPAR">     4</i>
   <i type="int" name="NSIM">     4</i>
   <i type="int" name="NBLK">    -1</i>
   <i type="logical" name="LPLANE"> T  </i>
   <i type="logical" name="LSCALAPACK"> T  </i>
   <i type="logical" name="LSCAAWARE"> F  </i>
   <i type="logical" name="LSCALU"> F  </i>
   <i type="logical" name="LASYNC"> F  </i>
   <i type="logical" name="LORBITALREAL"> F  </i>
  </separator>
  <separator name="miscellaneous" >
   <i type="int" name="IDIOT">     3</i>
   <i type="logical" name="LMUSIC"> F  </i>
   <v name="POMASS">    178.49000000     92.91000000    180.94800000     91.22400000</v>
   <v name="DARWINR">      0.00000000      0.00000000      0.00000000      0.00000000</v>
   <v name="DARWINV">      1.00000000      1.00000000      1.00000000      1.00000000</v>
   <i type="logical" name="LCORR"> T  </i>
  </separator>
  <i type="logical" name="GGA_COMPAT"> T  </i>
  <i type="logical" name="LBERRY"> F  </i>
  <i type="int" name="ICORELEVEL">     0</i>
  <i type="logical" name="LDAU"> F  </i>
  <i type="int" name="I_CONSTRAINED_M">     0</i>
  <separator name="electronic exchange-correlation" >
   <i type="string" name="GGA">--</i>
   <i type="int" name="VOSKOWN">     0</i>
   <i type="logical" name="LHFCALC"> F  </i>
   <i type="string" name="PRECFOCK"></i>
   <i type="logical" name="LSYMGRAD"> F  </i>
   <i type="logical" name="LHFONE"> F  </i>
   <i type="logical" name="LRHFCALC"> F  </i>
   <i type="logical" name="LTHOMAS"> F  </i>
   <i type="logical" name="LMODELHF"> F  </i>
   <i name="ENCUT4O">     -1.00000000</i>
   <i type="int" name="EXXOEP">     0</i>
   <i type="int" name="FOURORBIT">     0</i>
   <i name="AEXX">      0.00000000</i>
   <i name="HFALPHA">      0.00000000</i>
   <i name="MCALPHA">      0.00000000</i>
   <i name="ALDAX">      1.00000000</i>
   <i name="AGGAX">      1.00000000</i>
   <i name="ALDAC">      1.00000000</i>
   <i name="AGGAC">      1.00000000</i>
   <i type="int" name="NKREDX">     1</i>
   <i type="int" name="NKREDY">     1</i>
   <i type="int" name="NKREDZ">     1</i>
   <i type="logical" name="SHIFTRED"> F  </i>
   <i type="logical" name="ODDONLY"> F  </i>
   <i type="logical" name="EVENONLY"> F  </i>
   <i type="int" name="LMAXFOCK">     0</i>
   <i type="int" name="NMAXFOCKAE">     0</i>
   <i type="logical" name="LFOCKAEDFT"> F  </i>
   <i name="HFSCREEN">      0.00000000</i>
   <i name="HFSCREENC">      0.00000000</i>
   <i type="int" name="NBANDSGWLOW">     0</i>
  </separator>
  <separator name="vdW DFT" >
   <i type="logical" name="LUSE_VDW"> F  </i>
   <i name="Zab_VDW">     -0.84910000</i>
   <i name="PARAM1">      0.12340000</i>
   <i name="PARAM2">      1.00000000</i>
   <i name="PARAM3">      0.00000000</i>
  </separator>
  <separator name="model GW" >
   <i type="int" name="MODEL_GW">     0</i>
   <i name="MODEL_EPS0">     12.16253740</i>
   <i name="MODEL_ALPHA">      1.00000000</i>
  </separator>
  <separator name="linear response parameters" >
   <i type="logical" name="LEPSILON"> F  </i>
   <i type="logical" name="LRPA"> F  </i>
   <i type="logical" name="LNABLA"> F  </i>
   <i type="logical" name="LVEL"> F  </i>
   <i type="int" name="KINTER">     0</i>
   <i name="CSHIFT">      0.10000000</i>
   <i name="OMEGAMAX">     -1.00000000</i>
   <i name="DEG_THRESHOLD">      0.00200000</i>
  </separator>
  <separator name="orbital magnetization" >
   <i type="logical" name="NUCIND"> F  </i>
   <v name="MAGPOS">      0.00000000      0.00000000      0.00000000</v>
   <i type="logical" name="LNICSALL"> T  </i>
   <i type="logical" name="ORBITALMAG"> F  </i>
   <i type="logical" name="LMAGBLOCH"> F  </i>
   <i type="logical" name="LCHIMAG"> F  </i>
   <i type="logical" name="LGAUGE"> T  </i>
   <i type="int" name="MAGATOM">     0</i>
   <v name="MAGDIPOL">      0.00000000      0.00000000      0.00000000</v>
   <v name="AVECCONST">      0.00000000      0.00000000      0.00000000</v>
  </separator>
  <separator name="response functions" >
   <i type="logical" name="LADDER"> F  </i>
   <i type="logical" name="LFXC"> F  </i>
   <i type="logical" name="LHARTREE"> T  </i>
   <i type="int" name="IBSE">     0</i>
   <v type="int" name="KPOINT">    -1     0     0     0</v>
   <i type="logical" name="LTCTE"> F  </i>
   <i type="logical" name="LTETE"> F  </i>
   <i type="logical" name="LTRIPLET"> F  </i>
   <i type="logical" name="LFXCEPS"> F  </i>
   <i type="logical" name="LFXHEG"> F  </i>
   <i type="int" name="NATURALO">     0</i>
   <i type="logical" name="L2ORDER"> F  </i>
   <i type="logical" name="LUSEW"> F  </i>
   <i name="ENCUTGW">     -2.00000000</i>
   <i name="ENCUTGWSOFT">     -2.00000000</i>
   <i name="ENCUTLF">     -1.00000000</i>
   <i type="int" name="LMAXMP2">    -1</i>
   <i name="SCISSOR">      0.00000000</i>
   <i type="int" name="NOMEGA">     0</i>
   <i type="int" name="NOMEGAR">     0</i>
   <i type="int" name="NBANDSGW">    -1</i>
   <i type="int" name="NBANDSO">    -1</i>
   <i type="int" name="NBANDSV">    -1</i>
   <i type="int" name="NELM">    70</i>
   <i type="int" name="NELMHF">     1</i>
   <i type="int" name="DIM">     3</i>
   <i type="int" name="ANTIRES">     0</i>
   <i name="OMEGAMAX">    -30.00000000</i>
   <i name="OMEGAMIN">    -30.00000000</i>
   <i name="OMEGATL">   -200.00000000</i>
   <i type="int" name="OMEGAGRID">     0</i>
   <i name="CSHIFT">     -0.10000000</i>
   <i type="logical" name="SELFENERGY"> F  </i>
   <i type="logical" name="LSPECTRAL"> F  </i>
   <i type="logical" name="LSPECTRALGW"> F  </i>
   <i type="logical" name="LSINGLES"> F  </i>
   <i type="logical" name="LFERMIGW"> F  </i>
   <i type="logical" name="ODDONLYGW"> F  </i>
   <i type="logical" name="EVENONLYGW"> F  </i>
   <i type="int" name="NKREDLFX">     1</i>
   <i type="int" name="NKREDLFY">     1</i>
   <i type="int" name="NKREDLFZ">     1</i>
   <i type="int" name="MAXMEM">  1800</i>
   <i type="int" name="TELESCOPE">     0</i>
   <i type="int" name="TAUPAR">     1</i>
   <i type="int" name="OMEGAPAR">    -1</i>
   <i name="LAMBDA">      1.00000000</i>
  </separator>
  <separator name="External order field" >
   <i name="OFIELD_KAPPA">      0.00000000</i>
   <v name="OFIELD_K">      0.00000000      0.00000000      0.00000000</v>
   <i name="OFIELD_Q6_NEAR">      0.00000000</i>
   <i name="OFIELD_Q6_FAR">      0.00000000</i>
   <i name="OFIELD_A">      0.00000000</i>
  </separator>
 </parameters>
 <atominfo>
  <atoms>      36 </atoms>
  <types>       4 </types>
  <array name="atoms" >
   <dimension dim="1">ion</dimension>
   <field type="string">element</field>
   <field type="int">atomtype</field>
   <set>
    <rc><c>Hf</c><c>   1</c></rc>
    <rc><c>Hf</c><c>   1</c></rc>
    <rc><c>Hf</c><c>   1</c></rc>
    <rc><c>Hf</c><c>   1</c></rc>
    <rc><c>Hf</c><c>   1</c></rc>
    <rc><c>Hf</c><c>   1</c></rc>
    <rc><c>Hf</c><c>   1</c></rc>
    <rc><c>Hf</c><c>   1</c></rc>
    <rc><c>Hf</c><c>   1</c></rc>
    <rc><c>Hf</c><c>   1</c></rc>
    <rc><c>Hf</c><c>   1</c></rc>
    <rc><c>Nb</c><c>   2</c></rc>
    <rc><c>Nb</c><c>   2</c></rc>
    <rc><c>Nb</c><c>   2</c></rc>
    <rc><c>Nb</c><c>   2</c></rc>
    <rc><c>Nb</c><c>   2</c></rc>
    <rc><c>Nb</c><c>   2</c></rc>
    <rc><c>Nb</c><c>   2</c></rc>
    <rc><c>Ta</c><c>   3</c></rc>
    <rc><c>Ta</c><c>   3</c></rc>
    <rc><c>Ta</c><c>   3</c></rc>
    <rc><c>Ta</c><c>   3</c></rc>
    <rc><c>Ta</c><c>   3</c></rc>
    <rc><c>Ta</c><c>   3</c></rc>
    <rc><c>Ta</c><c>   3</c></rc>
    <rc><c>Ta</c><c>   3</c></rc>
    <rc><c>Ta</c><c>   3</c></rc>
    <rc><c>Ta</c><c>   3</c></rc>
    <rc><c>Zr</c><c>   4</c></rc>
    <rc><c>Zr</c><c>   4</c></rc>
    <rc><c>Zr</c><c>   4</c></rc>
    <rc><c>Zr</c><c>   4</c></rc>
    <rc><c>Zr</c><c>   4</c></rc>
    <rc><c>Zr</c><c>   4</c></rc>
    <rc><c>Zr</c><c>   4</c></rc>
    <rc><c>Zr</c><c>   4</c></rc>
   </set>
  </array>
  <array name="atomtypes" >
   <dimension dim="1">type</dimension>
   <field type="int">atomspertype</field>
   <field type="string">element</field>
   <field>mass</field>
   <field>valence</field>
   <field type="string">pseudopotential</field>
   <set>
    <rc><c>  11</c><c>Hf</c><c>    178.49000000</c><c>      4.00000000</c><c>  PAW_PBE Hf 20Jan2003                  </c></rc>
    <rc><c>   7</c><c>Nb</c><c>     92.91000000</c><c>     13.00000000</c><c>  PAW_PBE Nb_sv 25May2007               </c></rc>
    <rc><c>  10</c><c>Ta</c><c>    180.94800000</c><c>      5.00000000</c><c>  PAW_PBE Ta 17Jan2003                  </c></rc>
    <rc><c>   8</c><c>Zr</c><c>     91.22400000</c><c>     12.00000000</c><c>  PAW_PBE Zr_sv 04Jan2005               </c></rc>
   </set>
  </array>
 </atominfo>
 <structure name="initialpos" >
  <crystal>
   <varray name="basis" >
    <v>       6.95647265       0.00492346      -0.01509961 </v>
    <v>       0.00788153      10.20877096       0.03644459 </v>
    <v>      -0.02205332       0.03640967      10.27591860 </v>
   </varray>
   <i name="volume">    729.75224371 </i>
   <varray name="rec_basis" >
    <v>       0.14375176      -0.00011208       0.00030891 </v>
    <v>      -0.00007008       0.09795628      -0.00034723 </v>
    <v>       0.00021148      -0.00034758       0.09731659 </v>
   </varray>
  </crystal>
  <varray name="positions" >
   <v>       0.47609800       0.32901500       0.99769400 </v>
   <v>       0.76761800       0.49406700       0.16404700 </v>
   <v>       0.26986300       0.82170000       0.81402300 </v>
   <v>       0.75334200       0.49913700       0.83494700 </v>
   <v>       0.22593900       0.50078400       0.17376500 </v>
   <v>       0.99022600       0.67843200       0.34123100 </v>
   <v>       0.49659000       0.67462400       0.01828700 </v>
   <v>       0.51979200       0.02895900       0.66853400 </v>
   <v>       0.98468800       0.00863400       0.66680800 </v>
   <v>       0.72908800       0.81394700       0.80742600 </v>
   <v>       0.49489200       0.00027400       0.00064900 </v>
   <v>       0.76194200       0.17621500       0.49033600 </v>
   <v>       0.22617900       0.16464800       0.17067400 </v>
   <v>       0.75753500       0.18496700       0.84818200 </v>
   <v>       0.24461900       0.16996000       0.83322300 </v>
   <v>       0.02801600       0.32964100       0.98795000 </v>
   <v>       0.74497300       0.82779400       0.50437200 </v>
   <v>       0.25304800       0.83472500       0.18542800 </v>
   <v>       0.74667500       0.83944600       0.18304200 </v>
   <v>       0.24312900       0.16371200       0.49867100 </v>
   <v>       0.01743000       0.32393200       0.34543700 </v>
   <v>       0.24701700       0.50543200       0.82509000 </v>
   <v>       0.48921700       0.33054500       0.67245400 </v>
   <v>       0.25297100       0.49633700       0.49959700 </v>
   <v>       0.50444400       0.67178100       0.32678800 </v>
   <v>       0.48498200       0.63817200       0.65541900 </v>
   <v>       0.01195800       0.65715800       0.65623200 </v>
   <v>       0.99753900       0.99645000       0.33961900 </v>
   <v>       0.48654900       0.32435100       0.32959300 </v>
   <v>       0.74320500       0.49546900       0.49807800 </v>
   <v>       0.00379800       0.99218600       0.99841300 </v>
   <v>       0.50421400       0.00489900       0.33308600 </v>
   <v>       0.26001900       0.83621800       0.50339300 </v>
   <v>       0.77480800       0.17181300       0.16074400 </v>
   <v>       0.00244100       0.68669600       0.00055300 </v>
   <v>       0.00515800       0.32789600       0.66621400 </v>
  </varray>
 </structure>
 <calculation>
  <scstep>
   <time name="dav">    1.00    1.03</time>
   <time name="total">    1.38    1.55</time>
   <energy>
    <i name="alphaZ">   1426.80618543 </i>
    <i name="ewald"> -17447.05660171 </i>
    <i name="hartreedc">  -6775.97389969 </i>
    <i name="XCdc">   -453.49554333 </i>
    <i name="pawpsdc">  19920.93496481 </i>
    <i name="pawaedc"> -18250.21268769 </i>
    <i name="eentropy">     -0.00036715 </i>
    <i name="bandstr">    -37.93999778 </i>
    <i name="atom">  23300.48864773 </i>
    <i name="e_fr_energy">   1683.55070062 </i>
    <i name="e_wo_entrp">   1683.55106777 </i>
    <i name="e_0_energy">   1683.55082300 </i>
   </energy>
  </scstep>
  <scstep>
   <time name="dav">    1.16    1.20</time>
   <time name="total">    1.16    1.26</time>
   <energy>
    <i name="e_fr_energy">   -109.16421310 </i>
    <i name="e_wo_entrp">   -109.16220320 </i>
    <i name="e_0_energy">   -109.16354313 </i>
   </energy>
  </scstep>
  <scstep>
   <time name="dav">    1.34    1.43</time>
   <time name="total">    1.34    1.45</time>
   <energy>
    <i name="e_fr_energy">   -346.75398148 </i>
    <i name="e_wo_entrp">   -346.74756186 </i>
    <i name="e_0_energy">   -346.75184161 </i>
   </energy>
  </scstep>
  <scstep>
   <time name="dav">    1.45    1.52</time>
   <time name="total">    1.45    1.53</time>
   <energy>
    <i name="e_fr_energy">   -375.64440423 </i>
    <i name="e_wo_entrp">   -375.65670957 </i>
    <i name="e_0_energy">   -375.64850601 </i>
   </energy>
  </scstep>
  <scstep>
   <time name="dav">    1.45    1.54</time>
   <time name="total">    1.49    1.59</time>
   <energy>
    <i name="e_fr_energy">   -378.75394432 </i>
    <i name="e_wo_entrp">   -378.76896758 </i>
    <i name="e_0_energy">   -378.75895208 </i>
   </energy>
  </scstep>
  <scstep>
   <time name="diag">    0.13    0.13</time>
   <time name="diis">    0.66    0.68</time>
   <time name="orth">    0.01    0.01</time>
   <time name="total">    0.87    0.92</time>
   <energy>
    <i name="e_fr_energy">   -368.33065774 </i>
    <i name="e_wo_entrp">   -368.35341460 </i>
    <i name="e_0_energy">   -368.33824336 </i>
   </energy>
  </scstep>
  <scstep>
   <time name="diag">    0.07    0.07</time>
   <time name="diis">    0.71    0.71</time>
   <time name="orth">    0.01    0.01</time>
   <time name="total">    0.86    0.88</time>
   <energy>
    <i name="e_fr_energy">   -366.69293058 </i>
    <i name="e_wo_entrp">   -366.69633387 </i>
    <i name="e_0_energy">   -366.69406501 </i>
   </energy>
  </scstep>
  <scstep>
   <time name="diag">    0.07    0.08</time>
   <time name="diis">    0.76    0.76</time>
   <time name="orth">    0.01    0.01</time>
   <time name="total">    0.91    0.93</time>
   <energy>
    <i name="e_fr_energy">   -364.09344218 </i>
    <i name="e_wo_entrp">   -364.11994564 </i>
    <i name="e_0_energy">   -364.10227667 </i>
   </energy>
  </scstep>
  <scstep>
   <time name="diag">    0.07    0.08</time>
   <time name="diis">    0.73    0.76</time>
   <time name="orth">    0.01    0.01</time>
   <time name="total">    0.88    0.93</time>
   <energy>
    <i name="e_fr_energy">   -364.06523584 </i>
    <i name="e_wo_entrp">   -364.09144573 </i>
    <i name="e_0_energy">   -364.07397247 </i>
   </energy>
  </scstep>
  <scstep>
   <time name="diag">    0.07    0.07</time>
   <time name="diis">    0.77    0.79</time>
   <time name="orth">    0.06    0.06</time>
   <time name="total">    1.00    1.06</time>
   <energy>
    <i name="e_fr_energy">   -364.00374995 </i>
    <i name="e_wo_entrp">   -364.02969933 </i>
    <i name="e_0_energy">   -364.01239974 </i>
   </energy>
  </scstep>
  <scstep>
   <time name="diag">    0.09    0.10</time>
   <time name="diis">    0.77    0.80</time>
   <time name="orth">    0.01    0.01</time>
   <time name="total">    0.96    1.03</time>
   <energy>
    <i name="e_fr_energy">   -363.97665673 </i>
    <i name="e_wo_entrp">   -364.00274779 </i>
    <i name="e_0_energy">   -363.98535375 </i>
   </energy>
  </scstep>
  <scstep>
   <time name="diag">    0.07    0.07</time>
   <time name="diis">    0.75    0.77</time>
   <time name="orth">    0.01    0.01</time>
   <time name="total">    0.90    0.94</time>
   <energy>
    <i name="e_fr_energy">   -363.97820209 </i>
    <i name="e_wo_entrp">   -364.00339171 </i>
    <i name="e_0_energy">   -363.98659863 </i>
   </energy>
  </scstep>
  <scstep>
   <time name="diag">    0.07    0.08</time>
   <time name="diis">    0.77    0.78</time>
   <time name="orth">    0.01    0.01</time>
   <time name="total">    1.02    1.06</time>
   <energy>
    <i name="e_fr_energy">   -363.97720476 </i>
    <i name="e_wo_entrp">   -364.00290427 </i>
    <i name="e_0_energy">   -363.98577126 </i>
   </energy>
  </scstep>
  <scstep>
   <time name="diag">    0.11    0.12</time>
   <time name="diis">    0.78    0.79</time>
   <time name="orth">    0.02    0.02</time>
   <time name="total">    1.06    1.10</time>
   <energy>
    <i name="e_fr_energy">   -363.97739739 </i>
    <i name="e_wo_entrp">   -364.00278074 </i>
    <i name="e_0_energy">   -363.98585851 </i>
   </energy>
  </scstep>
  <scstep>
   <time name="diag">    0.09    0.09</time>
   <time name="diis">    0.87    0.87</time>
   <time name="orth">    0.01    0.01</time>
   <time name="total">    1.05    1.08</time>
   <energy>
    <i name="e_fr_energy">   -363.97762713 </i>
    <i name="e_wo_entrp">   -364.00330585 </i>
    <i name="e_0_energy">   -363.98618670 </i>
   </energy>
  </scstep>
  <scstep>
   <time name="diag">    0.07    0.07</time>
   <time name="diis">    0.69    0.71</time>
   <time name="orth">    0.01    0.01</time>
   <time name="total">    0.84    0.87</time>
   <energy>
    <i name="e_fr_energy">   -363.97772181 </i>
    <i name="e_wo_entrp">   -364.00337104 </i>
    <i name="e_0_energy">   -363.98627155 </i>
   </energy>
  </scstep>
  <scstep>
   <time name="diag">    0.08    0.09</time>
   <time name="diis">    0.60    0.61</time>
   <time name="orth">    0.01    0.01</time>
   <time name="total">    0.75    0.79</time>
   <energy>
    <i name="e_fr_energy">   -363.97777151 </i>
    <i name="e_wo_entrp">   -364.00341096 </i>
    <i name="e_0_energy">   -363.98631799 </i>
   </energy>
  </scstep>
  <scstep>
   <time name="diag">    0.07    0.07</time>
   <time name="diis">    0.57    0.58</time>
   <time name="orth">    0.01    0.01</time>
   <time name="total">    0.71    0.74</time>
   <energy>
    <i name="e_fr_energy">   -363.97780851 </i>
    <i name="e_wo_entrp">   -364.00343967 </i>
    <i name="e_0_energy">   -363.98635223 </i>
   </energy>
  </scstep>
  <scstep>
   <time name="diag">    0.07    0.07</time>
   <time name="diis">    0.48    0.49</time>
   <time name="orth">    0.01    0.01</time>
   <time name="total">    0.62    0.65</time>
   <energy>
    <i name="e_fr_energy">   -363.97782164 </i>
    <i name="e_wo_entrp">   -364.00344998 </i>
    <i name="e_0_energy">   -363.98636442 </i>
   </energy>
  </scstep>
  <scstep>
   <time name="diag">    0.07    0.07</time>
   <time name="diis">    0.44    0.45</time>
   <time name="orth">    0.01    0.01</time>
   <time name="total">    0.59    0.62</time>
   <energy>
    <i name="e_fr_energy">   -363.97782901 </i>
    <i name="e_wo_entrp">   -364.00347137 </i>
    <i name="e_0_energy">   -363.98637646 </i>
   </energy>
  </scstep>
  <scstep>
   <time name="diag">    0.07    0.07</time>
   <time name="diis">    0.41    0.41</time>
   <time name="orth">    0.01    0.01</time>
   <time name="total">    0.72    0.75</time>
   <energy>
    <i name="alphaZ">   1426.80618543 </i>
    <i name="ewald"> -17447.05660171 </i>
    <i name="hartreedc">  -6563.42490481 </i>
    <i name="XCdc">   -451.15713364 </i>
    <i name="pawpsdc">  32413.55428247 </i>
    <i name="pawaedc"> -30727.85621889 </i>
    <i name="eentropy">      0.02564783 </i>
    <i name="bandstr">  -2315.35773492 </i>
    <i name="atom">  23300.48864773 </i>
    <i name="e_fr_energy">   -363.97783053 </i>
    <i name="e_wo_entrp">   -364.00347835 </i>
    <i name="e_0_energy">   -363.98637980 </i>
   </energy>
  </scstep>
  <structure>
   <crystal>
    <varray name="basis" >
     <v>       6.95647265       0.00492346      -0.01509961 </v>
     <v>       0.00788153      10.20877096       0.03644459 </v>
     <v>      -0.02205332       0.03640967      10.27591860 </v>
    </varray>
    <i name="volume">    729.75224371 </i>
    <varray name="rec_basis" >
     <v>       0.14375176      -0.00011208       0.00030891 </v>
     <v>      -0.00007008       0.09795628      -0.00034723 </v>
     <v>       0.00021148      -0.00034758       0.09731659 </v>
    </varray>
   </crystal>
   <varray name="positions" >
    <v>       0.47609800       0.32901500       0.99769400 </v>
    <v>       0.76761800       0.49406700       0.16404700 </v>
    <v>       0.26986300       0.82170000       0.81402300 </v>
    <v>       0.75334200       0.49913700       0.83494700 </v>
    <v>       0.22593900       0.50078400       0.17376500 </v>
    <v>       0.99022600       0.67843200       0.34123100 </v>
    <v>       0.49659000       0.67462400       0.01828700 </v>
    <v>       0.51979200       0.02895900       0.66853400 </v>
    <v>       0.98468800       0.00863400       0.66680800 </v>
    <v>       0.72908800       0.81394700       0.80742600 </v>
    <v>       0.49489200       0.00027400       0.00064900 </v>
    <v>       0.76194200       0.17621500       0.49033600 </v>
    <v>       0.22617900       0.16464800       0.17067400 </v>
    <v>       0.75753500       0.18496700       0.84818200 </v>
    <v>       0.24461900       0.16996000       0.83322300 </v>
    <v>       0.02801600       0.32964100       0.98795000 </v>
    <v>       0.74497300       0.82779400       0.50437200 </v>
    <v>       0.25304800       0.83472500       0.18542800 </v>
    <v>       0.74667500       0.83944600       0.18304200 </v>
    <v>       0.24312900       0.16371200       0.49867100 </v>
    <v>       0.01743000       0.32393200       0.34543700 </v>
    <v>       0.24701700       0.50543200       0.82509000 </v>
    <v>       0.48921700       0.33054500       0.67245400 </v>
    <v>       0.25297100       0.49633700       0.49959700 </v>
    <v>       0.50444400       0.67178100       0.32678800 </v>
    <v>       0.48498200       0.63817200       0.65541900 </v>
    <v>       0.01195800       0.65715800       0.65623200 </v>
    <v>       0.99753900       0.99645000       0.33961900 </v>
    <v>       0.48654900       0.32435100       0.32959300 </v>
    <v>       0.74320500       0.49546900       0.49807800 </v>
    <v>       0.00379800       0.99218600       0.99841300 </v>
    <v>       0.50421400       0.00489900       0.33308600 </v>
    <v>       0.26001900       0.83621800       0.50339300 </v>
    <v>       0.77480800       0.17181300       0.16074400 </v>
    <v>       0.00244100       0.68669600       0.00055300 </v>
    <v>       0.00515800       0.32789600       0.66621400 </v>
   </varray>
  </structure>
  <varray name="forces" >
   <v>       0.00140453       0.00490246      -0.00498046 </v>
   <v>       0.00204185       0.02960081      -0.00042583 </v>
   <v>      -0.00215685      -0.00000890      -0.05276591 </v>
   <v>      -0.00161747      -0.00105039       0.00518558 </v>
   <v>      -0.00028633      -0.10969164       0.00023299 </v>
   <v>       0.03741263       0.00461327      -0.03492343 </v>
   <v>      -0.02194345       0.00551105       0.00993961 </v>
   <v>      -0.00515145       0.00396460       0.00445774 </v>
   <v>       0.00144671       0.00580676       0.00470826 </v>
   <v>      -0.00073396       0.00648212       0.02343926 </v>
   <v>      -0.00838285      -0.00232867       0.00345090 </v>
   <v>      -0.00271557       0.00730987      -0.00676385 </v>
   <v>      -0.00749507       0.11257835       0.00650507 </v>
   <v>      -0.00159140       0.00406701       0.00413544 </v>
   <v>       0.00157338      -0.01203661       0.00194045 </v>
   <v>      -0.00089308      -0.00232129      -0.00057891 </v>
   <v>      -0.01473548       0.01005927      -0.02094791 </v>
   <v>      -0.01371932       0.03361981      -0.09361974 </v>
   <v>       0.03529930       0.01280441       0.01026414 </v>
   <v>      -0.00085638      -0.01855354      -0.01861272 </v>
   <v>       0.00507967      -0.00497716       0.00347298 </v>
   <v>       0.00013357       0.00571527       0.00237305 </v>
   <v>       0.02003203       0.00429579       0.00165412 </v>
   <v>      -0.00649522       0.01120881      -0.02149650 </v>
   <v>       0.00351528       0.00905469       0.01906664 </v>
   <v>      -0.00383310       0.00132535      -0.00518075 </v>
   <v>       0.00180280      -0.00251786       0.00507104 </v>
   <v>      -0.01388184       0.01045654       0.01325951 </v>
   <v>      -0.00688095      -0.00819803       0.00491132 </v>
   <v>       0.00761492      -0.00887631      -0.01431221 </v>
   <v>       0.03290598       0.00071774       0.01688852 </v>
   <v>      -0.03851306      -0.06421259      -0.02781620 </v>
   <v>       0.00285965      -0.00291483       0.12071543 </v>
   <v>      -0.00552565      -0.02473652       0.00119202 </v>
   <v>       0.02666599      -0.01988237       0.02880333 </v>
   <v>      -0.02237980      -0.00178726       0.01075702 </v>
  </varray>
  <varray name="stress" >
   <v>      -0.34202108      -0.40270904      -0.16200211 </v>
   <v>      -0.40270900      -0.01270438      -0.07028012 </v>
   <v>      -0.16200211      -0.07028009      -0.62645934 </v>
  </varray>
  <energy>
   <i name="e_fr_energy">   -363.97783053 </i>
   <i name="e_wo_entrp">   -363.98637980 </i>
   <i name="e_0_energy">      0.02564783 </i>
  </energy>
  <time name="totalsc">   22.12   23.37</time>
 </calculation>
 <calculation>
  <scstep>
   <time name="dav">    0.92    0.94</time>
   <time name="total">    1.15    1.23</time>
   <energy>
    <i name="alphaZ">   1427.06257830 </i>
    <i name="ewald"> -17448.11205045 </i>
    <i name="hartreedc">  -6563.79347691 </i>
    <i name="XCdc">   -451.10988771 </i>
    <i name="pawpsdc">  32413.58637934 </i>
    <i name="pawaedc"> -30727.88753635 </i>
    <i name="eentropy">      0.02554266 </i>
    <i name="bandstr">  -2314.23895098 </i>
    <i name="atom">  23300.48864773 </i>
    <i name="e_fr_energy">   -363.97875438 </i>
    <i name="e_wo_entrp">   -364.00429704 </i>
    <i name="e_0_energy">   -363.98726860 </i>
   </energy>
  </scstep>
  <scstep>
   <time name="diag">    0.07    0.07</time>
   <time name="diis">    0.80    0.82</time>
   <time name="orth">    0.01    0.01</time>
   <time name="total">    0.95    0.98</time>
   <energy>
    <i name="e_fr_energy">   -363.97894874 </i>
    <i name="e_wo_entrp">   -364.00444892 </i>
    <i name="e_0_energy">   -363.98744880 </i>
   </energy>
  </scstep>
  <scstep>
   <time name="diag">    0.07    0.07</time>
   <time name="diis">    0.76    0.77</time>
   <time name="orth">    0.01    0.01</time>
   <time name="total">    0.92    0.95</time>
   <energy>
    <i name="e_fr_energy">   -363.97893222 </i>
    <i name="e_wo_entrp">   -364.00446205 </i>
    <i name="e_0_energy">   -363.98744216 </i>
   </energy>
  </scstep>
  <scstep>
   <time name="diag">    0.07    0.07</time>
   <time name="diis">    0.62    0.64</time>
   <time name="orth">    0.01    0.01</time>
   <time name="total">    0.73    0.77</time>
   <energy>
    <i name="alphaZ">   1427.06257830 </i>
    <i name="ewald"> -17448.11205045 </i>
    <i name="hartreedc">  -6563.17100962 </i>
    <i name="XCdc">   -451.13649946 </i>
    <i name="pawpsdc">  32421.47639156 </i>
    <i name="pawaedc"> -30735.78716844 </i>
    <i name="eentropy">      0.02550447 </i>
    <i name="bandstr">  -2314.82531651 </i>
    <i name="atom">  23300.48864773 </i>
    <i name="e_fr_energy">   -363.97892243 </i>
    <i name="e_wo_entrp">   -364.00442690 </i>
    <i name="e_0_energy">   -363.98742392 </i>
   </energy>
  </scstep>
  <structure>
   <crystal>
    <varray name="basis" >
     <v>       6.95603707       0.00441067      -0.01530431 </v>
     <v>       0.00712716      10.20874616       0.03630880 </v>
     <v>      -0.02235945       0.03627897      10.27474002 </v>
    </varray>
    <i name="volume">    729.62113294 </i>
    <varray name="rec_basis" >
     <v>       0.14376077      -0.00010148       0.00031320 </v>
     <v>      -0.00006287       0.09795650      -0.00034601 </v>
     <v>       0.00021435      -0.00034631       0.09732775 </v>
    </varray>
   </crystal>
   <varray name="positions" >
    <v>       0.47610089       0.32902197       0.99768696 </v>
    <v>       0.76762220       0.49410897       0.16404626 </v>
    <v>       0.26985828       0.82170025       0.81394868 </v>
    <v>       0.75333866       0.49913549       0.83495430 </v>
    <v>       0.22593858       0.50062849       0.17376588 </v>
    <v>       0.99030367       0.67843868       0.34118190 </v>
    <v>       0.49654438       0.67463179       0.01830090 </v>
    <v>       0.51978130       0.02896460       0.66854024 </v>
    <v>       0.98469102       0.00864221       0.66681461 </v>
    <v>       0.72908657       0.81395607       0.80745898 </v>
    <v>       0.49487458       0.00027069       0.00065385 </v>
    <v>       0.76193631       0.17622540       0.49032643 </v>
    <v>       0.22616325       0.16480758       0.17068257 </v>
    <v>       0.75753170       0.18497275       0.84818780 </v>
    <v>       0.24462230       0.16994292       0.83322580 </v>
    <v>       0.02801414       0.32963771       0.98794919 </v>
    <v>       0.74494223       0.82780838       0.50434240 </v>
    <v>       0.25301898       0.83477315       0.18529593 </v>
    <v>       0.74674846       0.83946407       0.18305650 </v>
    <v>       0.24312717       0.16368579       0.49864488 </v>
    <v>       0.01744059       0.32392492       0.34544193 </v>
    <v>       0.24701728       0.50544009       0.82509331 </v>
    <v>       0.48925868       0.33055106       0.67245637 </v>
    <v>       0.25295737       0.49635301       0.49956665 </v>
    <v>       0.50445138       0.67179374       0.32681482 </v>
    <v>       0.48497400       0.63817391       0.65541168 </v>
    <v>       0.01196178       0.65715440       0.65623916 </v>
    <v>       0.99751016       0.99646477       0.33963758 </v>
    <v>       0.48653472       0.32433936       0.32959994 </v>
    <v>       0.74322079       0.49545648       0.49805791 </v>
    <v>       0.00386653       0.99218690       0.99843688 </v>
    <v>       0.50413385       0.00480814       0.33304703 </v>
    <v>       0.26002549       0.83621326       0.50356304 </v>
    <v>       0.77479655       0.17177793       0.16074579 </v>
    <v>       0.00249664       0.68666764       0.00059375 </v>
    <v>       0.00511149       0.32789343       0.66622909 </v>
   </varray>
  </structure>
  <varray name="forces" >
   <v>       0.00304774       0.00559625      -0.00589780 </v>
   <v>      -0.00003592       0.02728218       0.00038589 </v>
   <v>      -0.00290107       0.00177631      -0.04418041 </v>
   <v>      -0.00148517       0.00069623       0.00550414 </v>
   <v>       0.00082382      -0.10059359       0.00065674 </v>
   <v>       0.03872394       0.00536936      -0.03247317 </v>
   <v>      -0.02187056       0.00437392       0.00795228 </v>
   <v>      -0.00406181       0.00549382       0.00410763 </v>
   <v>       0.00073440       0.00588929       0.00388494 </v>
   <v>       0.00065980       0.00685481       0.02173228 </v>
   <v>      -0.00867756      -0.00075095       0.00159557 </v>
   <v>      -0.00514892       0.00465677      -0.00568713 </v>
   <v>      -0.00570287       0.10008459       0.00506970 </v>
   <v>      -0.00143975       0.00218664       0.00453634 </v>
   <v>       0.00195709      -0.01035982       0.00173597 </v>
   <v>      -0.00322156      -0.00201503      -0.00156116 </v>
   <v>      -0.01288381       0.00817269      -0.01947112 </v>
   <v>      -0.01449444       0.02970995      -0.08399676 </v>
   <v>       0.03259038       0.01127285       0.00989041 </v>
   <v>      -0.00067791      -0.01781332      -0.01648471 </v>
   <v>       0.00101681      -0.00519756       0.00523454 </v>
   <v>       0.00035566       0.00395874       0.00276263 </v>
   <v>       0.01757091       0.00294212       0.00077631 </v>
   <v>      -0.00610055       0.01074507      -0.02083538 </v>
   <v>       0.00020657       0.01071327       0.01710538 </v>
   <v>      -0.00060718       0.00037735      -0.00602201 </v>
   <v>      -0.00043158      -0.00299433       0.00462906 </v>
   <v>      -0.00932828       0.00973542       0.01354343 </v>
   <v>      -0.00348308      -0.00752202       0.00549094 </v>
   <v>       0.00814053      -0.00853322      -0.01466518 </v>
   <v>       0.03252214       0.00267980       0.01365804 </v>
   <v>      -0.03642824      -0.05778149      -0.02434988 </v>
   <v>       0.00215704      -0.00230221       0.10871223 </v>
   <v>      -0.00709921      -0.02420368       0.00176249 </v>
   <v>       0.02723377      -0.01867002       0.02527350 </v>
   <v>      -0.02166113      -0.00183019       0.00962429 </v>
  </varray>
  <varray name="stress" >
   <v>      -0.23788450      -0.40464939      -0.17212862 </v>
   <v>      -0.40464942       0.16241941      -0.05899522 </v>
   <v>      -0.17212867      -0.05899519      -0.54129344 </v>
  </varray>
  <energy>
   <i name="e_fr_energy">   -363.97892243 </i>
   <i name="e_wo_entrp">   -363.98742392 </i>
   <i name="e_0_energy">      0.02550447 </i>
  </energy>
  <time name="totalsc">    5.25    5.50</time>
 </calculation>
 <calculation>
  <scstep>
   <time name="dav">    0.91    0.93</time>
   <time name="total">    1.12    1.19</time>
   <energy>
    <i name="alphaZ">   1427.83229093 </i>
    <i name="ewald"> -17451.26157469 </i>
    <i name="hartreedc">  -6564.23635489 </i>
    <i name="XCdc">   -450.99582159 </i>
    <i name="pawpsdc">  32421.70746933 </i>
    <i name="pawaedc"> -30736.02258124 </i>
    <i name="eentropy">      0.02515738 </i>
    <i name="bandstr">  -2311.51744211 </i>
    <i name="atom">  23300.48864773 </i>
    <i name="e_fr_energy">   -363.98020916 </i>
    <i name="e_wo_entrp">   -364.00536654 </i>
    <i name="e_0_energy">   -363.98859495 </i>
   </energy>
  </scstep>
  <scstep>
   <time name="diag">    0.07    0.07</time>
   <time name="diis">    0.73    0.74</time>
   <time name="orth">    0.01    0.01</time>
   <time name="total">    0.87    0.91</time>
   <energy>
    <i name="e_fr_energy">   -363.98176734 </i>
    <i name="e_wo_entrp">   -364.00680156 </i>
    <i name="e_0_energy">   -363.99011208 </i>
   </energy>
  </scstep>
  <scstep>
   <time name="diag">    0.07    0.07</time>
   <time name="diis">    0.73    0.75</time>
   <time name="orth">    0.01    0.01</time>
   <time name="total">    0.88    0.92</time>
   <energy>
    <i name="e_fr_energy">   -363.98161757 </i>
    <i name="e_wo_entrp">   -364.00673782 </i>
    <i name="e_0_energy">   -363.98999099 </i>
   </energy>
  </scstep>
  <scstep>
   <time name="diag">    0.12    0.12</time>
   <time name="diis">    0.79    0.81</time>
   <time name="orth">    0.01    0.01</time>
   <time name="total">    0.98    1.03</time>
   <energy>
    <i name="e_fr_energy">   -363.98151827 </i>
    <i name="e_wo_entrp">   -364.00656877 </i>
    <i name="e_0_energy">   -363.98986844 </i>
   </energy>
  </scstep>
  <scstep>
   <time name="diag">    0.07    0.07</time>
   <time name="diis">    0.74    0.75</time>
   <time name="orth">    0.01    0.01</time>
   <time name="total">    0.89    0.92</time>
   <energy>
    <i name="e_fr_energy">   -363.98151498 </i>
    <i name="e_wo_entrp">   -364.00656932 </i>
    <i name="e_0_energy">   -363.98986643 </i>
   </energy>
  </scstep>
  <scstep>
   <time name="diag">    0.07    0.08</time>
   <time name="diis">    0.62    0.64</time>
   <time name="orth">    0.01    0.01</time>
   <time name="total">    0.86    0.89</time>
   <energy>
    <i name="e_fr_energy">   -363.98151737 </i>
    <i name="e_wo_entrp">   -364.00659073 </i>
    <i name="e_0_energy">   -363.98987516 </i>
   </energy>
  </scstep>
  <scstep>
   <time name="diag">    0.09    0.09</time>
   <time name="diis">    0.40    0.41</time>
   <time name="orth">    0.01    0.01</time>
   <time name="total">    0.54    0.57</time>
   <energy>
    <i name="alphaZ">   1427.83229093 </i>
    <i name="ewald"> -17451.26157469 </i>
    <i name="hartreedc">  -6562.29123523 </i>
    <i name="XCdc">   -451.07796924 </i>
    <i name="pawpsdc">  32444.59454933 </i>
    <i name="pawaedc"> -30758.93093145 </i>
    <i name="eentropy">      0.02505070 </i>
    <i name="bandstr">  -2313.36034994 </i>
    <i name="atom">  23300.48864773 </i>
    <i name="e_fr_energy">   -363.98152186 </i>
    <i name="e_wo_entrp">   -364.00657256 </i>
    <i name="e_0_energy">   -363.98987209 </i>
   </energy>
  </scstep>
  <structure>
   <crystal>
    <varray name="basis" >
     <v>       6.95473032       0.00287230      -0.01591838 </v>
     <v>       0.00486403      10.20867176       0.03590143 </v>
     <v>      -0.02327785       0.03588687      10.27120427 </v>
    </varray>
    <i name="volume">    729.22781041 </i>
    <varray name="rec_basis" >
     <v>       0.14378780      -0.00006966       0.00032611 </v>
     <v>      -0.00004124       0.09795716      -0.00034235 </v>
     <v>       0.00022299      -0.00034250       0.09736127 </v>
    </varray>
   </crystal>
   <varray name="positions" >
    <v>       0.47610957       0.32904290       0.99766586 </v>
    <v>       0.76763481       0.49423486       0.16404403 </v>
    <v>       0.26984410       0.82170102       0.81372568 </v>
    <v>       0.75332864       0.49913095       0.83497622 </v>
    <v>       0.22593728       0.50016196       0.17376851 </v>
    <v>       0.99053670       0.67845872       0.34103460 </v>
    <v>       0.49640753       0.67465514       0.01834262 </v>
    <v>       0.51974918       0.02898141       0.66855897 </v>
    <v>       0.98470009       0.00866683       0.66683443 </v>
    <v>       0.72908228       0.81398329       0.80755792 </v>
    <v>       0.49482231       0.00026076       0.00066839 </v>
    <v>       0.76191923       0.17625660       0.49029771 </v>
    <v>       0.22611606       0.16528631       0.17070830 </v>
    <v>       0.75752181       0.18498999       0.84820520 </v>
    <v>       0.24463220       0.16989170       0.83323419 </v>
    <v>       0.02800857       0.32962785       0.98794677 </v>
    <v>       0.74484993       0.82785152       0.50425359 </v>
    <v>       0.25293193       0.83491758       0.18489968 </v>
    <v>       0.74696888       0.83951827       0.18310001 </v>
    <v>       0.24312165       0.16360716       0.49856649 </v>
    <v>       0.01747237       0.32390369       0.34545673 </v>
    <v>       0.24701812       0.50546436       0.82510326 </v>
    <v>       0.48938372       0.33056925       0.67246348 </v>
    <v>       0.25291649       0.49640102       0.49947558 </v>
    <v>       0.50447355       0.67183195       0.32689529 </v>
    <v>       0.48495000       0.63817963       0.65538974 </v>
    <v>       0.01197311       0.65714361       0.65626064 </v>
    <v>       0.99742365       0.99650908       0.33969333 </v>
    <v>       0.48649187       0.32430444       0.32962075 </v>
    <v>       0.74326817       0.49541892       0.49799763 </v>
    <v>       0.00407216       0.99218961       0.99850855 </v>
    <v>       0.50389337       0.00453556       0.33293009 </v>
    <v>       0.26004500       0.83619904       0.50407324 </v>
    <v>       0.77476218       0.17167272       0.16075114 </v>
    <v>       0.00266356       0.68658257       0.00071601 </v>
    <v>       0.00497195       0.32788573       0.66627437 </v>
   </varray>
  </structure>
  <varray name="forces" >
   <v>       0.00913320       0.00755525      -0.00931033 </v>
   <v>      -0.00636529       0.02324266       0.00177910 </v>
   <v>      -0.00629269       0.00560281      -0.01778190 </v>
   <v>      -0.00055067       0.00597133       0.00757472 </v>
   <v>       0.00351856      -0.07456843       0.00059279 </v>
   <v>       0.04210113       0.00808901      -0.02887625 </v>
   <v>      -0.02094188      -0.00000279       0.00290356 </v>
   <v>       0.00050009       0.00884090       0.00576289 </v>
   <v>      -0.00288395       0.00465249       0.00429871 </v>
   <v>       0.00569602       0.00666889       0.01902300 </v>
   <v>      -0.01012760       0.00236211      -0.00187091 </v>
   <v>      -0.01034499      -0.00116952      -0.00663466 </v>
   <v>      -0.00075965       0.07379539       0.00299355 </v>
   <v>      -0.00235148      -0.00377966       0.00596366 </v>
   <v>       0.00357590      -0.00786451      -0.00015871 </v>
   <v>      -0.01078532       0.00115797      -0.00565473 </v>
   <v>      -0.00856097       0.00502700      -0.01868813 </v>
   <v>      -0.01664556       0.02276478      -0.05918100 </v>
   <v>       0.02630181       0.00621787       0.00894497 </v>
   <v>      -0.00116251      -0.01676631      -0.01124515 </v>
   <v>      -0.01055104      -0.00375776       0.00846042 </v>
   <v>       0.00017421      -0.00107732       0.00521496 </v>
   <v>       0.01140726       0.00035363       0.00081852 </v>
   <v>      -0.00502770       0.01098281      -0.01968093 </v>
   <v>      -0.00900016       0.01670298       0.01048052 </v>
   <v>       0.00997687      -0.00433740      -0.00779958 </v>
   <v>      -0.00821950      -0.00636614       0.00476522 </v>
   <v>       0.00133087       0.00346075       0.01191749 </v>
   <v>       0.00699114      -0.00549330       0.00763164 </v>
   <v>       0.01041112      -0.00689387      -0.01449350 </v>
   <v>       0.03159537       0.00796446       0.00684168 </v>
   <v>      -0.03291079      -0.04551702      -0.01820421 </v>
   <v>       0.00067844      -0.00069528       0.07530090 </v>
   <v>      -0.01227664      -0.02351036       0.00364894 </v>
   <v>       0.02868639      -0.01865828       0.01689585 </v>
   <v>      -0.01632000      -0.00095513       0.00776688 </v>
  </varray>
  <varray name="stress" >
   <v>       0.56778466      -0.06910879      -0.05803091 </v>
   <v>      -0.06910878       0.85429581       0.04364669 </v>
   <v>      -0.05803094       0.04364670       0.36466176 </v>
  </varray>
  <energy>
   <i name="e_fr_energy">   -363.98152186 </i>
   <i name="e_wo_entrp">   -363.98987209 </i>
   <i name="e_0_energy">      0.02505070 </i>
  </energy>
  <time name="totalsc">    7.76    8.11</time>
 </calculation>
 <calculation>
  <scstep>
   <time name="dav">    0.93    0.96</time>
   <time name="total">    1.17    1.26</time>
   <energy>
    <i name="alphaZ">   1429.37412308 </i>
    <i name="ewald"> -17457.48497415 </i>
    <i name="hartreedc">  -6564.62628429 </i>
    <i name="XCdc">   -450.79016667 </i>
    <i name="pawpsdc">  32444.18371218 </i>
    <i name="pawaedc"> -30758.50316833 </i>
    <i name="eentropy">      0.02436723 </i>
    <i name="bandstr">  -2306.64477247 </i>
    <i name="atom">  23300.48864773 </i>
    <i name="e_fr_energy">   -363.97851569 </i>
    <i name="e_wo_entrp">   -364.00288292 </i>
    <i name="e_0_energy">   -363.98663810 </i>
   </energy>
  </scstep>
  <scstep>
   <time name="diag">    0.08    0.08</time>
   <time name="diis">    0.73    0.74</time>
   <time name="orth">    0.01    0.01</time>
   <time name="total">    0.89    0.91</time>
   <energy>
    <i name="e_fr_energy">   -363.98471931 </i>
    <i name="e_wo_entrp">   -364.00882654 </i>
    <i name="e_0_energy">   -363.99275506 </i>
   </energy>
  </scstep>
  <scstep>
   <time name="diag">    0.07    0.07</time>
   <time name="diis">    0.72    0.75</time>
   <time name="orth">    0.01    0.01</time>
   <time name="total">    0.87    0.92</time>
   <energy>
    <i name="e_fr_energy">   -363.98406649 </i>
    <i name="e_wo_entrp">   -364.00837226 </i>
    <i name="e_0_energy">   -363.99216841 </i>
   </energy>
  </scstep>
  <scstep>
   <time name="diag">    0.07    0.07</time>
   <time name="diis">    0.77    0.79</time>
   <time name="orth">    0.01    0.01</time>
   <time name="total">    0.91    0.95</time>
   <energy>
    <i name="e_fr_energy">   -363.98368735 </i>
    <i name="e_wo_entrp">   -364.00783454 </i>
    <i name="e_0_energy">   -363.99173641 </i>
   </energy>
  </scstep>
  <scstep>
   <time name="diag">    0.07    0.07</time>
   <time name="diis">    0.76    0.78</time>
   <time name="orth">    0.01    0.01</time>
   <time name="total">    0.93    0.97</time>
   <energy>
    <i name="e_fr_energy">   -363.98366508 </i>
    <i name="e_wo_entrp">   -364.00784011 </i>
    <i name="e_0_energy">   -363.99172342 </i>
   </energy>
  </scstep>
  <scstep>
   <time name="diag">    0.12    0.12</time>
   <time name="diis">    0.76    0.78</time>
   <time name="orth">    0.01    0.01</time>
   <time name="total">    0.96    1.00</time>
   <energy>
    <i name="e_fr_energy">   -363.98366432 </i>
    <i name="e_wo_entrp">   -364.00786142 </i>
    <i name="e_0_energy">   -363.99173002 </i>
   </energy>
  </scstep>
  <scstep>
   <time name="diag">    0.08    0.08</time>
   <time name="diis">    0.59    0.59</time>
   <time name="orth">    0.01    0.01</time>
   <time name="total">    0.75    0.79</time>
   <energy>
    <i name="e_fr_energy">   -363.98367831 </i>
    <i name="e_wo_entrp">   -364.00783972 </i>
    <i name="e_0_energy">   -363.99173211 </i>
   </energy>
  </scstep>
  <scstep>
   <time name="diag">    0.08    0.08</time>
   <time name="diis">    0.49    0.51</time>
   <time name="orth">    0.01    0.01</time>
   <time name="total">    0.65    0.68</time>
   <energy>
    <i name="e_fr_energy">   -363.98368910 </i>
    <i name="e_wo_entrp">   -364.00787335 </i>
    <i name="e_0_energy">   -363.99175052 </i>
   </energy>
  </scstep>
  <scstep>
   <time name="diag">    0.08    0.08</time>
   <time name="diis">    0.49    0.50</time>
   <time name="orth">    0.01    0.01</time>
   <time name="total">    0.63    0.67</time>
   <energy>
    <i name="alphaZ">   1429.37412308 </i>
    <i name="ewald"> -17457.48497415 </i>
    <i name="hartreedc">  -6560.79334733 </i>
    <i name="XCdc">   -450.95183428 </i>
    <i name="pawpsdc">  32491.68133828 </i>
    <i name="pawaedc"> -30805.94782745 </i>
    <i name="eentropy">      0.02417620 </i>
    <i name="bandstr">  -2310.37399829 </i>
    <i name="atom">  23300.48864773 </i>
    <i name="e_fr_energy">   -363.98369621 </i>
    <i name="e_wo_entrp">   -364.00787241 </i>
    <i name="e_0_energy">   -363.99175494 </i>
   </energy>
  </scstep>
  <structure>
   <crystal>
    <varray name="basis" >
     <v>       6.95211681      -0.00020445      -0.01714652 </v>
     <v>       0.00033778      10.20852297       0.03508667 </v>
     <v>      -0.02511464       0.03510267      10.26413278 </v>
    </varray>
    <i name="volume">    728.44120958 </i>
    <varray name="rec_basis" >
     <v>       0.14384195      -0.00000597       0.00035198 </v>
     <v>       0.00000205       0.09795852      -0.00033501 </v>
     <v>       0.00024028      -0.00033487       0.09742838 </v>
    </varray>
   </crystal>
   <varray name="positions" >
    <v>       0.47612694       0.32908474       0.99762363 </v>
    <v>       0.76766011       0.49448666       0.16403959 </v>
    <v>       0.26981567       0.82170252       0.81327952 </v>
    <v>       0.75330860       0.49912186       0.83502006 </v>
    <v>       0.22593438       0.49922888       0.17377374 </v>
    <v>       0.99100282       0.67849887       0.34073993 </v>
    <v>       0.49613379       0.67470180       0.01842607 </v>
    <v>       0.51968497       0.02901502       0.66859644 </v>
    <v>       0.98471825       0.00871608       0.66687409 </v>
    <v>       0.72907374       0.81403774       0.80775588 </v>
    <v>       0.49471775       0.00024088       0.00069747 </v>
    <v>       0.76188509       0.17631899       0.49024026 </v>
    <v>       0.22602198       0.16624377       0.17075980 </v>
    <v>       0.75750203       0.18502446       0.84824001 </v>
    <v>       0.24465198       0.16978925       0.83325099 </v>
    <v>       0.02799742       0.32960813       0.98794193 </v>
    <v>       0.74466528       0.82793776       0.50407590 </v>
    <v>       0.25275777       0.83520639       0.18410690 </v>
    <v>       0.74740984       0.83962676       0.18318709 </v>
    <v>       0.24311054       0.16344990       0.49840967 </v>
    <v>       0.01753592       0.32386123       0.34548634 </v>
    <v>       0.24701982       0.50551291       0.82512315 </v>
    <v>       0.48963386       0.33060567       0.67247773 </v>
    <v>       0.25283471       0.49649703       0.49929338 </v>
    <v>       0.50451792       0.67190839       0.32705629 </v>
    <v>       0.48490198       0.63819108       0.65534582 </v>
    <v>       0.01199578       0.65712204       0.65630363 </v>
    <v>       0.99725063       0.99659769       0.33980485 </v>
    <v>       0.48640615       0.32423458       0.32966238 </v>
    <v>       0.74336290       0.49534382       0.49787704 </v>
    <v>       0.00448350       0.99219509       0.99865195 </v>
    <v>       0.50341209       0.00399032       0.33269608 </v>
    <v>       0.26008414       0.83617065       0.50509397 </v>
    <v>       0.77469337       0.17146229       0.16076185 </v>
    <v>       0.00299745       0.68641250       0.00096064 </v>
    <v>       0.00469283       0.32787029       0.66636493 </v>
   </varray>
  </structure>
  <varray name="forces" >
   <v>       0.02120344       0.01179550      -0.01744592 </v>
   <v>      -0.01955958       0.01469359       0.00505214 </v>
   <v>      -0.01329124       0.01440772       0.03528822 </v>
   <v>       0.00092302       0.01623603       0.00973129 </v>
   <v>       0.00910511      -0.02210557       0.00052957 </v>
   <v>       0.04821182       0.01247850      -0.01903406 </v>
   <v>      -0.01939365      -0.00928948      -0.00881549 </v>
   <v>       0.00947107       0.01650453       0.00766296 </v>
   <v>      -0.01024530       0.00370103       0.00364438 </v>
   <v>       0.01514374       0.00644736       0.01193329 </v>
   <v>      -0.01239577       0.00969473      -0.01118583 </v>
   <v>      -0.02005819      -0.01506097      -0.00715125 </v>
   <v>       0.00852235       0.01333887      -0.00271187 </v>
   <v>      -0.00465290      -0.01557193       0.00896027 </v>
   <v>       0.00734600       0.00085534      -0.00305638 </v>
   <v>      -0.02557289       0.00503048      -0.01324128 </v>
   <v>       0.00225504      -0.00370891      -0.01401241 </v>
   <v>      -0.02158500       0.00830158      -0.00849739 </v>
   <v>       0.01335911      -0.00314271       0.00893690 </v>
   <v>      -0.00216928      -0.01347139      -0.00016971 </v>
   <v>      -0.03522502      -0.00167807       0.01707506 </v>
   <v>       0.00025119      -0.01237712       0.00860899 </v>
   <v>      -0.00062235      -0.00491447       0.00013787 </v>
   <v>      -0.00307788       0.01135145      -0.01663655 </v>
   <v>      -0.02600385       0.02674688      -0.00114353 </v>
   <v>       0.03213789      -0.01327326      -0.01135426 </v>
   <v>      -0.02482507      -0.01341593       0.00402656 </v>
   <v>       0.02128370      -0.00646296       0.01121317 </v>
   <v>       0.02833249      -0.00092787       0.01215887 </v>
   <v>       0.01505825      -0.00220888      -0.01479248 </v>
   <v>       0.02982474       0.02057126      -0.00707323 </v>
   <v>      -0.02428577      -0.01866624      -0.00430209 </v>
   <v>      -0.00262159       0.00238474       0.00550306 </v>
   <v>      -0.02165713      -0.02150399       0.00711527 </v>
   <v>       0.03193611      -0.01717293       0.00000775 </v>
   <v>      -0.00712259       0.00041310       0.00303810 </v>
  </varray>
  <varray name="stress" >
   <v>       2.06424806       0.45285299       0.09910920 </v>
   <v>       0.45285303       2.24956302       0.21765343 </v>
   <v>       0.09910920       0.21765339       1.97841844 </v>
  </varray>
  <energy>
   <i name="e_fr_energy">   -363.98369621 </i>
   <i name="e_wo_entrp">   -363.99175494 </i>
   <i name="e_0_energy">      0.02417620 </i>
  </energy>
  <time name="totalsc">    9.39    9.93</time>
 </calculation>
 <calculation>
  <scstep>
   <time name="dav">    0.91    0.94</time>
   <time name="total">    1.12    1.21</time>
   <energy>
    <i name="alphaZ">   1428.16081586 </i>
    <i name="ewald"> -17452.30828382 </i>
    <i name="hartreedc">  -6559.17298197 </i>
    <i name="XCdc">   -451.17443138 </i>
    <i name="pawpsdc">  32492.00305485 </i>
    <i name="pawaedc"> -30806.23947933 </i>
    <i name="eentropy">      0.02405529 </i>
    <i name="bandstr">  -2315.76721347 </i>
    <i name="atom">  23300.48864773 </i>
    <i name="e_fr_energy">   -363.98581624 </i>
    <i name="e_wo_entrp">   -364.00987153 </i>
    <i name="e_0_energy">   -363.99383467 </i>
   </energy>
  </scstep>
  <scstep>
   <time name="diag">    0.07    0.07</time>
   <time name="diis">    0.71    0.73</time>
   <time name="orth">    0.01    0.01</time>
   <time name="total">    0.86    0.89</time>
   <energy>
    <i name="e_fr_energy">   -363.98574829 </i>
    <i name="e_wo_entrp">   -364.01017280 </i>
    <i name="e_0_energy">   -363.99388979 </i>
   </energy>
  </scstep>
  <scstep>
   <time name="diag">    0.07    0.07</time>
   <time name="diis">    0.71    0.75</time>
   <time name="orth">    0.01    0.01</time>
   <time name="total">    0.86    0.91</time>
   <energy>
    <i name="e_fr_energy">   -363.98513831 </i>
    <i name="e_wo_entrp">   -364.00928231 </i>
    <i name="e_0_energy">   -363.99318631 </i>
   </energy>
  </scstep>
  <scstep>
   <time name="diag">    0.07    0.08</time>
   <time name="diis">    0.75    0.76</time>
   <time name="orth">    0.01    0.01</time>
   <time name="total">    0.90    0.93</time>
   <energy>
    <i name="e_fr_energy">   -363.98492350 </i>
    <i name="e_wo_entrp">   -364.00917637 </i>
    <i name="e_0_energy">   -363.99300779 </i>
   </energy>
  </scstep>
  <scstep>
   <time name="diag">    0.08    0.08</time>
   <time name="diis">    0.70    0.71</time>
   <time name="orth">    0.01    0.01</time>
   <time name="total">    0.86    0.88</time>
   <energy>
    <i name="e_fr_energy">   -363.98487493 </i>
    <i name="e_wo_entrp">   -364.00914437 </i>
    <i name="e_0_energy">   -363.99296474 </i>
   </energy>
  </scstep>
  <scstep>
   <time name="diag">    0.07    0.08</time>
   <time name="diis">    0.66    0.67</time>
   <time name="orth">    0.01    0.01</time>
   <time name="total">    0.78    0.81</time>
   <energy>
    <i name="alphaZ">   1428.16081586 </i>
    <i name="ewald"> -17452.30828382 </i>
    <i name="hartreedc">  -6562.60771269 </i>
    <i name="XCdc">   -451.03108501 </i>
    <i name="pawpsdc">  32452.98411431 </i>
    <i name="pawaedc"> -30767.05777513 </i>
    <i name="eentropy">      0.02425015 </i>
    <i name="bandstr">  -2312.63783868 </i>
    <i name="atom">  23300.48864773 </i>
    <i name="e_fr_energy">   -363.98486728 </i>
    <i name="e_wo_entrp">   -364.00911743 </i>
    <i name="e_0_energy">   -363.99295066 </i>
   </energy>
  </scstep>
  <structure>
   <crystal>
    <varray name="basis" >
     <v>       6.95402332      -0.00028978      -0.01728188 </v>
     <v>       0.00021256      10.21238566       0.03531157 </v>
     <v>      -0.02531682       0.03533544      10.26615433 </v>
    </varray>
    <i name="volume">    729.06006354 </i>
    <varray name="rec_basis" >
     <v>       0.14380253      -0.00000422       0.00035464 </v>
     <v>       0.00000324       0.09792148      -0.00033703 </v>
     <v>       0.00024206      -0.00033682       0.09740921 </v>
    </varray>
   </crystal>
   <varray name="positions" >
    <v>       0.47617126       0.32910873       0.99759235 </v>
    <v>       0.76762751       0.49455656       0.16404518 </v>
    <v>       0.26978445       0.82172158       0.81323580 </v>
    <v>       0.75330639       0.49914133       0.83504153 </v>
    <v>       0.22595124       0.49901228       0.17377559 </v>
    <v>       0.99118947       0.67852344       0.34065589 </v>
    <v>       0.49604129       0.67469899       0.01843130 </v>
    <v>       0.51969037       0.02904343       0.66861395 </v>
    <v>       0.98470216       0.00873083       0.66688678 </v>
    <v>       0.72910131       0.81405710       0.80781132 </v>
    <v>       0.49467276       0.00024966       0.00068861 </v>
    <v>       0.76183950       0.17631177       0.49021936 </v>
    <v>       0.22601962       0.16645375       0.17076660 </v>
    <v>       0.75748912       0.18501089       0.84825878 </v>
    <v>       0.24467010       0.16976979       0.83325039 </v>
    <v>       0.02794576       0.32961083       0.98792355 </v>
    <v>       0.74463244       0.82795027       0.50402187 </v>
    <v>       0.25268106       0.83527537       0.18393623 </v>
    <v>       0.74752435       0.83964442       0.18321636 </v>
    <v>       0.24310409       0.16340058       0.49837795 </v>
    <v>       0.01748081       0.32385042       0.34551451 </v>
    <v>       0.24702070       0.50550636       0.82513846 </v>
    <v>       0.48968296       0.33060655       0.67248080 </v>
    <v>       0.25281225       0.49653131       0.49923492 </v>
    <v>       0.50447668       0.67195892       0.32708697 </v>
    <v>       0.48495429       0.63817598       0.65532231 </v>
    <v>       0.01195246       0.65710006       0.65631752 </v>
    <v>       0.99725698       0.99660694       0.33984203 </v>
    <v>       0.48644363       0.32421926       0.32968674 </v>
    <v>       0.74341092       0.49532589       0.49783351 </v>
    <v>       0.00462373       0.99222329       0.99867156 </v>
    <v>       0.50326835       0.00385618       0.33264337 </v>
    <v>       0.26008703       0.83616807       0.50530645 </v>
    <v>       0.77463776       0.17139170       0.16077333 </v>
    <v>       0.00312620       0.68635577       0.00101004 </v>
    <v>       0.00462298       0.32786770       0.66638709 </v>
   </varray>
  </structure>
  <varray name="forces" >
   <v>       0.01907616       0.00960178      -0.01874955 </v>
   <v>      -0.01970382       0.01335035       0.00687781 </v>
   <v>      -0.01071454       0.01170435       0.03775829 </v>
   <v>      -0.00028521       0.01681406       0.00750220 </v>
   <v>       0.00894145      -0.01443075       0.00255518 </v>
   <v>       0.04644955       0.01508445      -0.01556666 </v>
   <v>      -0.01955661      -0.00820998      -0.00647633 </v>
   <v>       0.01090262       0.01705165       0.00787276 </v>
   <v>      -0.01235787       0.00389207       0.00148513 </v>
   <v>       0.01389147       0.00400392       0.00681990 </v>
   <v>      -0.01255328       0.01032249      -0.01072846 </v>
   <v>      -0.01731033      -0.01609890      -0.00739945 </v>
   <v>       0.00559516       0.00888182      -0.00090428 </v>
   <v>      -0.00418036      -0.01511605       0.00952400 </v>
   <v>       0.00725923       0.00525761      -0.00349831 </v>
   <v>      -0.02425097       0.00236669      -0.01556058 </v>
   <v>       0.00489507      -0.00673245      -0.01420286 </v>
   <v>      -0.02108359       0.00763526      -0.00118620 </v>
   <v>       0.01020441      -0.00555250       0.01209515 </v>
   <v>      -0.00520415      -0.01198591       0.00085560 </v>
   <v>      -0.03358893      -0.00488700       0.01855351 </v>
   <v>       0.00139570      -0.01239774       0.00409783 </v>
   <v>      -0.00441444      -0.00418816       0.00073856 </v>
   <v>      -0.00146805       0.01217744      -0.01215888 </v>
   <v>      -0.02804492       0.03056944      -0.00484954 </v>
   <v>       0.02953050      -0.01618045      -0.01089654 </v>
   <v>      -0.02236991      -0.01376561       0.00321252 </v>
   <v>       0.02370917      -0.00862426       0.00936325 </v>
   <v>       0.02722985      -0.00373050       0.01304093 </v>
   <v>       0.01448730       0.00024247      -0.01337797 </v>
   <v>       0.02895808       0.02205761      -0.00738414 </v>
   <v>      -0.02194898      -0.01303360      -0.00249598 </v>
   <v>      -0.00352402       0.00077703      -0.00603958 </v>
   <v>      -0.01864330      -0.02105038       0.00824733 </v>
   <v>       0.03097178      -0.01533764      -0.00109049 </v>
   <v>      -0.00229422      -0.00046861       0.00196583 </v>
  </varray>
  <varray name="stress" >
   <v>       1.04814661       0.46821909       0.11067149 </v>
   <v>       0.46821912       1.24208384       0.22742585 </v>
   <v>       0.11067152       0.22742588       0.98311120 </v>
  </varray>
  <energy>
   <i name="e_fr_energy">   -363.98486728 </i>
   <i name="e_wo_entrp">   -363.99295066 </i>
   <i name="e_0_energy">      0.02425015 </i>
  </energy>
  <time name="totalsc">    6.91    7.24</time>
 </calculation>
 <calculation>
  <scstep>
   <time name="dav">    1.00    1.02</time>
   <time name="total">    1.20    1.28</time>
   <energy>
    <i name="alphaZ">   1425.94311787 </i>
    <i name="ewald"> -17442.82903035 </i>
    <i name="hartreedc">  -6559.54314482 </i>
    <i name="XCdc">   -451.44276039 </i>
    <i name="pawpsdc">  32455.14249998 </i>
    <i name="pawaedc"> -30769.24196611 </i>
    <i name="eentropy">      0.02404752 </i>
    <i name="bandstr">  -2322.52993836 </i>
    <i name="atom">  23300.48864773 </i>
    <i name="e_fr_energy">   -363.98852694 </i>
    <i name="e_wo_entrp">   -364.01257446 </i>
    <i name="e_0_energy">   -363.99654278 </i>
   </energy>
  </scstep>
  <scstep>
   <time name="diag">    0.07    0.07</time>
   <time name="diis">    0.78    0.80</time>
   <time name="orth">    0.01    0.01</time>
   <time name="total">    0.93    0.97</time>
   <energy>
    <i name="e_fr_energy">   -363.98826943 </i>
    <i name="e_wo_entrp">   -364.01295769 </i>
    <i name="e_0_energy">   -363.99649885 </i>
   </energy>
  </scstep>
  <scstep>
   <time name="diag">    0.07    0.07</time>
   <time name="diis">    0.80    0.82</time>
   <time name="orth">    0.01    0.01</time>
   <time name="total">    0.95    1.01</time>
   <energy>
    <i name="e_fr_energy">   -363.98625121 </i>
    <i name="e_wo_entrp">   -364.01046831 </i>
    <i name="e_0_energy">   -363.99432358 </i>
   </energy>
  </scstep>
  <scstep>
   <time name="diag">    0.07    0.08</time>
   <time name="diis">    0.72    0.77</time>
   <time name="orth">    0.01    0.01</time>
   <time name="total">    0.87    0.94</time>
   <energy>
    <i name="e_fr_energy">   -363.98559032 </i>
    <i name="e_wo_entrp">   -364.00999514 </i>
    <i name="e_0_energy">   -363.99372526 </i>
   </energy>
  </scstep>
  <scstep>
   <time name="diag">    0.07    0.07</time>
   <time name="diis">    0.73    0.76</time>
   <time name="orth">    0.01    0.01</time>
   <time name="total">    0.87    0.92</time>
   <energy>
    <i name="e_fr_energy">   -363.98545075 </i>
    <i name="e_wo_entrp">   -364.00988646 </i>
    <i name="e_0_energy">   -363.99359599 </i>
   </energy>
  </scstep>
  <scstep>
   <time name="diag">    0.07    0.07</time>
   <time name="diis">    0.69    0.71</time>
   <time name="orth">    0.01    0.01</time>
   <time name="total">    0.84    0.89</time>
   <energy>
    <i name="e_fr_energy">   -363.98544610 </i>
    <i name="e_wo_entrp">   -364.00984272 </i>
    <i name="e_0_energy">   -363.99357831 </i>
   </energy>
  </scstep>
  <scstep>
   <time name="diag">    0.07    0.07</time>
   <time name="diis">    0.61    0.63</time>
   <time name="orth">    0.01    0.01</time>
   <time name="total">    0.75    0.79</time>
   <energy>
    <i name="e_fr_energy">   -363.98544142 </i>
    <i name="e_wo_entrp">   -364.00986003 </i>
    <i name="e_0_energy">   -363.99358096 </i>
   </energy>
  </scstep>
  <scstep>
   <time name="diag">    0.07    0.07</time>
   <time name="diis">    0.43    0.44</time>
   <time name="orth">    0.01    0.01</time>
   <time name="total">    0.54    0.58</time>
   <energy>
    <i name="alphaZ">   1425.94311787 </i>
    <i name="ewald"> -17442.82903035 </i>
    <i name="hartreedc">  -6565.39793420 </i>
    <i name="XCdc">   -451.19861970 </i>
    <i name="pawpsdc">  32387.41062773 </i>
    <i name="pawaedc"> -30701.53143686 </i>
    <i name="eentropy">      0.02440526 </i>
    <i name="bandstr">  -2316.89521794 </i>
    <i name="atom">  23300.48864773 </i>
    <i name="e_fr_energy">   -363.98544046 </i>
    <i name="e_wo_entrp">   -364.00984572 </i>
    <i name="e_0_energy">   -363.99357555 </i>
   </energy>
  </scstep>
  <structure>
   <crystal>
    <varray name="basis" >
     <v>       6.95751377      -0.00044600      -0.01752970 </v>
     <v>      -0.00001669      10.21945748       0.03572330 </v>
     <v>      -0.02568696       0.03576159      10.26985540 </v>
    </varray>
    <i name="volume">    730.19393418 </i>
    <varray name="rec_basis" >
     <v>       0.14373041      -0.00000102       0.00035950 </v>
     <v>       0.00000541       0.09785374      -0.00034073 </v>
     <v>       0.00024532      -0.00034038       0.09737415 </v>
    </varray>
   </crystal>
   <varray name="positions" >
    <v>       0.47625239       0.32915264       0.99753510 </v>
    <v>       0.76756785       0.49468448       0.16405540 </v>
    <v>       0.26972731       0.82175648       0.81315576 </v>
    <v>       0.75330236       0.49917695       0.83508082 </v>
    <v>       0.22598211       0.49861588       0.17377900 </v>
    <v>       0.99153110       0.67856843       0.34050207 </v>
    <v>       0.49587200       0.67469386       0.01844088 </v>
    <v>       0.51970026       0.02909541       0.66864600 </v>
    <v>       0.98467271       0.00875781       0.66691001 </v>
    <v>       0.72915179       0.81409254       0.80791279 </v>
    <v>       0.49459040       0.00026574       0.00067240 </v>
    <v>       0.76175604       0.17629855       0.49018110 </v>
    <v>       0.22601531       0.16683805       0.17077903 </v>
    <v>       0.75746550       0.18498605       0.84829313 </v>
    <v>       0.24470327       0.16973419       0.83324930 </v>
    <v>       0.02785122       0.32961578       0.98788989 </v>
    <v>       0.74457234       0.82797317       0.50392296 </v>
    <v>       0.25254065       0.83540161       0.18362383 </v>
    <v>       0.74773393       0.83967675       0.18326993 </v>
    <v>       0.24309229       0.16331033       0.49831990 </v>
    <v>       0.01737994       0.32383063       0.34556606 </v>
    <v>       0.24702230       0.50549438       0.82516649 </v>
    <v>       0.48977284       0.33060816       0.67248642 </v>
    <v>       0.25277115       0.49659405       0.49912793 </v>
    <v>       0.50440120       0.67205137       0.32714314 </v>
    <v>       0.48505002       0.63814836       0.65527928 </v>
    <v>       0.01187316       0.65705982       0.65634294 </v>
    <v>       0.99726860       0.99662388       0.33991009 </v>
    <v>       0.48651223       0.32419123       0.32973133 </v>
    <v>       0.74349880       0.49529308       0.49775384 </v>
    <v>       0.00488040       0.99227489       0.99870746 </v>
    <v>       0.50300527       0.00361069       0.33254690 </v>
    <v>       0.26009233       0.83616333       0.50569539 </v>
    <v>       0.77453596       0.17126251       0.16079433 </v>
    <v>       0.00336186       0.68625195       0.00110047 </v>
    <v>       0.00449514       0.32786296       0.66642764 </v>
   </varray>
  </structure>
  <varray name="forces" >
   <v>       0.01560181       0.00604570      -0.02239514 </v>
   <v>      -0.01823139       0.01098730       0.00862060 </v>
   <v>      -0.00846329       0.00598198       0.04304467 </v>
   <v>       0.00011532       0.01813030       0.00290231 </v>
   <v>       0.00717910      -0.00020451       0.00424433 </v>
   <v>       0.04206604       0.01832773      -0.01126463 </v>
   <v>      -0.01803452      -0.00772952      -0.00303923 </v>
   <v>       0.01357821       0.02106939       0.00733441 </v>
   <v>      -0.01611823       0.00779864      -0.00178103 </v>
   <v>       0.01456300      -0.00201875      -0.00085812 </v>
   <v>      -0.01106306       0.01299176      -0.01033493 </v>
   <v>      -0.01309922      -0.01739325      -0.00684346 </v>
   <v>       0.00037990      -0.00465136       0.00000234 </v>
   <v>      -0.00307768      -0.01255728       0.01007694 </v>
   <v>       0.00806633       0.01522522      -0.00451443 </v>
   <v>      -0.02377015      -0.00064671      -0.01774870 </v>
   <v>       0.00956326      -0.01416020      -0.01107323 </v>
   <v>      -0.01897150       0.00263365       0.01878697 </v>
   <v>       0.00529872      -0.00982676       0.01581197 </v>
   <v>      -0.00995612      -0.00771934       0.00256134 </v>
   <v>      -0.03415422      -0.01046103       0.02224838 </v>
   <v>       0.00079812      -0.01311996      -0.00350780 </v>
   <v>      -0.01144207      -0.00195921       0.00161237 </v>
   <v>       0.00131098       0.01230636      -0.00380228 </v>
   <v>      -0.02945246       0.03596052      -0.01303535 </v>
   <v>       0.02532275      -0.02411718      -0.01016437 </v>
   <v>      -0.01855678      -0.01665669       0.00254771 </v>
   <v>       0.02552098      -0.01064587       0.00542396 </v>
   <v>       0.02597611      -0.00627147       0.01507098 </v>
   <v>       0.01331568       0.00471885      -0.01017770 </v>
   <v>       0.02583836       0.02620981      -0.00919055 </v>
   <v>      -0.01578913      -0.00086451       0.00087615 </v>
   <v>      -0.00437884      -0.00198297      -0.02540981 </v>
   <v>      -0.01328586      -0.01982831       0.00946259 </v>
   <v>       0.02765017      -0.01447330      -0.00396536 </v>
   <v>       0.00569968      -0.00109902      -0.00152188 </v>
  </varray>
  <varray name="stress" >
   <v>      -1.00134899       0.48110401       0.13712019 </v>
   <v>       0.48110398      -0.90172872       0.20386793 </v>
   <v>       0.13712025       0.20386801      -1.04524458 </v>
  </varray>
  <energy>
   <i name="e_fr_energy">   -363.98544046 </i>
   <i name="e_wo_entrp">   -363.99357555 </i>
   <i name="e_0_energy">      0.02440526 </i>
  </energy>
  <time name="totalsc">    8.55    9.05</time>
 </calculation>
 <calculation>
  <scstep>
   <time name="dav">    0.95    0.97</time>
   <time name="total">    1.19    1.27</time>
   <energy>
    <i name="alphaZ">   1426.21662696 </i>
    <i name="ewald"> -17443.99929938 </i>
    <i name="hartreedc">  -6565.71180094 </i>
[...]
       <r>    6.4718    1.0000 </r>
       <r>    6.5343    1.0000 </r>
       <r>    6.5575    1.0000 </r>
       <r>    6.5858    1.0000 </r>
       <r>    6.6499    1.0000 </r>
       <r>    6.6847    1.0000 </r>
       <r>    6.7223    1.0000 </r>
       <r>    6.7617    1.0000 </r>
       <r>    6.8156    1.0001 </r>
       <r>    6.8569    1.0003 </r>
       <r>    6.8816    1.0006 </r>
       <r>    6.9316    1.0027 </r>
       <r>    6.9618    1.0058 </r>
       <r>    6.9676    1.0066 </r>
       <r>    6.9856    1.0098 </r>
       <r>    7.0328    1.0221 </r>
       <r>    7.0561    1.0291 </r>
       <r>    7.0899    1.0354 </r>
       <r>    7.1257    1.0254 </r>
       <r>    7.1826    0.9300 </r>
       <r>    7.2003    0.8728 </r>
       <r>    7.2289    0.7522 </r>
       <r>    7.2501    0.6439 </r>
       <r>    7.3276    0.2274 </r>
       <r>    7.3539    0.1197 </r>
       <r>    7.3981    0.0066 </r>
       <r>    7.4237   -0.0234 </r>
       <r>    7.4763   -0.0338 </r>
       <r>    7.4878   -0.0313 </r>
       <r>    7.5184   -0.0223 </r>
       <r>    7.5770   -0.0078 </r>
       <r>    7.5869   -0.0063 </r>
       <r>    7.6241   -0.0025 </r>
       <r>    7.6360   -0.0018 </r>
       <r>    7.6868   -0.0004 </r>
       <r>    7.7458   -0.0000 </r>
       <r>    7.7903   -0.0000 </r>
       <r>    7.8464   -0.0000 </r>
       <r>    7.8791   -0.0000 </r>
       <r>    7.9318   -0.0000 </r>
       <r>    8.0281   -0.0000 </r>
       <r>    8.0487   -0.0000 </r>
       <r>    8.0992   -0.0000 </r>
       <r>    8.2216   -0.0000 </r>
       <r>    8.2587   -0.0000 </r>
       <r>    8.4046   -0.0000 </r>
       <r>    8.5302   -0.0000 </r>
       <r>    8.6582   -0.0000 </r>
       <r>    9.1149   -0.0000 </r>
      </set>
     </set>
    </set>
   </array>
  </eigenvalues>
  <separator name="orbital magnetization" >
   <v name="MAGDIPOLOUT">      0.00000000      0.00000000      0.00000000</v>
  </separator>
  <dos>
   <i name="efermi">      7.27606535 </i>
   <total>
    <array>
     <dimension dim="1">gridpoints</dimension>
     <dimension dim="2">spin</dimension>
     <field>energy</field>
     <field>total</field>
     <field>integrated</field>
     <set>
      <set comment="spin 1">
       <r>   -49.8866     0.0000     0.0000 </r>
       <r>   -49.6804     0.0000     0.0000 </r>
       <r>   -49.4741     0.0000     0.0000 </r>
       <r>   -49.2679     0.0000     0.0000 </r>
       <r>   -49.0616     0.0000     0.0000 </r>
       <r>   -48.8554     0.0000     0.0000 </r>
       <r>   -48.6491     0.0000     0.0000 </r>
       <r>   -48.4429    -0.0000    -0.0000 </r>
       <r>   -48.2366    -0.0000    -0.0000 </r>
       <r>   -48.0304    -0.0000    -0.0000 </r>
       <r>   -47.8241    -0.0000    -0.0000 </r>
       <r>   -47.6178    -0.0000    -0.0000 </r>
       <r>   -47.4116    -0.0345    -0.0071 </r>
       <r>   -47.2053    -0.4778    -0.1057 </r>
       <r>   -46.9991    13.7154     2.7232 </r>
       <r>   -46.7928    35.6469    10.0755 </r>
       <r>   -46.5866    19.9365    14.1874 </r>
       <r>   -46.3803    -0.8726    14.0075 </r>
       <r>   -46.1741    -0.0362    14.0000 </r>
       <r>   -45.9678    -0.0000    14.0000 </r>
       <r>   -45.7616    -0.0000    14.0000 </r>
       <r>   -45.5553     0.0000    14.0000 </r>
       <r>   -45.3491     0.0000    14.0000 </r>
       <r>   -45.1428     0.0000    14.0000 </r>
       <r>   -44.9366     0.0000    14.0000 </r>
       <r>   -44.7303     0.0000    14.0000 </r>
       <r>   -44.5240     0.0000    14.0000 </r>
       <r>   -44.3178     0.0000    14.0000 </r>
       <r>   -44.1115     0.0000    14.0000 </r>
       <r>   -43.9053     0.0000    14.0000 </r>
       <r>   -43.6990     0.0000    14.0000 </r>
       <r>   -43.4928     0.0000    14.0000 </r>
       <r>   -43.2865     0.0000    14.0000 </r>
       <r>   -43.0803     0.0000    14.0000 </r>
       <r>   -42.8740     0.0000    14.0000 </r>
       <r>   -42.6678     0.0000    14.0000 </r>
       <r>   -42.4615     0.0000    14.0000 </r>
       <r>   -42.2553    -0.0000    14.0000 </r>
       <r>   -42.0490    -0.0000    14.0000 </r>
       <r>   -41.8427    -0.0000    14.0000 </r>
       <r>   -41.6365    -0.0000    14.0000 </r>
       <r>   -41.4302    -0.0022    13.9996 </r>
       <r>   -41.2240    -0.3727    13.9227 </r>
       <r>   -41.0177     3.4976    14.6441 </r>
       <r>   -40.8115    40.3662    22.9698 </r>
       <r>   -40.6052    33.8262    29.9465 </r>
       <r>   -40.3990     0.4251    30.0342 </r>
       <r>   -40.1927    -0.1656    30.0000 </r>
       <r>   -39.9865    -0.0002    30.0000 </r>
       <r>   -39.7802    -0.0000    30.0000 </r>
       <r>   -39.5740    -0.0000    30.0000 </r>
       <r>   -39.3677     0.0000    30.0000 </r>
       <r>   -39.1615     0.0000    30.0000 </r>
       <r>   -38.9552     0.0000    30.0000 </r>
       <r>   -38.7489     0.0000    30.0000 </r>
       <r>   -38.5427     0.0000    30.0000 </r>
       <r>   -38.3364     0.0000    30.0000 </r>
       <r>   -38.1302     0.0000    30.0000 </r>
       <r>   -37.9239     0.0000    30.0000 </r>
       <r>   -37.7177     0.0000    30.0000 </r>
       <r>   -37.5114     0.0000    30.0000 </r>
       <r>   -37.3052     0.0000    30.0000 </r>
       <r>   -37.0989     0.0000    30.0000 </r>
       <r>   -36.8927     0.0000    30.0000 </r>
       <r>   -36.6864     0.0000    30.0000 </r>
       <r>   -36.4802     0.0000    30.0000 </r>
       <r>   -36.2739     0.0000    30.0000 </r>
       <r>   -36.0677     0.0000    30.0000 </r>
       <r>   -35.8614     0.0000    30.0000 </r>
       <r>   -35.6551     0.0000    30.0000 </r>
       <r>   -35.4489     0.0000    30.0000 </r>
       <r>   -35.2426     0.0000    30.0000 </r>
       <r>   -35.0364     0.0000    30.0000 </r>
       <r>   -34.8301     0.0000    30.0000 </r>
       <r>   -34.6239     0.0000    30.0000 </r>
       <r>   -34.4176     0.0000    30.0000 </r>
       <r>   -34.2114     0.0000    30.0000 </r>
       <r>   -34.0051     0.0000    30.0000 </r>
       <r>   -33.7989     0.0000    30.0000 </r>
       <r>   -33.5926     0.0000    30.0000 </r>
       <r>   -33.3864     0.0000    30.0000 </r>
       <r>   -33.1801     0.0000    30.0000 </r>
       <r>   -32.9738     0.0000    30.0000 </r>
       <r>   -32.7676     0.0000    30.0000 </r>
       <r>   -32.5613     0.0000    30.0000 </r>
       <r>   -32.3551     0.0000    30.0000 </r>
       <r>   -32.1488     0.0000    30.0000 </r>
       <r>   -31.9426     0.0000    30.0000 </r>
       <r>   -31.7363     0.0000    30.0000 </r>
       <r>   -31.5301     0.0000    30.0000 </r>
       <r>   -31.3238     0.0000    30.0000 </r>
       <r>   -31.1176     0.0000    30.0000 </r>
       <r>   -30.9113     0.0000    30.0000 </r>
       <r>   -30.7051     0.0000    30.0000 </r>
       <r>   -30.4988     0.0000    30.0000 </r>
       <r>   -30.2926     0.0000    30.0000 </r>
       <r>   -30.0863     0.0000    30.0000 </r>
       <r>   -29.8800     0.0000    30.0000 </r>
       <r>   -29.6738     0.0000    30.0000 </r>
       <r>   -29.4675     0.0000    30.0000 </r>
       <r>   -29.2613     0.0000    30.0000 </r>
       <r>   -29.0550     0.0000    30.0000 </r>
       <r>   -28.8488     0.0000    30.0000 </r>
       <r>   -28.6425     0.0000    30.0000 </r>
       <r>   -28.4363     0.0000    30.0000 </r>
       <r>   -28.2300     0.0000    30.0000 </r>
       <r>   -28.0238     0.0000    30.0000 </r>
       <r>   -27.8175     0.0000    30.0000 </r>
       <r>   -27.6113     0.0000    30.0000 </r>
       <r>   -27.4050     0.0000    30.0000 </r>
       <r>   -27.1988     0.0000    30.0000 </r>
       <r>   -26.9925     0.0000    30.0000 </r>
       <r>   -26.7862     0.0000    30.0000 </r>
       <r>   -26.5800     0.0000    30.0000 </r>
       <r>   -26.3737     0.0000    30.0000 </r>
       <r>   -26.1675     0.0000    30.0000 </r>
       <r>   -25.9612     0.0000    30.0000 </r>
       <r>   -25.7550     0.0000    30.0000 </r>
       <r>   -25.5487     0.0000    30.0000 </r>
       <r>   -25.3425     0.0000    30.0000 </r>
       <r>   -25.1362     0.0000    30.0000 </r>
       <r>   -24.9300     0.0000    30.0000 </r>
       <r>   -24.7237    -0.0000    30.0000 </r>
       <r>   -24.5175    -0.0000    30.0000 </r>
       <r>   -24.3112    -0.0000    30.0000 </r>
       <r>   -24.1049    -0.0000    30.0000 </r>
       <r>   -23.8987    -0.0000    30.0000 </r>
       <r>   -23.6924    -0.0279    29.9942 </r>
       <r>   -23.4862    -0.9005    29.8085 </r>
       <r>   -23.2799    16.1820    33.1461 </r>
       <r>   -23.0737    64.4709    46.4434 </r>
       <r>   -22.8674    81.1887    63.1889 </r>
       <r>   -22.6612    33.1893    70.0343 </r>
       <r>   -22.4549     9.9539    72.0873 </r>
       <r>   -22.2487    -0.3979    72.0052 </r>
       <r>   -22.0424    -0.0254    72.0000 </r>
       <r>   -21.8362    -0.0000    72.0000 </r>
       <r>   -21.6299    -0.0000    72.0000 </r>
       <r>   -21.4237     0.0000    72.0000 </r>
       <r>   -21.2174     0.0000    72.0000 </r>
       <r>   -21.0111     0.0000    72.0000 </r>
       <r>   -20.8049    -0.0000    72.0000 </r>
       <r>   -20.5986    -0.0000    72.0000 </r>
       <r>   -20.3924    -0.0000    72.0000 </r>
       <r>   -20.1861    -0.0000    72.0000 </r>
       <r>   -19.9799    -0.0000    72.0000 </r>
       <r>   -19.7736    -0.0117    71.9976 </r>
       <r>   -19.5674    -0.3672    71.9219 </r>
       <r>   -19.3611     6.4835    73.2591 </r>
       <r>   -19.1549    22.7341    77.9481 </r>
       <r>   -18.9486    84.6548    95.4084 </r>
       <r>   -18.7424    84.0644   112.7470 </r>
       <r>   -18.5361    35.4280   120.0542 </r>
       <r>   -18.3299    -0.1094   120.0316 </r>
       <r>   -18.1236    -0.1530   120.0000 </r>
       <r>   -17.9173    -0.0002   120.0000 </r>
       <r>   -17.7111    -0.0000   120.0000 </r>
       <r>   -17.5048    -0.0000   120.0000 </r>
       <r>   -17.2986     0.0000   120.0000 </r>
       <r>   -17.0923     0.0000   120.0000 </r>
       <r>   -16.8861     0.0000   120.0000 </r>
       <r>   -16.6798     0.0000   120.0000 </r>
       <r>   -16.4736     0.0000   120.0000 </r>
       <r>   -16.2673     0.0000   120.0000 </r>
       <r>   -16.0611     0.0000   120.0000 </r>
       <r>   -15.8548     0.0000   120.0000 </r>
       <r>   -15.6486     0.0000   120.0000 </r>
       <r>   -15.4423     0.0000   120.0000 </r>
       <r>   -15.2360     0.0000   120.0000 </r>
       <r>   -15.0298     0.0000   120.0000 </r>
       <r>   -14.8235     0.0000   120.0000 </r>
       <r>   -14.6173     0.0000   120.0000 </r>
       <r>   -14.4110     0.0000   120.0000 </r>
       <r>   -14.2048     0.0000   120.0000 </r>
       <r>   -13.9985     0.0000   120.0000 </r>
       <r>   -13.7923     0.0000   120.0000 </r>
       <r>   -13.5860     0.0000   120.0000 </r>
       <r>   -13.3798     0.0000   120.0000 </r>
       <r>   -13.1735     0.0000   120.0000 </r>
       <r>   -12.9673     0.0000   120.0000 </r>
       <r>   -12.7610     0.0000   120.0000 </r>
       <r>   -12.5548     0.0000   120.0000 </r>
       <r>   -12.3485     0.0000   120.0000 </r>
       <r>   -12.1422     0.0000   120.0000 </r>
       <r>   -11.9360     0.0000   120.0000 </r>
       <r>   -11.7297     0.0000   120.0000 </r>
       <r>   -11.5235     0.0000   120.0000 </r>
       <r>   -11.3172     0.0000   120.0000 </r>
       <r>   -11.1110     0.0000   120.0000 </r>
       <r>   -10.9047     0.0000   120.0000 </r>
       <r>   -10.6985     0.0000   120.0000 </r>
       <r>   -10.4922     0.0000   120.0000 </r>
       <r>   -10.2860     0.0000   120.0000 </r>
       <r>   -10.0797     0.0000   120.0000 </r>
       <r>    -9.8735     0.0000   120.0000 </r>
       <r>    -9.6672     0.0000   120.0000 </r>
       <r>    -9.4610     0.0000   120.0000 </r>
       <r>    -9.2547     0.0000   120.0000 </r>
       <r>    -9.0484     0.0000   120.0000 </r>
       <r>    -8.8422     0.0000   120.0000 </r>
       <r>    -8.6359     0.0000   120.0000 </r>
       <r>    -8.4297     0.0000   120.0000 </r>
       <r>    -8.2234     0.0000   120.0000 </r>
       <r>    -8.0172     0.0000   120.0000 </r>
       <r>    -7.8109     0.0000   120.0000 </r>
       <r>    -7.6047     0.0000   120.0000 </r>
       <r>    -7.3984     0.0000   120.0000 </r>
       <r>    -7.1922     0.0000   120.0000 </r>
       <r>    -6.9859     0.0000   120.0000 </r>
       <r>    -6.7797     0.0000   120.0000 </r>
       <r>    -6.5734     0.0000   120.0000 </r>
       <r>    -6.3671     0.0000   120.0000 </r>
       <r>    -6.1609     0.0000   120.0000 </r>
       <r>    -5.9546     0.0000   120.0000 </r>
       <r>    -5.7484     0.0000   120.0000 </r>
       <r>    -5.5421     0.0000   120.0000 </r>
       <r>    -5.3359     0.0000   120.0000 </r>
       <r>    -5.1296     0.0000   120.0000 </r>
       <r>    -4.9234     0.0000   120.0000 </r>
       <r>    -4.7171     0.0000   120.0000 </r>
       <r>    -4.5109     0.0000   120.0000 </r>
       <r>    -4.3046     0.0000   120.0000 </r>
       <r>    -4.0984     0.0000   120.0000 </r>
       <r>    -3.8921     0.0000   120.0000 </r>
       <r>    -3.6859     0.0000   120.0000 </r>
       <r>    -3.4796     0.0000   120.0000 </r>
       <r>    -3.2733     0.0000   120.0000 </r>
       <r>    -3.0671     0.0000   120.0000 </r>
       <r>    -2.8608     0.0000   120.0000 </r>
       <r>    -2.6546     0.0000   120.0000 </r>
       <r>    -2.4483     0.0000   120.0000 </r>
       <r>    -2.2421     0.0000   120.0000 </r>
       <r>    -2.0358     0.0000   120.0000 </r>
       <r>    -1.8296     0.0000   120.0000 </r>
       <r>    -1.6233     0.0000   120.0000 </r>
       <r>    -1.4171     0.0000   120.0000 </r>
       <r>    -1.2108     0.0000   120.0000 </r>
       <r>    -1.0046     0.0000   120.0000 </r>
       <r>    -0.7983    -0.0000   120.0000 </r>
       <r>    -0.5921    -0.0000   120.0000 </r>
       <r>    -0.3858    -0.0000   120.0000 </r>
       <r>    -0.1795    -0.0000   120.0000 </r>
       <r>     0.0267    -0.0001   120.0000 </r>
       <r>     0.2330    -0.0092   119.9981 </r>
       <r>     0.4392     0.1088   120.0205 </r>
       <r>     0.6455     0.6167   120.1477 </r>
       <r>     0.8517     1.4325   120.4432 </r>
       <r>     1.0580     1.8586   120.8265 </r>
       <r>     1.2642     2.7604   121.3959 </r>
       <r>     1.4705     3.9431   122.2092 </r>
       <r>     1.6767     2.6664   122.7591 </r>
       <r>     1.8830     3.3655   123.4533 </r>
       <r>     2.0892     4.7182   124.4264 </r>
       <r>     2.2955     3.4534   125.1387 </r>
       <r>     2.5018     4.8108   126.1309 </r>
       <r>     2.7080     8.4791   127.8798 </r>
       <r>     2.9143     7.9615   129.5219 </r>
       <r>     3.1205     7.9916   131.1702 </r>
       <r>     3.3268     7.0542   132.6251 </r>
       <r>     3.5330    11.9087   135.0813 </r>
       <r>     3.7393    17.6565   138.7230 </r>
       <r>     3.9455    23.1387   143.4955 </r>
       <r>     4.1518    22.7879   148.1956 </r>
       <r>     4.3580    30.8480   154.5581 </r>
       <r>     4.5643    32.6588   161.2941 </r>
       <r>     4.7705    39.1419   169.3672 </r>
       <r>     4.9768    39.8588   177.5882 </r>
       <r>     5.1830    35.3428   184.8778 </r>
       <r>     5.3893    31.9879   191.4754 </r>
       <r>     5.5956    32.9755   198.2767 </r>
       <r>     5.8018    14.9573   201.3617 </r>
       <r>     6.0081    35.5770   208.6996 </r>
       <r>     6.2143    64.2122   221.9436 </r>
       <r>     6.4206    60.6150   234.4457 </r>
       <r>     6.6268    52.6778   245.3106 </r>
       <r>     6.8331    54.2782   256.5057 </r>
       <r>     7.0393    58.5210   268.5759 </r>
       <r>     7.2456    53.5132   279.6132 </r>
       <r>     7.4518    44.0356   288.6956 </r>
       <r>     7.6581    51.5998   299.3383 </r>
       <r>     7.8643    45.9853   308.8229 </r>
       <r>     8.0706    33.9513   315.8255 </r>
       <r>     8.2768    29.1465   321.8371 </r>
       <r>     8.4831    23.6352   326.7119 </r>
       <r>     8.6894    18.6175   330.5518 </r>
       <r>     8.8956    11.1989   332.8616 </r>
       <r>     9.1019    11.7722   335.2897 </r>
       <r>     9.3081     3.6323   336.0388 </r>
       <r>     9.5144    -0.1817   336.0014 </r>
       <r>     9.7206    -0.0067   336.0000 </r>
       <r>     9.9269    -0.0000   336.0000 </r>
       <r>    10.1331    -0.0000   336.0000 </r>
       <r>    10.3394     0.0000   336.0000 </r>
       <r>    10.5456     0.0000   336.0000 </r>
       <r>    10.7519     0.0000   336.0000 </r>
       <r>    10.9581     0.0000   336.0000 </r>
       <r>    11.1644     0.0000   336.0000 </r>
       <r>    11.3707     0.0000   336.0000 </r>
       <r>    11.5769     0.0000   336.0000 </r>
       <r>    11.7832     0.0000   336.0000 </r>
       <r>    11.9894     0.0000   336.0000 </r>
      </set>
     </set>
    </array>
   </total>
  </dos>
 </calculation>
 <structure name="finalpos" >
  <crystal>
   <varray name="basis" >
    <v>       6.95231223       0.00450547      -0.01601348 </v>
    <v>       0.00727247      10.22204832       0.03908514 </v>
    <v>      -0.02342241       0.03915663      10.26266009 </v>
   </varray>
   <i name="volume">    729.32032685 </i>
   <varray name="rec_basis" >
    <v>       0.14383786      -0.00010359       0.00032868 </v>
    <v>      -0.00006426       0.09782922      -0.00037341 </v>
    <v>       0.00022468      -0.00037274       0.09744256 </v>
   </varray>
  </crystal>
  <varray name="positions" >
   <v>       0.47693721       0.32940237       0.99689574 </v>
   <v>       0.76660465       0.49547716       0.16454303 </v>
   <v>       0.26978835       0.82175284       0.81336977 </v>
   <v>       0.75321919       0.49972355       0.83515489 </v>
   <v>       0.22618948       0.49728175       0.17405655 </v>
   <v>       0.99387601       0.67889047       0.33994630 </v>
   <v>       0.49464880       0.67460713       0.01868091 </v>
   <v>       0.52006334       0.02919235       0.66903548 </v>
   <v>       0.98426057       0.00867856       0.66692021 </v>
   <v>       0.72977195       0.81399485       0.80834304 </v>
   <v>       0.49422689       0.00063783       0.00040766 </v>
   <v>       0.76116092       0.17566002       0.49018285 </v>
   <v>       0.22603877       0.16760542       0.17077183 </v>
   <v>       0.75749310       0.18456007       0.84861117 </v>
   <v>       0.24488704       0.17039914       0.83303094 </v>
   <v>       0.02648014       0.32970524       0.98776563 </v>
   <v>       0.74490197       0.82757370       0.50352446 </v>
   <v>       0.25170417       0.83639380       0.18333132 </v>
   <v>       0.74837830       0.83933890       0.18352097 </v>
   <v>       0.24279587       0.16298328       0.49843884 </v>
   <v>       0.01576305       0.32343085       0.34598239 </v>
   <v>       0.24706191       0.50525382       0.82501746 </v>
   <v>       0.48969660       0.33088841       0.67240556 </v>
   <v>       0.25263963       0.49684872       0.49882066 </v>
   <v>       0.50292166       0.67283256       0.32685398 </v>
   <v>       0.48613637       0.63783658       0.65496499 </v>
   <v>       0.01158760       0.65688163       0.65649463 </v>
   <v>       0.99795165       0.99634555       0.33997878 </v>
   <v>       0.48735783       0.32361568       0.33037334 </v>
   <v>       0.74418949       0.49568522       0.49708195 </v>
   <v>       0.00599984       0.99292357       0.99853113 </v>
   <v>       0.50226287       0.00341750       0.33244297 </v>
   <v>       0.26029896       0.83616837       0.50608288 </v>
   <v>       0.77386589       0.17045423       0.16093106 </v>
   <v>       0.00456803       0.68561993       0.00125268 </v>
   <v>       0.00427389       0.32795495       0.66625294 </v>
  </varray>
 </structure>
</modeling>
