       N       E                     dE             d eps       ncg     rms          rms(c)
DAV:   1     0.227780246623E+04    0.22778E+04   -0.12548E+05  6000   0.108E+03
DAV:   2    -0.585593018705E+02   -0.23364E+04   -0.22609E+04  6272   0.416E+02
DAV:   3    -0.341228109105E+03   -0.28267E+03   -0.26941E+03  9312   0.983E+01
DAV:   4    -0.373484817294E+03   -0.32257E+02   -0.30766E+02  9232   0.311E+01
DAV:   5    -0.376738466980E+03   -0.32536E+01   -0.32017E+01  8712   0.981E+00    0.625E+01
RMM:   6    -0.366178684891E+03    0.10560E+02   -0.26783E+01  7523   0.109E+01    0.290E+01
RMM:   7    -0.367269989843E+03   -0.10913E+01   -0.24221E+01  7911   0.774E+00    0.114E+01
RMM:   8    -0.362162042778E+03    0.51079E+01   -0.63244E+00  8096   0.370E+00    0.455E+00
RMM:   9    -0.361937209852E+03    0.22483E+00   -0.21939E+00  8147   0.179E+00    0.333E+00
RMM:  10    -0.361877333135E+03    0.59877E-01   -0.55055E-01  8197   0.126E+00    0.168E+00
RMM:  11    -0.361827209818E+03    0.50123E-01   -0.16601E-01  8067   0.704E-01    0.707E-01
RMM:  12    -0.361826084401E+03    0.11254E-02   -0.64370E-02  8211   0.358E-01    0.453E-01
RMM:  13    -0.361823370716E+03    0.27137E-02   -0.18027E-02  8214   0.191E-01    0.269E-01
RMM:  14    -0.361823401576E+03   -0.30860E-04   -0.73548E-03  8441   0.102E-01    0.158E-01
RMM:  15    -0.361823443563E+03   -0.41987E-04   -0.32108E-03  8504   0.664E-02    0.756E-02
RMM:  16    -0.361823496795E+03   -0.53232E-04   -0.14314E-03  7907   0.410E-02    0.397E-02
RMM:  17    -0.361823496979E+03   -0.18458E-06   -0.58908E-04  6699   0.255E-02    0.208E-02
RMM:  18    -0.361823508442E+03   -0.11462E-04   -0.28662E-04  5939   0.178E-02    0.103E-02
RMM:  19    -0.361823516307E+03   -0.78652E-05   -0.13613E-04  5282   0.132E-02    0.641E-03
RMM:  20    -0.361823517314E+03   -0.10068E-05   -0.47644E-05  4335   0.103E-02
   1 F= -.36182352E+03 E0= -.36182874E+03  d E =-.361824E+03
       N       E                     dE             d eps       ncg     rms          rms(c)
DAV:   1    -0.361906966988E+03   -0.83451E-01   -0.27133E+00  6712   0.536E+00    0.195E+00
RMM:   2    -0.361884296187E+03    0.22671E-01   -0.28803E-01  7742   0.140E+00    0.729E-01
RMM:   3    -0.361871453517E+03    0.12843E-01   -0.63349E-02  8257   0.428E-01    0.550E-01
RMM:   4    -0.361862792850E+03    0.86607E-02   -0.19522E-02  8294   0.282E-01    0.282E-01
RMM:   5    -0.361861705629E+03    0.10872E-02   -0.62420E-03  8214   0.159E-01    0.214E-01
RMM:   6    -0.361861939055E+03   -0.23343E-03   -0.25010E-03  8575   0.798E-02    0.144E-01
RMM:   7    -0.361862038047E+03   -0.98991E-04   -0.11100E-03  8423   0.561E-02    0.694E-02
RMM:   8    -0.361862146240E+03   -0.10819E-03   -0.54489E-04  7415   0.344E-02    0.532E-02
RMM:   9    -0.361862214949E+03   -0.68709E-04   -0.21387E-04  6808   0.250E-02    0.399E-02
RMM:  10    -0.361862301821E+03   -0.86872E-04   -0.15400E-04  6778   0.211E-02    0.167E-02
RMM:  11    -0.361862327605E+03   -0.25784E-04   -0.85307E-05  5178   0.159E-02    0.888E-03
RMM:  12    -0.361862331929E+03   -0.43244E-05   -0.27542E-05  4271   0.127E-02
   2 F= -.36186233E+03 E0= -.36186740E+03  d E =-.388146E-01
       N       E                     dE             d eps       ncg     rms          rms(c)
DAV:   1    -0.362160668784E+03   -0.29834E+00   -0.16099E+01  6392   0.131E+01    0.483E+00
RMM:   2    -0.362022285642E+03    0.13838E+00   -0.16913E+00  7689   0.341E+00    0.176E+00
RMM:   3    -0.361949388023E+03    0.72898E-01   -0.37547E-01  8273   0.104E+00    0.134E+00
RMM:   4    -0.361896690183E+03    0.52698E-01   -0.11244E-01  8296   0.684E-01    0.686E-01
RMM:   5    -0.361890792975E+03    0.58972E-02   -0.36891E-02  8249   0.378E-01    0.525E-01
RMM:   6    -0.361892004405E+03   -0.12114E-02   -0.14131E-02  8739   0.195E-01    0.350E-01
RMM:   7    -0.361892454118E+03   -0.44971E-03   -0.67862E-03  9209   0.134E-01    0.171E-01
RMM:   8    -0.361893014434E+03   -0.56032E-03   -0.30888E-03  9306   0.838E-02    0.132E-01
RMM:   9    -0.361893371008E+03   -0.35657E-03   -0.13092E-03  8760   0.550E-02    0.992E-02
RMM:  10    -0.361893772799E+03   -0.40179E-03   -0.81490E-04  8423   0.465E-02    0.432E-02
RMM:  11    -0.361893877925E+03   -0.10513E-03   -0.48684E-04  7070   0.312E-02    0.210E-02
RMM:  12    -0.361893893131E+03   -0.15206E-04   -0.16324E-04  6316   0.216E-02    0.122E-02
RMM:  13    -0.361893901333E+03   -0.82024E-05   -0.58748E-05  5319   0.146E-02
   3 F= -.36189390E+03 E0= -.36189851E+03  d E =-.703840E-01
       N       E                     dE             d eps       ncg     rms          rms(c)
DAV:   1    -0.361917366221E+03   -0.23473E-01   -0.15050E+00  5696   0.314E+00    0.451E-01
RMM:   2    -0.361922510260E+03   -0.51440E-02   -0.71310E-02  7913   0.663E-01    0.296E-01
RMM:   3    -0.361919531822E+03    0.29784E-02   -0.88292E-03  8141   0.192E-01    0.172E-01
RMM:   4    -0.361919215084E+03    0.31674E-03   -0.22636E-03  8280   0.645E-02    0.117E-01
RMM:   5    -0.361919069491E+03    0.14559E-03   -0.77804E-04  8043   0.498E-02    0.636E-02
RMM:   6    -0.361919051851E+03    0.17640E-04   -0.39616E-04  8178   0.348E-02    0.354E-02
RMM:   7    -0.361919038819E+03    0.13033E-04   -0.14183E-04  6965   0.187E-02    0.215E-02
RMM:   8    -0.361919036182E+03    0.26368E-05   -0.37989E-05  4708   0.123E-02
   4 F= -.36191904E+03 E0= -.36192357E+03  d E =-.251348E-01
       N       E                     dE             d eps       ncg     rms          rms(c)
DAV:   1    -0.361954776107E+03   -0.35737E-01   -0.13557E+01  5488   0.946E+00    0.135E+00
RMM:   2    -0.361997276538E+03   -0.42500E-01   -0.62709E-01  7851   0.199E+00    0.841E-01
RMM:   3    -0.361974798499E+03    0.22478E-01   -0.79659E-02  8135   0.577E-01    0.519E-01
RMM:   4    -0.361971642298E+03    0.31562E-02   -0.19123E-02  8338   0.192E-01    0.347E-01
RMM:   5    -0.361970485632E+03    0.11567E-02   -0.70049E-03  8086   0.148E-01    0.193E-01
RMM:   6    -0.361970350429E+03    0.13520E-03   -0.34741E-03  8330   0.104E-01    0.108E-01
RMM:   7    -0.361970274099E+03    0.76331E-04   -0.13149E-03  8763   0.549E-02    0.670E-02
RMM:   8    -0.361970287178E+03   -0.13080E-04   -0.47503E-04  7146   0.283E-02    0.472E-02
RMM:   9    -0.361970287793E+03   -0.61435E-06   -0.23953E-04  6763   0.226E-02    0.276E-02
RMM:  10    -0.361970284636E+03    0.31572E-05   -0.88704E-05  5657   0.161E-02
   5 F= -.36197028E+03 E0= -.36197454E+03  d E =-.763833E-01
       N       E                     dE             d eps       ncg     rms          rms(c)
DAV:   1    -0.361887913395E+03    0.82374E-01   -0.54375E+01  5600   0.191E+01    0.269E+00
RMM:   2    -0.362038615726E+03   -0.15070E+00   -0.24684E+00  7756   0.390E+00    0.149E+00
RMM:   3    -0.361980831775E+03    0.57784E-01   -0.32205E-01  8214   0.115E+00    0.104E+00
RMM:   4    -0.361966537204E+03    0.14295E-01   -0.70438E-02  8551   0.383E-01    0.687E-01
RMM:   5    -0.361962610662E+03    0.39265E-02   -0.28904E-02  8085   0.291E-01    0.395E-01
RMM:   6    -0.361961864828E+03    0.74583E-03   -0.13322E-02  8303   0.203E-01    0.220E-01
RMM:   7    -0.361961611858E+03    0.25297E-03   -0.51876E-03  9149   0.108E-01    0.136E-01
RMM:   8    -0.361961690806E+03   -0.78948E-04   -0.21073E-03  8996   0.561E-02    0.973E-02
RMM:   9    -0.361961690829E+03   -0.23701E-07   -0.86382E-04  8309   0.401E-02    0.577E-02
RMM:  10    -0.361961697705E+03   -0.68759E-05   -0.34722E-04  7042   0.256E-02    0.278E-02
RMM:  11    -0.361961701563E+03   -0.38576E-05   -0.18239E-04  6470   0.210E-02    0.170E-02
RMM:  12    -0.361961700033E+03    0.15294E-05   -0.65267E-05  5500   0.144E-02
   6 F= -.36196170E+03 E0= -.36196524E+03  d E =-.677987E-01
       N       E                     dE             d eps       ncg     rms          rms(c)
DAV:   1    -0.361970382875E+03   -0.86813E-02   -0.17503E+01  5640   0.108E+01    0.152E+00
RMM:   2    -0.362023503798E+03   -0.53121E-01   -0.80435E-01  7832   0.223E+00    0.948E-01
RMM:   3    -0.361989662952E+03    0.33841E-01   -0.92733E-02  8094   0.625E-01    0.569E-01
RMM:   4    -0.361986513082E+03    0.31499E-02   -0.25367E-02  8464   0.220E-01    0.386E-01
RMM:   5    -0.361985035964E+03    0.14771E-02   -0.85974E-03  8288   0.169E-01    0.209E-01
RMM:   6    -0.361985062678E+03   -0.26714E-04   -0.43584E-03  8442   0.110E-01    0.128E-01
RMM:   7    -0.361984975689E+03    0.86989E-04   -0.15348E-03  8904   0.608E-02    0.754E-02
RMM:   8    -0.361985039161E+03   -0.63472E-04   -0.61325E-04  7719   0.323E-02    0.522E-02
RMM:   9    -0.361985056720E+03   -0.17559E-04   -0.27807E-04  6973   0.243E-02    0.286E-02
RMM:  10    -0.361985072061E+03   -0.15341E-04   -0.94864E-05  5733   0.166E-02    0.147E-02
RMM:  11    -0.361985080974E+03   -0.89125E-05   -0.63934E-05  5212   0.143E-02
   7 F= -.36198508E+03 E0= -.36198904E+03  d E =-.911796E-01
       N       E                     dE             d eps       ncg     rms          rms(c)
DAV:   1    -0.362047039996E+03   -0.61968E-01   -0.19517E+00  7456   0.480E+00    0.187E+00
RMM:   2    -0.362021531065E+03    0.25509E-01   -0.28217E-01  8094   0.131E+00    0.715E-01
RMM:   3    -0.362008210548E+03    0.13321E-01   -0.57069E-02  8327   0.369E-01    0.497E-01
RMM:   4    -0.362001900968E+03    0.63096E-02   -0.17554E-02  8322   0.267E-01    0.270E-01
RMM:   5    -0.362000433142E+03    0.14678E-02   -0.56560E-03  8270   0.153E-01    0.196E-01
RMM:   6    -0.362000515101E+03   -0.81958E-04   -0.21364E-03  8587   0.719E-02    0.137E-01
RMM:   7    -0.362000520237E+03   -0.51360E-05   -0.89622E-04  8389   0.512E-02    0.679E-02
RMM:   8    -0.362000559512E+03   -0.39276E-04   -0.50740E-04  7290   0.315E-02    0.488E-02
RMM:   9    -0.362000580984E+03   -0.21472E-04   -0.17536E-04  6774   0.246E-02    0.380E-02
RMM:  10    -0.362000607782E+03   -0.26798E-04   -0.14925E-04  6748   0.202E-02    0.171E-02
RMM:  11    -0.362000604955E+03    0.28271E-05   -0.76571E-05  4962   0.152E-02
   8 F= -.36200060E+03 E0= -.36200485E+03  d E =-.155240E-01
       N       E                     dE             d eps       ncg     rms          rms(c)
DAV:   1    -0.362025149307E+03   -0.24542E-01   -0.92330E-01  7432   0.330E+00    0.128E+00
RMM:   2    -0.362013081587E+03    0.12068E-01   -0.13153E-01  8098   0.896E-01    0.488E-01
RMM:   3    -0.362006784248E+03    0.62973E-02   -0.26453E-02  8338   0.251E-01    0.337E-01
RMM:   4    -0.362003847961E+03    0.29363E-02   -0.81766E-03  8330   0.183E-01    0.183E-01
RMM:   5    -0.362003167313E+03    0.68065E-03   -0.26377E-03  8242   0.104E-01    0.134E-01
RMM:   6    -0.362003205612E+03   -0.38299E-04   -0.98719E-04  8551   0.491E-02    0.946E-02
RMM:   7    -0.362003206527E+03   -0.91505E-06   -0.42066E-04  7383   0.346E-02    0.480E-02
RMM:   8    -0.362003222518E+03   -0.15991E-04   -0.24136E-04  7111   0.235E-02    0.341E-02
RMM:   9    -0.362003231404E+03   -0.88860E-05   -0.97242E-05  5435   0.183E-02
   9 F= -.36200323E+03 E0= -.36200766E+03  d E =-.181504E-01
       N       E                     dE             d eps       ncg     rms          rms(c)
DAV:   1    -0.362010848632E+03   -0.76261E-02   -0.61289E-01  5536   0.218E+00    0.339E-01
RMM:   2    -0.362011802093E+03   -0.95346E-03   -0.29072E-02  8000   0.454E-01    0.178E-01
RMM:   3    -0.362011147335E+03    0.65476E-03   -0.39153E-03  8057   0.128E-01    0.122E-01
RMM:   4    -0.362010886970E+03    0.26037E-03   -0.10937E-03  8071   0.527E-02    0.745E-02
RMM:   5    -0.362010811758E+03    0.75212E-04   -0.41366E-04  8097   0.384E-02    0.434E-02
RMM:   6    -0.362010811968E+03   -0.21028E-06   -0.17452E-04  7341   0.215E-02    0.280E-02
RMM:   7    -0.362010812686E+03   -0.71825E-06   -0.69348E-05  5529   0.140E-02
  10 F= -.36201081E+03 E0= -.36201538E+03  d E =-.758128E-02
       N       E                     dE             d eps       ncg     rms          rms(c)
DAV:   1    -0.362023216541E+03   -0.12405E-01   -0.44371E+00  5488   0.587E+00    0.913E-01
RMM:   2    -0.362029779693E+03   -0.65632E-02   -0.20717E-01  7995   0.122E+00    0.466E-01
RMM:   3    -0.362024944888E+03    0.48348E-02   -0.27075E-02  8019   0.337E-01    0.313E-01
RMM:   4    -0.362023138789E+03    0.18061E-02   -0.76309E-03  8125   0.139E-01    0.187E-01
RMM:   5    -0.362022685120E+03    0.45367E-03   -0.29848E-03  8307   0.102E-01    0.111E-01
RMM:   6    -0.362022710358E+03   -0.25238E-04   -0.12706E-03  8675   0.560E-02    0.753E-02
RMM:   7    -0.362022720146E+03   -0.97885E-05   -0.49755E-04  7952   0.342E-02    0.454E-02
RMM:   8    -0.362022747193E+03   -0.27047E-04   -0.19807E-04  6435   0.217E-02    0.283E-02
RMM:   9    -0.362022764928E+03   -0.17734E-04   -0.11876E-04  5998   0.183E-02    0.175E-02
RMM:  10    -0.362022776970E+03   -0.12042E-04   -0.45417E-05  5154   0.134E-02    0.110E-02
RMM:  11    -0.362022784427E+03   -0.74571E-05   -0.22006E-05  3950   0.114E-02
  11 F= -.36202278E+03 E0= -.36202766E+03  d E =-.195530E-01
       N       E                     dE             d eps       ncg     rms          rms(c)
DAV:   1    -0.362024075591E+03   -0.12986E-02   -0.89652E-01  5520   0.264E+00    0.410E-01
RMM:   2    -0.362025434960E+03   -0.13594E-02   -0.41820E-02  7985   0.546E-01    0.209E-01
RMM:   3    -0.362024486534E+03    0.94843E-03   -0.55241E-03  8036   0.152E-01    0.140E-01
RMM:   4    -0.362024130527E+03    0.35601E-03   -0.15589E-03  8087   0.625E-02    0.831E-02
RMM:   5    -0.362024043375E+03    0.87152E-04   -0.61359E-04  8276   0.455E-02    0.492E-02
RMM:   6    -0.362024052619E+03   -0.92438E-05   -0.25613E-04  7616   0.252E-02    0.335E-02
RMM:   7    -0.362024058710E+03   -0.60912E-05   -0.10264E-04  6063   0.163E-02    0.202E-02
RMM:   8    -0.362024067439E+03   -0.87289E-05   -0.47017E-05  4766   0.130E-02
  12 F= -.36202407E+03 E0= -.36202905E+03  d E =-.208360E-01
       N       E                     dE             d eps       ncg     rms          rms(c)
DAV:   1    -0.362027754010E+03   -0.36953E-02   -0.91394E-01  5488   0.267E+00    0.267E-01
RMM:   2    -0.362030690304E+03   -0.29363E-02   -0.39044E-02  7512   0.548E-01    0.154E-01
RMM:   3    -0.362030126553E+03    0.56375E-03   -0.41968E-03  8042   0.148E-01    0.111E-01
RMM:   4    -0.362030027175E+03    0.99378E-04   -0.10565E-03  8620   0.455E-02    0.752E-02
RMM:   5    -0.362029985843E+03    0.41332E-04   -0.39988E-04  7771   0.335E-02    0.432E-02
RMM:   6    -0.362029969956E+03    0.15887E-04   -0.18038E-04  7513   0.256E-02    0.201E-02
RMM:   7    -0.362029964917E+03    0.50391E-05   -0.65581E-05  5348   0.130E-02
  13 F= -.36202996E+03 E0= -.36203495E+03  d E =-.589748E-02
       N       E                     dE             d eps       ncg     rms          rms(c)
DAV:   1    -0.362027137853E+03    0.28321E-02   -0.54001E+00  5488   0.650E+00    0.646E-01
RMM:   2    -0.362044376567E+03   -0.17239E-01   -0.23051E-01  7456   0.133E+00    0.368E-01
RMM:   3    -0.362041259071E+03    0.31175E-02   -0.24781E-02  8043   0.362E-01    0.268E-01
RMM:   4    -0.362040699783E+03    0.55929E-03   -0.61419E-03  8919   0.110E-01    0.180E-01
RMM:   5    -0.362040490137E+03    0.20965E-03   -0.23508E-03  8177   0.795E-02    0.105E-01
RMM:   6    -0.362040407663E+03    0.82473E-04   -0.10809E-03  8102   0.628E-02    0.488E-02
RMM:   7    -0.362040390867E+03    0.16796E-04   -0.43099E-04  8035   0.298E-02    0.306E-02
RMM:   8    -0.362040391612E+03   -0.74527E-06   -0.12479E-04  5712   0.171E-02    0.217E-02
RMM:   9    -0.362040392206E+03   -0.59318E-06   -0.82997E-05  5417   0.148E-02
  14 F= -.36204039E+03 E0= -.36204537E+03  d E =-.163248E-01
       N       E                     dE             d eps       ncg     rms          rms(c)
DAV:   1    -0.361989655041E+03    0.50737E-01   -0.21602E+01  5504   0.130E+01    0.130E+00
RMM:   2    -0.362058172597E+03   -0.68518E-01   -0.92239E-01  7423   0.266E+00    0.716E-01
RMM:   3    -0.362047432733E+03    0.10740E-01   -0.10012E-01  8078   0.735E-01    0.538E-01
RMM:   4    -0.362045165212E+03    0.22675E-02   -0.24193E-02  8971   0.221E-01    0.363E-01
RMM:   5    -0.362044379039E+03    0.78617E-03   -0.92902E-03  8223   0.158E-01    0.215E-01
RMM:   6    -0.362043998586E+03    0.38045E-03   -0.42865E-03  8134   0.127E-01    0.958E-02
RMM:   7    -0.362043952112E+03    0.46474E-04   -0.17163E-03  9241   0.587E-02    0.615E-02
RMM:   8    -0.362043972877E+03   -0.20765E-04   -0.58832E-04  7431   0.312E-02    0.433E-02
RMM:   9    -0.362043976973E+03   -0.40961E-05   -0.26125E-04  6964   0.235E-02    0.264E-02
RMM:  10    -0.362043978250E+03   -0.12768E-05   -0.10977E-04  5787   0.169E-02    0.123E-02
RMM:  11    -0.362043978805E+03   -0.55534E-06   -0.55943E-05  4986   0.136E-02
  15 F= -.36204398E+03 E0= -.36204875E+03  d E =-.199114E-01
       N       E                     dE             d eps       ncg     rms          rms(c)
DAV:   1    -0.362038569375E+03    0.54089E-02   -0.29686E+00  5496   0.480E+00    0.471E-01
RMM:   2    -0.362047591370E+03   -0.90220E-02   -0.12448E-01  7320   0.984E-01    0.264E-01
RMM:   3    -0.362045843108E+03    0.17483E-02   -0.12937E-02  8026   0.265E-01    0.192E-01
RMM:   4    -0.362045538223E+03    0.30488E-03   -0.31946E-03  8624   0.796E-02    0.128E-01
RMM:   5    -0.362045414007E+03    0.12422E-03   -0.12130E-03  8112   0.594E-02    0.733E-02
RMM:   6    -0.362045394091E+03    0.19916E-04   -0.55307E-04  8235   0.440E-02    0.355E-02
RMM:   7    -0.362045389288E+03    0.48026E-05   -0.20150E-04  7193   0.211E-02    0.220E-02
RMM:   8    -0.362045395165E+03   -0.58768E-05   -0.52498E-05  4940   0.138E-02
  16 F= -.36204540E+03 E0= -.36205027E+03  d E =-.213277E-01
       N       E                     dE             d eps       ncg     rms          rms(c)
DAV:   1    -0.362096961157E+03   -0.51572E-01   -0.46796E+00  6252   0.700E+00    0.226E+00
RMM:   2    -0.362069100838E+03    0.27860E-01   -0.45467E-01  7532   0.181E+00    0.789E-01
RMM:   3    -0.362055805841E+03    0.13295E-01   -0.84091E-02  8251   0.544E-01    0.614E-01
RMM:   4    -0.362044818287E+03    0.10988E-01   -0.23934E-02  8310   0.306E-01    0.320E-01
RMM:   5    -0.362043629850E+03    0.11884E-02   -0.79323E-03  8242   0.173E-01    0.243E-01
RMM:   6    -0.362043936107E+03   -0.30626E-03   -0.32178E-03  8676   0.940E-02    0.160E-01
RMM:   7    -0.362044048115E+03   -0.11201E-03   -0.14680E-03  8692   0.675E-02    0.812E-02
RMM:   8    -0.362044193933E+03   -0.14582E-03   -0.72383E-04  8012   0.395E-02    0.609E-02
RMM:   9    -0.362044270783E+03   -0.76850E-04   -0.27447E-04  7020   0.283E-02    0.469E-02
RMM:  10    -0.362044373874E+03   -0.10309E-03   -0.18164E-04  6933   0.227E-02    0.227E-02
RMM:  11    -0.362044412145E+03   -0.38270E-04   -0.11312E-04  5479   0.182E-02    0.115E-02
RMM:  12    -0.362044418989E+03   -0.68447E-05   -0.45517E-05  4667   0.138E-02
  17 F= -.36204442E+03 E0= -.36204892E+03  d E =0.976176E-03
       N       E                     dE             d eps       ncg     rms          rms(c)
DAV:   1    -0.362063706194E+03   -0.19294E-01   -0.14549E+00  6280   0.390E+00    0.125E+00
RMM:   2    -0.362055515465E+03    0.81907E-02   -0.14087E-01  7691   0.101E+00    0.445E-01
RMM:   3    -0.362051231663E+03    0.42838E-02   -0.26406E-02  8256   0.302E-01    0.348E-01
RMM:   4    -0.362047752335E+03    0.34793E-02   -0.75947E-03  8310   0.172E-01    0.180E-01
RMM:   5    -0.362047292735E+03    0.45960E-03   -0.24652E-03  8253   0.982E-02    0.134E-01
RMM:   6    -0.362047321401E+03   -0.28666E-04   -0.10397E-03  8439   0.522E-02    0.883E-02
RMM:   7    -0.362047289970E+03    0.31431E-04   -0.41951E-04  7649   0.383E-02    0.434E-02
RMM:   8    -0.362047303402E+03   -0.13432E-04   -0.22419E-04  6951   0.228E-02    0.323E-02
RMM:   9    -0.362047309926E+03   -0.65234E-05   -0.95473E-05  5269   0.183E-02
  18 F= -.36204731E+03 E0= -.36205202E+03  d E =-.191476E-02
       N       E                     dE             d eps       ncg     rms          rms(c)
DAV:   1    -0.362042040932E+03    0.52625E-02   -0.30567E+00  5488   0.499E+00    0.439E-01
RMM:   2    -0.362051537581E+03   -0.94966E-02   -0.13041E-01  7087   0.103E+00    0.241E-01
RMM:   3    -0.362050314900E+03    0.12227E-02   -0.12945E-02  8024   0.294E-01    0.177E-01
RMM:   4    -0.362050036437E+03    0.27846E-03   -0.31044E-03  9099   0.845E-02    0.111E-01
RMM:   5    -0.362049953120E+03    0.83317E-04   -0.12550E-03  8565   0.580E-02    0.602E-02
RMM:   6    -0.362049939137E+03    0.13983E-04   -0.46122E-04  8262   0.373E-02    0.296E-02
RMM:   7    -0.362049929305E+03    0.98314E-05   -0.15866E-04  6262   0.185E-02    0.176E-02
RMM:   8    -0.362049931095E+03   -0.17893E-05   -0.67231E-05  4952   0.146E-02
  19 F= -.36204993E+03 E0= -.36205430E+03  d E =-.262117E-02
       N       E                     dE             d eps       ncg     rms          rms(c)
DAV:   1    -0.362049872622E+03    0.56683E-04   -0.35151E-02  5824   0.535E-01    0.470E-02
RMM:   2    -0.362049990697E+03   -0.11807E-03   -0.15873E-03  7501   0.111E-01    0.271E-02
RMM:   3    -0.362049979852E+03    0.10845E-04   -0.19217E-04  7134   0.320E-02    0.195E-02
RMM:   4    -0.362049978087E+03    0.17651E-05   -0.53312E-05  4557   0.116E-02
  20 F= -.36204998E+03 E0= -.36205431E+03  d E =-.266816E-02
       N       E                     dE             d eps       ncg     rms          rms(c)
DAV:   1    -0.362058759126E+03   -0.87793E-02   -0.49472E-01  6988   0.235E+00    0.838E-01
RMM:   2    -0.362054461985E+03    0.42971E-02   -0.59451E-02  8050   0.643E-01    0.318E-01
RMM:   3    -0.362051865045E+03    0.25969E-02   -0.11825E-02  8294   0.186E-01    0.229E-01
RMM:   4    -0.362050423496E+03    0.14415E-02   -0.35027E-03  8299   0.117E-01    0.120E-01
RMM:   5    -0.362050162563E+03    0.26093E-03   -0.11210E-03  8160   0.692E-02    0.869E-02
RMM:   6    -0.362050171597E+03   -0.90336E-05   -0.44849E-04  7827   0.343E-02    0.613E-02
RMM:   7    -0.362050156670E+03    0.14927E-04   -0.17452E-04  6968   0.253E-02    0.312E-02
RMM:   8    -0.362050158860E+03   -0.21904E-05   -0.10830E-04  5838   0.167E-02    0.222E-02
RMM:   9    -0.362050159471E+03   -0.61087E-06   -0.45340E-05  4386   0.135E-02
  21 F= -.36205016E+03 E0= -.36205452E+03  d E =-.181384E-03
       N       E                     dE             d eps       ncg     rms          rms(c)
DAV:   1    -0.362052216117E+03   -0.20573E-02   -0.10396E-01  6984   0.107E+00    0.389E-01
RMM:   2    -0.362051294115E+03    0.92200E-03   -0.12735E-02  8066   0.294E-01    0.149E-01
RMM:   3    -0.362050750525E+03    0.54359E-03   -0.26197E-03  8314   0.864E-02    0.109E-01
RMM:   4    -0.362050436215E+03    0.31431E-03   -0.76934E-04  8227   0.545E-02    0.569E-02
RMM:   5    -0.362050381845E+03    0.54371E-04   -0.24378E-04  7704   0.326E-02    0.393E-02
RMM:   6    -0.362050393053E+03   -0.11209E-04   -0.93253E-05  6429   0.169E-02    0.272E-02
RMM:   7    -0.362050400651E+03   -0.75974E-05   -0.30572E-05  3743   0.118E-02
  22 F= -.36205040E+03 E0= -.36205474E+03  d E =-.422564E-03
       N       E                     dE             d eps       ncg     rms          rms(c)
DAV:   1    -0.362050621096E+03   -0.22804E-03   -0.18476E-01  5512   0.125E+00    0.148E-01
RMM:   2    -0.362051123139E+03   -0.50204E-03   -0.90229E-03  7470   0.259E-01    0.675E-02
RMM:   3    -0.362051007519E+03    0.11562E-03   -0.81677E-04  7797   0.712E-02    0.481E-02
RMM:   4    -0.362050987709E+03    0.19809E-04   -0.21587E-04  7271   0.229E-02    0.310E-02
RMM:   5    -0.362050983900E+03    0.38094E-05   -0.86912E-05  6684   0.154E-02
  23 F= -.36205098E+03 E0= -.36205532E+03  d E =-.583249E-03
       N       E                     dE             d eps       ncg     rms          rms(c)
DAV:   1    -0.362050706224E+03    0.28149E-03   -0.22873E-01  5496   0.138E+00    0.165E-01
RMM:   2    -0.362051332511E+03   -0.62629E-03   -0.11233E-02  7835   0.289E-01    0.829E-02
RMM:   3    -0.362051202892E+03    0.12962E-03   -0.11298E-03  7956   0.765E-02    0.564E-02
RMM:   4    -0.362051180381E+03    0.22511E-04   -0.30647E-04  7687   0.269E-02    0.365E-02
RMM:   5    -0.362051175829E+03    0.45520E-05   -0.12876E-04  6977   0.187E-02    0.230E-02
RMM:   6    -0.362051179952E+03   -0.41226E-05   -0.51518E-05  4785   0.125E-02
  24 F= -.36205118E+03 E0= -.36205549E+03  d E =-.779301E-03
       N       E                     dE             d eps       ncg     rms          rms(c)
DAV:   1    -0.362051318424E+03   -0.14260E-03   -0.54928E-02  5592   0.697E-01    0.898E-02
RMM:   2    -0.362051445260E+03   -0.12684E-03   -0.28804E-03  7615   0.147E-01    0.406E-02
RMM:   3    -0.362051421867E+03    0.23393E-04   -0.28919E-04  7451   0.413E-02    0.310E-02
RMM:   4    -0.362051410012E+03    0.11855E-04   -0.85517E-05  6226   0.161E-02    0.184E-02
RMM:   5    -0.362051410869E+03   -0.85764E-06   -0.32003E-05  3983   0.109E-02
  25 F= -.36205141E+03 E0= -.36205568E+03  d E =-.230918E-03
       N       E                     dE             d eps       ncg     rms          rms(c)
DAV:   1    -0.362051243756E+03    0.16626E-03   -0.20619E-01  5504   0.135E+00    0.178E-01
RMM:   2    -0.362051718449E+03   -0.47469E-03   -0.10855E-02  7797   0.285E-01    0.817E-02
RMM:   3    -0.362051630206E+03    0.88242E-04   -0.11076E-03  7907   0.777E-02    0.611E-02
RMM:   4    -0.362051574766E+03    0.55440E-04   -0.33450E-04  7875   0.303E-02    0.363E-02
RMM:   5    -0.362051571175E+03    0.35911E-05   -0.13906E-04  7041   0.207E-02    0.231E-02
RMM:   6    -0.362051574908E+03   -0.37328E-05   -0.49965E-05  4719   0.124E-02
  26 F= -.36205157E+03 E0= -.36205575E+03  d E =-.394956E-03
       N       E                     dE             d eps       ncg     rms          rms(c)
DAV:   1    -0.362051979973E+03   -0.40880E-03   -0.37654E-02  6224   0.619E-01    0.178E-01
RMM:   2    -0.362051895605E+03    0.84368E-04   -0.35019E-03  7883   0.158E-01    0.663E-02
RMM:   3    -0.362051807075E+03    0.88529E-04   -0.62797E-04  8201   0.478E-02    0.517E-02
RMM:   4    -0.362051738849E+03    0.68226E-04   -0.16744E-04  7589   0.245E-02    0.276E-02
RMM:   5    -0.362051724495E+03    0.14354E-04   -0.57321E-05  5874   0.154E-02    0.191E-02
RMM:   6    -0.362051720100E+03    0.43954E-05   -0.21500E-05  3416   0.104E-02
  27 F= -.36205172E+03 E0= -.36205587E+03  d E =-.145192E-03
       N       E                     dE             d eps       ncg     rms          rms(c)
DAV:   1    -0.362051817297E+03   -0.92802E-04   -0.12310E-02  5968   0.357E-01    0.955E-02
RMM:   2    -0.362051798393E+03    0.18904E-04   -0.10949E-03  7606   0.903E-02    0.357E-02
RMM:   3    -0.362051762001E+03    0.36392E-04   -0.16733E-04  7038   0.266E-02    0.276E-02
RMM:   4    -0.362051740620E+03    0.21381E-04   -0.43461E-05  4737   0.150E-02    0.160E-02
RMM:   5    -0.362051735263E+03    0.53566E-05   -0.13433E-05  3141   0.112E-02
  28 F= -.36205174E+03 E0= -.36205588E+03  d E =-.160356E-03
       N       E                     dE             d eps       ncg     rms          rms(c)
DAV:   1    -0.362051735383E+03    0.52365E-05   -0.43093E-04  6840   0.673E-02    0.159E-02
RMM:   2    -0.362051734056E+03    0.13269E-05   -0.38833E-05  4073   0.173E-02
  29 F= -.36205173E+03 E0= -.36205587E+03  d E =-.159149E-03
       N       E                     dE             d eps       ncg     rms          rms(c)
DAV:   1    -0.362051733592E+03    0.17914E-05   -0.23940E-04  6568   0.483E-02    0.155E-02
RMM:   2    -0.362051730252E+03    0.33395E-05   -0.21001E-05  2945   0.127E-02
  30 F= -.36205173E+03 E0= -.36205587E+03  d E =-.155345E-03
       N       E                     dE             d eps       ncg     rms          rms(c)
DAV:   1    -0.362051746822E+03   -0.13230E-04   -0.58938E-03  5584   0.224E-01    0.204E-02
RMM:   2    -0.362051765822E+03   -0.19001E-04   -0.28576E-04  6978   0.469E-02    0.119E-02
RMM:   3    -0.362051762530E+03    0.32921E-05   -0.20669E-05  3375   0.141E-02
  31 F= -.36205176E+03 E0= -.36205590E+03  d E =-.322778E-04
