       N       E                     dE             d eps       ncg     rms          rms(c)
DAV:   1     0.169878031022E+04    0.16988E+04   -0.10612E+05  5312   0.104E+03
DAV:   2    -0.122890342627E+03   -0.18217E+04   -0.17596E+04  5568   0.378E+02
DAV:   3    -0.356123811758E+03   -0.23323E+03   -0.22103E+03  8192   0.929E+01
DAV:   4    -0.382768561675E+03   -0.26645E+02   -0.25364E+02  8184   0.291E+01
DAV:   5    -0.385335023221E+03   -0.25665E+01   -0.25149E+01  7704   0.937E+00    0.643E+01
RMM:   6    -0.374581311081E+03    0.10754E+02   -0.25985E+01  6848   0.102E+01    0.308E+01
RMM:   7    -0.375172694298E+03   -0.59138E+00   -0.26064E+01  7290   0.856E+00    0.113E+01
RMM:   8    -0.370165854455E+03    0.50068E+01   -0.67660E+00  7403   0.402E+00    0.447E+00
RMM:   9    -0.369857685317E+03    0.30817E+00   -0.23897E+00  7469   0.200E+00    0.277E+00
RMM:  10    -0.369822938691E+03    0.34747E-01   -0.49285E-01  7388   0.116E+00    0.138E+00
RMM:  11    -0.369786401622E+03    0.36537E-01   -0.11995E-01  7411   0.552E-01    0.700E-01
RMM:  12    -0.369786598845E+03   -0.19722E-03   -0.53137E-02  7494   0.326E-01    0.410E-01
RMM:  13    -0.369784619713E+03    0.19791E-02   -0.16887E-02  7506   0.186E-01    0.241E-01
RMM:  14    -0.369784676385E+03   -0.56672E-04   -0.71855E-03  7522   0.109E-01    0.134E-01
RMM:  15    -0.369784789778E+03   -0.11339E-03   -0.34104E-03  7455   0.716E-02    0.590E-02
RMM:  16    -0.369784834084E+03   -0.44306E-04   -0.13012E-03  6823   0.380E-02    0.304E-02
RMM:  17    -0.369784851599E+03   -0.17515E-04   -0.53984E-04  5990   0.244E-02    0.166E-02
RMM:  18    -0.369784865896E+03   -0.14298E-04   -0.25873E-04  5371   0.183E-02    0.910E-03
RMM:  19    -0.369784871205E+03   -0.53092E-05   -0.10588E-04  4305   0.129E-02    0.551E-03
RMM:  20    -0.369784872377E+03   -0.11716E-05   -0.51640E-05  3969   0.108E-02
   1 F= -.36978487E+03 E0= -.36978766E+03  d E =-.369785E+03
       N       E                     dE             d eps       ncg     rms          rms(c)
DAV:   1    -0.369848419471E+03   -0.63548E-01   -0.25257E+00  6112   0.542E+00    0.174E+00
RMM:   2    -0.369833502826E+03    0.14917E-01   -0.31932E-01  7270   0.157E+00    0.622E-01
RMM:   3    -0.369822371121E+03    0.11132E-01   -0.45490E-02  7407   0.412E-01    0.433E-01
RMM:   4    -0.369817795028E+03    0.45761E-02   -0.13902E-02  7534   0.236E-01    0.239E-01
RMM:   5    -0.369816854862E+03    0.94017E-03   -0.42061E-03  7486   0.143E-01    0.164E-01
RMM:   6    -0.369817054555E+03   -0.19969E-03   -0.17685E-03  7765   0.717E-02    0.104E-01
RMM:   7    -0.369817114758E+03   -0.60204E-04   -0.67031E-04  7299   0.466E-02    0.645E-02
RMM:   8    -0.369817171598E+03   -0.56840E-04   -0.35545E-04  6744   0.297E-02    0.436E-02
RMM:   9    -0.369817242413E+03   -0.70815E-04   -0.17893E-04  5848   0.241E-02    0.274E-02
RMM:  10    -0.369817280024E+03   -0.37611E-04   -0.90220E-05  4795   0.175E-02    0.158E-02
RMM:  11    -0.369817297009E+03   -0.16985E-04   -0.45868E-05  4051   0.147E-02    0.768E-03
RMM:  12    -0.369817302961E+03   -0.59516E-05   -0.25409E-05  3784   0.132E-02
   2 F= -.36981730E+03 E0= -.36982042E+03  d E =-.324306E-01
       N       E                     dE             d eps       ncg     rms          rms(c)
DAV:   1    -0.369946751000E+03   -0.12945E+00   -0.85447E+00  5864   0.999E+00    0.324E+00
RMM:   2    -0.369895003828E+03    0.51747E-01   -0.10758E+00  7244   0.289E+00    0.114E+00
RMM:   3    -0.369857566876E+03    0.37437E-01   -0.15319E-01  7420   0.758E-01    0.797E-01
RMM:   4    -0.369841728838E+03    0.15838E-01   -0.46936E-02  7536   0.433E-01    0.437E-01
RMM:   5    -0.369838662233E+03    0.30666E-02   -0.14038E-02  7488   0.263E-01    0.303E-01
RMM:   6    -0.369839306122E+03   -0.64389E-03   -0.60797E-03  7806   0.133E-01    0.193E-01
RMM:   7    -0.369839469508E+03   -0.16339E-03   -0.22804E-03  8250   0.871E-02    0.120E-01
RMM:   8    -0.369839645662E+03   -0.17615E-03   -0.12416E-03  7859   0.517E-02    0.830E-02
RMM:   9    -0.369839847885E+03   -0.20222E-03   -0.52333E-04  7178   0.396E-02    0.524E-02
RMM:  10    -0.369839969636E+03   -0.12175E-03   -0.32605E-04  6713   0.277E-02    0.291E-02
RMM:  11    -0.369840011622E+03   -0.41986E-04   -0.15008E-04  5253   0.213E-02    0.145E-02
RMM:  12    -0.369840024029E+03   -0.12407E-04   -0.67993E-05  4685   0.160E-02    0.778E-03
RMM:  13    -0.369840027569E+03   -0.35402E-05   -0.22011E-05  3766   0.132E-02
   3 F= -.36984003E+03 E0= -.36984373E+03  d E =-.551552E-01
       N       E                     dE             d eps       ncg     rms          rms(c)
DAV:   1    -0.369857376226E+03   -0.17352E-01   -0.25711E+00  4928   0.462E+00    0.539E-01
RMM:   2    -0.369868787753E+03   -0.11412E-01   -0.13793E-01  6574   0.101E+00    0.283E-01
RMM:   3    -0.369865777833E+03    0.30099E-02   -0.13819E-02  7032   0.292E-01    0.226E-01
RMM:   4    -0.369865340631E+03    0.43720E-03   -0.28929E-03  7633   0.870E-02    0.145E-01
RMM:   5    -0.369865275928E+03    0.64703E-04   -0.11352E-03  7465   0.601E-02    0.874E-02
RMM:   6    -0.369865234694E+03    0.41234E-04   -0.57941E-04  7371   0.468E-02    0.409E-02
RMM:   7    -0.369865214559E+03    0.20135E-04   -0.21245E-04  6918   0.234E-02    0.260E-02
RMM:   8    -0.369865211580E+03    0.29786E-05   -0.60199E-05  4649   0.138E-02
   4 F= -.36986521E+03 E0= -.36986929E+03  d E =-.251840E-01
       N       E                     dE             d eps       ncg     rms          rms(c)
DAV:   1    -0.369833066303E+03    0.32148E-01   -0.22585E+01  4856   0.137E+01    0.158E+00
RMM:   2    -0.369932775419E+03   -0.99709E-01   -0.12112E+00  6359   0.300E+00    0.797E-01
RMM:   3    -0.369911264305E+03    0.21511E-01   -0.12934E-01  7116   0.908E-01    0.694E-01
RMM:   4    -0.369906988426E+03    0.42759E-02   -0.25451E-02  7704   0.259E-01    0.445E-01
RMM:   5    -0.369906488569E+03    0.49986E-03   -0.10257E-02  7579   0.181E-01    0.271E-01
RMM:   6    -0.369906127194E+03    0.36138E-03   -0.54835E-03  7547   0.146E-01    0.122E-01
RMM:   7    -0.369905989238E+03    0.13796E-03   -0.19465E-03  8316   0.710E-02    0.805E-02
RMM:   8    -0.369906002613E+03   -0.13375E-04   -0.69577E-04  7382   0.371E-02    0.569E-02
RMM:   9    -0.369906016254E+03   -0.13640E-04   -0.31442E-04  7118   0.292E-02    0.357E-02
RMM:  10    -0.369906014971E+03    0.12830E-05   -0.12123E-04  6110   0.189E-02    0.141E-02
RMM:  11    -0.369906015302E+03   -0.33103E-06   -0.57205E-05  4438   0.142E-02
   5 F= -.36990602E+03 E0= -.36991101E+03  d E =-.659877E-01
       N       E                     dE             d eps       ncg     rms          rms(c)
DAV:   1    -0.369901866467E+03    0.41485E-02   -0.21748E+00  4920   0.426E+00    0.493E-01
RMM:   2    -0.369911339347E+03   -0.94729E-02   -0.11556E-01  6486   0.927E-01    0.252E-01
RMM:   3    -0.369909002468E+03    0.23369E-02   -0.11662E-02  7058   0.269E-01    0.206E-01
RMM:   4    -0.369908627539E+03    0.37493E-03   -0.24496E-03  7683   0.799E-02    0.131E-01
RMM:   5    -0.369908582795E+03    0.44744E-04   -0.96823E-04  7501   0.550E-02    0.799E-02
RMM:   6    -0.369908552910E+03    0.29886E-04   -0.49806E-04  7308   0.430E-02    0.384E-02
RMM:   7    -0.369908536670E+03    0.16240E-04   -0.18536E-04  6724   0.219E-02    0.248E-02
RMM:   8    -0.369908533903E+03    0.27667E-05   -0.50963E-05  4530   0.137E-02
   6 F= -.36990853E+03 E0= -.36991376E+03  d E =-.685063E-01
       N       E                     dE             d eps       ncg     rms          rms(c)
DAV:   1    -0.369915293013E+03   -0.67563E-02   -0.38413E-01  5232   0.193E+00    0.470E-01
RMM:   2    -0.369915209284E+03    0.83728E-04   -0.28210E-02  6852   0.462E-01    0.191E-01
RMM:   3    -0.369914099537E+03    0.11097E-02   -0.45898E-03  7310   0.145E-01    0.134E-01
RMM:   4    -0.369913664945E+03    0.43459E-03   -0.12403E-03  7460   0.658E-02    0.708E-02
RMM:   5    -0.369913580708E+03    0.84237E-04   -0.40902E-04  7435   0.414E-02    0.469E-02
RMM:   6    -0.369913580206E+03    0.50222E-06   -0.17397E-04  6507   0.221E-02    0.336E-02
RMM:   7    -0.369913569768E+03    0.10438E-04   -0.69612E-05  5005   0.153E-02    0.192E-02
RMM:   8    -0.369913567352E+03    0.24162E-05   -0.45271E-05  3952   0.143E-02
   7 F= -.36991357E+03 E0= -.36991873E+03  d E =-.503345E-02
       N       E                     dE             d eps       ncg     rms          rms(c)
DAV:   1    -0.369930381483E+03   -0.16812E-01   -0.25788E+00  4936   0.501E+00    0.121E+00
RMM:   2    -0.369929678133E+03    0.70335E-03   -0.18962E-01  6886   0.119E+00    0.498E-01
RMM:   3    -0.369922278118E+03    0.74000E-02   -0.31116E-02  7325   0.374E-01    0.351E-01
RMM:   4    -0.369919376217E+03    0.29019E-02   -0.84367E-03  7505   0.172E-01    0.187E-01
RMM:   5    -0.369918817310E+03    0.55891E-03   -0.28176E-03  7544   0.106E-01    0.124E-01
RMM:   6    -0.369918850977E+03   -0.33667E-04   -0.12245E-03  7773   0.564E-02    0.877E-02
RMM:   7    -0.369918815270E+03    0.35707E-04   -0.51093E-04  7040   0.374E-02    0.484E-02
RMM:   8    -0.369918827482E+03   -0.12212E-04   -0.27439E-04  6377   0.269E-02    0.299E-02
RMM:   9    -0.369918837292E+03   -0.98099E-05   -0.13862E-04  5618   0.203E-02    0.225E-02
RMM:  10    -0.369918838954E+03   -0.16615E-05   -0.57860E-05  4371   0.150E-02
   8 F= -.36991884E+03 E0= -.36992384E+03  d E =-.103051E-01
       N       E                     dE             d eps       ncg     rms          rms(c)
DAV:   1    -0.369922630587E+03   -0.37933E-02   -0.24985E-01  5040   0.152E+00    0.310E-01
RMM:   2    -0.369922726951E+03   -0.96365E-04   -0.16507E-02  6657   0.350E-01    0.132E-01
RMM:   3    -0.369922333299E+03    0.39365E-03   -0.22010E-03  7258   0.107E-01    0.968E-02
RMM:   4    -0.369922148559E+03    0.18474E-03   -0.68611E-04  7485   0.463E-02    0.556E-02
RMM:   5    -0.369922116526E+03    0.32033E-04   -0.24534E-04  7359   0.315E-02    0.359E-02
RMM:   6    -0.369922124675E+03   -0.81498E-05   -0.95916E-05  5632   0.166E-02
   9 F= -.36992212E+03 E0= -.36992711E+03  d E =-.328572E-02
       N       E                     dE             d eps       ncg     rms          rms(c)
DAV:   1    -0.369930961461E+03   -0.88449E-02   -0.22406E+00  4864   0.456E+00    0.919E-01
RMM:   2    -0.369932009241E+03   -0.10478E-02   -0.14569E-01  6432   0.104E+00    0.385E-01
RMM:   3    -0.369928385615E+03    0.36236E-02   -0.18374E-02  7175   0.317E-01    0.280E-01
RMM:   4    -0.369926782458E+03    0.16032E-02   -0.56089E-03  7477   0.133E-01    0.162E-01
RMM:   5    -0.369926507945E+03    0.27451E-03   -0.20581E-03  7548   0.903E-02    0.108E-01
RMM:   6    -0.369926562326E+03   -0.54381E-04   -0.83179E-04  7841   0.470E-02    0.734E-02
RMM:   7    -0.369926576455E+03   -0.14129E-04   -0.38177E-04  6882   0.308E-02    0.426E-02
RMM:   8    -0.369926607224E+03   -0.30770E-04   -0.18152E-04  6201   0.218E-02    0.251E-02
RMM:   9    -0.369926631013E+03   -0.23789E-04   -0.92900E-05  4947   0.180E-02    0.176E-02
RMM:  10    -0.369926644464E+03   -0.13451E-04   -0.39710E-05  4059   0.135E-02    0.981E-03
RMM:  11    -0.369926652351E+03   -0.78864E-05   -0.21281E-05  3517   0.124E-02
  10 F= -.36992665E+03 E0= -.36993156E+03  d E =-.781340E-02
       N       E                     dE             d eps       ncg     rms          rms(c)
DAV:   1    -0.369927546448E+03   -0.90198E-03   -0.77975E-02  5056   0.818E-01    0.656E-02
RMM:   2    -0.369927859802E+03   -0.31335E-03   -0.35698E-03  5847   0.168E-01    0.355E-02
RMM:   3    -0.369927822722E+03    0.37080E-04   -0.34479E-04  6609   0.500E-02    0.288E-02
RMM:   4    -0.369927817884E+03    0.48381E-05   -0.71517E-05  4935   0.135E-02
  11 F= -.36992782E+03 E0= -.36993273E+03  d E =-.116553E-02
       N       E                     dE             d eps       ncg     rms          rms(c)
DAV:   1    -0.369928370640E+03   -0.54792E-03   -0.70061E-01  4840   0.245E+00    0.197E-01
RMM:   2    -0.369931190941E+03   -0.28203E-02   -0.32158E-02  6091   0.503E-01    0.112E-01
RMM:   3    -0.369930848887E+03    0.34205E-03   -0.32112E-03  7259   0.145E-01    0.911E-02
RMM:   4    -0.369930800444E+03    0.48443E-04   -0.72864E-04  7658   0.381E-02    0.607E-02
RMM:   5    -0.369930793058E+03    0.73865E-05   -0.25295E-04  6927   0.288E-02    0.334E-02
RMM:   6    -0.369930794273E+03   -0.12158E-05   -0.11791E-04  6695   0.217E-02    0.137E-02
RMM:   7    -0.369930794103E+03    0.17010E-06   -0.31193E-05  3405   0.115E-02
  12 F= -.36993079E+03 E0= -.36993573E+03  d E =-.414175E-02
       N       E                     dE             d eps       ncg     rms          rms(c)
DAV:   1    -0.369924818274E+03    0.59760E-02   -0.28082E+00  4816   0.491E+00    0.392E-01
RMM:   2    -0.369936015721E+03   -0.11197E-01   -0.12879E-01  6036   0.101E+00    0.214E-01
RMM:   3    -0.369934711069E+03    0.13047E-02   -0.12462E-02  7250   0.294E-01    0.174E-01
RMM:   4    -0.369934507106E+03    0.20396E-03   -0.28148E-03  8312   0.747E-02    0.115E-01
RMM:   5    -0.369934475581E+03    0.31525E-04   -0.94526E-04  7449   0.526E-02    0.667E-02
RMM:   6    -0.369934474926E+03    0.65497E-06   -0.45524E-04  7485   0.428E-02    0.275E-02
RMM:   7    -0.369934474552E+03    0.37381E-06   -0.16737E-04  6521   0.192E-02    0.183E-02
RMM:   8    -0.369934477131E+03   -0.25791E-05   -0.35557E-05  3756   0.134E-02
  13 F= -.36993448E+03 E0= -.36993945E+03  d E =-.782478E-02
       N       E                     dE             d eps       ncg     rms          rms(c)
DAV:   1    -0.369895793382E+03    0.38681E-01   -0.11251E+01  4928   0.981E+00    0.793E-01
RMM:   2    -0.369939453171E+03   -0.43660E-01   -0.50688E-01  5988   0.198E+00    0.418E-01
RMM:   3    -0.369933798982E+03    0.56542E-02   -0.49135E-02  7278   0.572E-01    0.344E-01
RMM:   4    -0.369932895813E+03    0.90317E-03   -0.11522E-02  8415   0.155E-01    0.223E-01
RMM:   5    -0.369932798803E+03    0.97010E-04   -0.39234E-03  7791   0.106E-01    0.132E-01
RMM:   6    -0.369932793154E+03    0.56492E-05   -0.17690E-03  7896   0.793E-02    0.571E-02
RMM:   7    -0.369932791013E+03    0.21407E-05   -0.68153E-04  7876   0.388E-02    0.356E-02
RMM:   8    -0.369932807345E+03   -0.16332E-04   -0.21402E-04  5994   0.218E-02    0.232E-02
RMM:   9    -0.369932820261E+03   -0.12916E-04   -0.12196E-04  5560   0.179E-02    0.129E-02
RMM:  10    -0.369932823437E+03   -0.31763E-05   -0.34417E-05  3904   0.130E-02
  14 F= -.36993282E+03 E0= -.36993779E+03  d E =-.617109E-02
       N       E                     dE             d eps       ncg     rms          rms(c)
DAV:   1    -0.369918014032E+03    0.14806E-01   -0.49806E+00  4888   0.653E+00    0.542E-01
RMM:   2    -0.369938201377E+03   -0.20187E-01   -0.22852E-01  5950   0.135E+00    0.287E-01
RMM:   3    -0.369935836677E+03    0.23647E-02   -0.22004E-02  7340   0.388E-01    0.249E-01
RMM:   4    -0.369935419802E+03    0.41688E-03   -0.46245E-03  8364   0.971E-02    0.172E-01
RMM:   5    -0.369935343661E+03    0.76141E-04   -0.15077E-03  7550   0.660E-02    0.106E-01
RMM:   6    -0.369935281769E+03    0.61891E-04   -0.83632E-04  7409   0.636E-02    0.363E-02
RMM:   7    -0.369935268335E+03    0.13434E-04   -0.27931E-04  7337   0.257E-02    0.236E-02
RMM:   8    -0.369935265695E+03    0.26402E-05   -0.59785E-05  4465   0.143E-02
  15 F= -.36993527E+03 E0= -.36994025E+03  d E =-.861334E-02
       N       E                     dE             d eps       ncg     rms          rms(c)
DAV:   1    -0.369939338491E+03   -0.40702E-02   -0.60397E-01  4876   0.249E+00    0.617E-01
RMM:   2    -0.369939125461E+03    0.21303E-03   -0.50086E-02  6235   0.615E-01    0.237E-01
RMM:   3    -0.369937578114E+03    0.15473E-02   -0.67973E-03  7125   0.187E-01    0.170E-01
RMM:   4    -0.369936835925E+03    0.74219E-03   -0.17241E-03  7424   0.827E-02    0.979E-02
RMM:   5    -0.369936702169E+03    0.13376E-03   -0.56643E-04  7370   0.484E-02    0.674E-02
RMM:   6    -0.369936694925E+03    0.72434E-05   -0.25647E-04  6948   0.293E-02    0.438E-02
RMM:   7    -0.369936678406E+03    0.16519E-04   -0.12086E-04  6124   0.198E-02    0.228E-02
RMM:   8    -0.369936676560E+03    0.18461E-05   -0.65478E-05  4398   0.154E-02
  16 F= -.36993668E+03 E0= -.36994166E+03  d E =-.141086E-02
       N       E                     dE             d eps       ncg     rms          rms(c)
DAV:   1    -0.369937040093E+03   -0.36169E-03   -0.73592E-02  5032   0.869E-01    0.212E-01
RMM:   2    -0.369937022465E+03    0.17629E-04   -0.60698E-03  6177   0.214E-01    0.808E-02
RMM:   3    -0.369936825085E+03    0.19738E-03   -0.81565E-04  7069   0.647E-02    0.561E-02
RMM:   4    -0.369936741794E+03    0.83290E-04   -0.22079E-04  6987   0.287E-02    0.327E-02
RMM:   5    -0.369936726387E+03    0.15407E-04   -0.70468E-05  5122   0.191E-02    0.236E-02
RMM:   6    -0.369936723514E+03    0.28733E-05   -0.31715E-05  3668   0.129E-02
  17 F= -.36993672E+03 E0= -.36994171E+03  d E =-.145782E-02
       N       E                     dE             d eps       ncg     rms          rms(c)
DAV:   1    -0.369936872685E+03   -0.14630E-03   -0.39191E-01  4832   0.178E+00    0.113E-01
RMM:   2    -0.369938233319E+03   -0.13606E-02   -0.15566E-02  6184   0.354E-01    0.692E-02
RMM:   3    -0.369938153170E+03    0.80149E-04   -0.16358E-03  7200   0.104E-01    0.553E-02
RMM:   4    -0.369938146191E+03    0.69787E-05   -0.36503E-04  7004   0.266E-02    0.375E-02
RMM:   5    -0.369938142617E+03    0.35738E-05   -0.11919E-04  6139   0.177E-02    0.217E-02
RMM:   6    -0.369938137530E+03    0.50877E-05   -0.49853E-05  4527   0.149E-02
  18 F= -.36993814E+03 E0= -.36994313E+03  d E =-.141402E-02
       N       E                     dE             d eps       ncg     rms          rms(c)
DAV:   1    -0.369929215312E+03    0.89273E-02   -0.35277E+00  4816   0.534E+00    0.342E-01
RMM:   2    -0.369941353878E+03   -0.12139E-01   -0.13904E-01  6021   0.106E+00    0.195E-01
RMM:   3    -0.369940828520E+03    0.52536E-03   -0.14662E-02  7280   0.319E-01    0.159E-01
RMM:   4    -0.369940772837E+03    0.55683E-04   -0.31362E-03  8262   0.775E-02    0.108E-01
RMM:   5    -0.369940758692E+03    0.14145E-04   -0.10060E-03  7688   0.527E-02    0.646E-02
RMM:   6    -0.369940733572E+03    0.25120E-04   -0.47145E-04  7456   0.421E-02    0.253E-02
RMM:   7    -0.369940730109E+03    0.34632E-05   -0.15711E-04  6190   0.181E-02    0.166E-02
RMM:   8    -0.369940731004E+03   -0.89455E-06   -0.47742E-05  3973   0.134E-02
  19 F= -.36994073E+03 E0= -.36994576E+03  d E =-.400749E-02
       N       E                     dE             d eps       ncg     rms          rms(c)
DAV:   1    -0.369939100078E+03    0.16300E-02   -0.59406E-01  4824   0.219E+00    0.137E-01
RMM:   2    -0.369941169131E+03   -0.20691E-02   -0.23582E-02  6165   0.437E-01    0.802E-02
RMM:   3    -0.369941088904E+03    0.80228E-04   -0.25279E-03  7208   0.128E-01    0.649E-02
RMM:   4    -0.369941085336E+03    0.35680E-05   -0.56638E-04  7308   0.326E-02    0.442E-02
RMM:   5    -0.369941085482E+03   -0.14677E-06   -0.18332E-04  6500   0.218E-02    0.255E-02
RMM:   6    -0.369941082409E+03    0.30731E-05   -0.83492E-05  5820   0.175E-02
  20 F= -.36994108E+03 E0= -.36994612E+03  d E =-.435890E-02
       N       E                     dE             d eps       ncg     rms          rms(c)
DAV:   1    -0.369945628587E+03   -0.45431E-02   -0.30626E-01  5640   0.188E+00    0.601E-01
RMM:   2    -0.369943922435E+03    0.17062E-02   -0.34557E-02  7152   0.514E-01    0.216E-01
RMM:   3    -0.369942532320E+03    0.13901E-02   -0.58347E-03  7413   0.144E-01    0.158E-01
RMM:   4    -0.369941898373E+03    0.63395E-03   -0.17100E-03  7504   0.840E-02    0.841E-02
RMM:   5    -0.369941804184E+03    0.94189E-04   -0.50718E-04  7258   0.500E-02    0.578E-02
RMM:   6    -0.369941839900E+03   -0.35716E-04   -0.23112E-04  6553   0.271E-02    0.344E-02
RMM:   7    -0.369941855604E+03   -0.15704E-04   -0.83854E-05  5060   0.188E-02    0.203E-02
RMM:   8    -0.369941867562E+03   -0.11958E-04   -0.50779E-05  3925   0.141E-02    0.147E-02
RMM:   9    -0.369941877632E+03   -0.10070E-04   -0.21561E-05  3336   0.121E-02    0.915E-03
RMM:  10    -0.369941885011E+03   -0.73793E-05   -0.13237E-05  3033   0.106E-02
  21 F= -.36994189E+03 E0= -.36994691E+03  d E =-.802602E-03
       N       E                     dE             d eps       ncg     rms          rms(c)
DAV:   1    -0.369941894343E+03   -0.16711E-04   -0.12422E-04  6776   0.338E-02    0.150E-02
RMM:   2    -0.369941895595E+03   -0.12519E-05   -0.16085E-05  2658   0.108E-02
  22 F= -.36994190E+03 E0= -.36994692E+03  d E =-.813186E-03
       N       E                     dE             d eps       ncg     rms          rms(c)
DAV:   1    -0.369942107061E+03   -0.21272E-03   -0.18273E-01  4880   0.124E+00    0.115E-01
RMM:   2    -0.369942778862E+03   -0.67180E-03   -0.85288E-03  6804   0.257E-01    0.593E-02
RMM:   3    -0.369942710897E+03    0.67965E-04   -0.78654E-04  7127   0.670E-02    0.477E-02
RMM:   4    -0.369942696904E+03    0.13993E-04   -0.20090E-04  6415   0.213E-02    0.326E-02
RMM:   5    -0.369942691193E+03    0.57116E-05   -0.70621E-05  5140   0.144E-02
  23 F= -.36994269E+03 E0= -.36994771E+03  d E =-.795597E-03
       N       E                     dE             d eps       ncg     rms          rms(c)
DAV:   1    -0.369941237633E+03    0.14593E-02   -0.63074E-01  4816   0.229E+00    0.211E-01
RMM:   2    -0.369943537327E+03   -0.22997E-02   -0.29289E-02  6823   0.476E-01    0.108E-01
RMM:   3    -0.369943355890E+03    0.18144E-03   -0.28366E-03  7282   0.124E-01    0.865E-02
RMM:   4    -0.369943322709E+03    0.33180E-04   -0.71424E-04  7628   0.390E-02    0.601E-02
RMM:   5    -0.369943309851E+03    0.12859E-04   -0.26570E-04  6969   0.284E-02    0.331E-02
RMM:   6    -0.369943298429E+03    0.11422E-04   -0.12556E-04  6846   0.220E-02    0.148E-02
RMM:   7    -0.369943295919E+03    0.25099E-05   -0.30542E-05  3409   0.112E-02
  24 F= -.36994330E+03 E0= -.36994831E+03  d E =-.140032E-02
       N       E                     dE             d eps       ncg     rms          rms(c)
DAV:   1    -0.369943830676E+03   -0.53225E-03   -0.79800E-02  5012   0.890E-01    0.187E-01
RMM:   2    -0.369943864796E+03   -0.34120E-04   -0.57459E-03  6117   0.208E-01    0.738E-02
RMM:   3    -0.369943721384E+03    0.14341E-03   -0.69134E-04  7151   0.648E-02    0.502E-02
RMM:   4    -0.369943662212E+03    0.59172E-04   -0.20702E-04  6978   0.262E-02    0.289E-02
RMM:   5    -0.369943648542E+03    0.13670E-04   -0.63882E-05  4504   0.177E-02    0.200E-02
RMM:   6    -0.369943644984E+03    0.35582E-05   -0.28327E-05  3270   0.114E-02
  25 F= -.36994364E+03 E0= -.36994870E+03  d E =-.349065E-03
       N       E                     dE             d eps       ncg     rms          rms(c)
DAV:   1    -0.369943901915E+03   -0.25337E-03   -0.69283E-02  4928   0.829E-01    0.173E-01
RMM:   2    -0.369943930690E+03   -0.28775E-04   -0.49635E-03  6176   0.194E-01    0.679E-02
RMM:   3    -0.369943808966E+03    0.12172E-03   -0.61467E-04  7147   0.597E-02    0.471E-02
RMM:   4    -0.369943757329E+03    0.51637E-04   -0.18198E-04  6782   0.243E-02    0.278E-02
RMM:   5    -0.369943745443E+03    0.11885E-04   -0.59409E-05  4345   0.169E-02    0.199E-02
RMM:   6    -0.369943742322E+03    0.31212E-05   -0.26503E-05  3275   0.112E-02
  26 F= -.36994374E+03 E0= -.36994885E+03  d E =-.446403E-03
       N       E                     dE             d eps       ncg     rms          rms(c)
DAV:   1    -0.369943910088E+03   -0.16464E-03   -0.27300E-02  5016   0.500E-01    0.766E-02
RMM:   2    -0.369943986549E+03   -0.76461E-04   -0.16025E-03  6925   0.110E-01    0.364E-02
RMM:   3    -0.369943960648E+03    0.25901E-04   -0.19931E-04  6571   0.319E-02    0.271E-02
RMM:   4    -0.369943949973E+03    0.10675E-04   -0.55205E-05  4621   0.148E-02    0.157E-02
RMM:   5    -0.369943947363E+03    0.26099E-05   -0.15811E-05  2895   0.113E-02
  27 F= -.36994395E+03 E0= -.36994908E+03  d E =-.205041E-03
       N       E                     dE             d eps       ncg     rms          rms(c)
DAV:   1    -0.369943864468E+03    0.85505E-04   -0.24468E-01  4816   0.150E+00    0.216E-01
RMM:   2    -0.369944570015E+03   -0.70555E-03   -0.13792E-02  6515   0.321E-01    0.955E-02
RMM:   3    -0.369944320710E+03    0.24930E-03   -0.14527E-03  7130   0.935E-02    0.720E-02
RMM:   4    -0.369944244517E+03    0.76193E-04   -0.40859E-04  7247   0.345E-02    0.416E-02
RMM:   5    -0.369944235841E+03    0.86759E-05   -0.16013E-04  6832   0.253E-02    0.245E-02
RMM:   6    -0.369944241617E+03   -0.57758E-05   -0.54838E-05  4382   0.149E-02
  28 F= -.36994424E+03 E0= -.36994947E+03  d E =-.499295E-03
       N       E                     dE             d eps       ncg     rms          rms(c)
DAV:   1    -0.369944242320E+03   -0.64793E-05   -0.11793E-03  5456   0.105E-01    0.146E-02
RMM:   2    -0.369944250906E+03   -0.85862E-05   -0.86511E-05  5074   0.237E-02
  29 F= -.36994425E+03 E0= -.36994948E+03  d E =-.508584E-03
       N       E                     dE             d eps       ncg     rms          rms(c)
DAV:   1    -0.369944251044E+03   -0.87235E-05   -0.54402E-04  5148   0.705E-02    0.135E-02
RMM:   2    -0.369944256046E+03   -0.50021E-05   -0.32796E-05  2946   0.169E-02
  30 F= -.36994426E+03 E0= -.36994948E+03  d E =-.513724E-03
       N       E                     dE             d eps       ncg     rms          rms(c)
DAV:   1    -0.369944256073E+03   -0.50297E-05   -0.14513E-04  5240   0.380E-02    0.501E-03
RMM:   2    -0.369944257974E+03   -0.19004E-05   -0.99928E-06  2526   0.867E-03
  31 F= -.36994426E+03 E0= -.36994949E+03  d E =-.515652E-03
       N       E                     dE             d eps       ncg     rms          rms(c)
DAV:   1    -0.369944257590E+03   -0.15165E-05   -0.33179E-05  3744   0.197E-02    0.636E-03
RMM:   2    -0.369944258817E+03   -0.12271E-05   -0.44104E-06  2489   0.851E-03
  32 F= -.36994426E+03 E0= -.36994948E+03  d E =-.516495E-03
       N       E                     dE             d eps       ncg     rms          rms(c)
DAV:   1    -0.369944258948E+03   -0.13583E-05   -0.14391E-05  3232   0.125E-02    0.246E-03
RMM:   2    -0.369944259366E+03   -0.41773E-06   -0.19337E-06  2435   0.508E-03
  33 F= -.36994426E+03 E0= -.36994949E+03  d E =-.517044E-03
       N       E                     dE             d eps       ncg     rms          rms(c)
DAV:   1    -0.369944307843E+03   -0.48895E-04   -0.64187E-03  4880   0.223E-01    0.218E-02
RMM:   2    -0.369944328384E+03   -0.20541E-04   -0.27617E-04  6092   0.450E-02    0.984E-03
RMM:   3    -0.369944325309E+03    0.30748E-05   -0.16991E-05  2794   0.137E-02
  34 F= -.36994433E+03 E0= -.36994955E+03  d E =-.659432E-04
       N       E                     dE             d eps       ncg     rms          rms(c)
DAV:   1    -0.369944322765E+03    0.56187E-05   -0.57665E-02  4816   0.666E-01    0.678E-02
RMM:   2    -0.369944501532E+03   -0.17877E-03   -0.24659E-03  6929   0.135E-01    0.354E-02
RMM:   3    -0.369944486578E+03    0.14955E-04   -0.27677E-04  6782   0.354E-02    0.287E-02
RMM:   4    -0.369944480856E+03    0.57218E-05   -0.55622E-05  4468   0.139E-02
  35 F= -.36994448E+03 E0= -.36994971E+03  d E =-.221490E-03
       N       E                     dE             d eps       ncg     rms          rms(c)
DAV:   1    -0.369943929749E+03    0.55683E-03   -0.22931E-01  4816   0.133E+00    0.133E-01
RMM:   2    -0.369944649730E+03   -0.71998E-03   -0.96613E-03  6901   0.269E-01    0.687E-02
RMM:   3    -0.369944602515E+03    0.47215E-04   -0.10851E-03  7293   0.707E-02    0.564E-02
RMM:   4    -0.369944578200E+03    0.24315E-04   -0.24833E-04  6949   0.245E-02    0.379E-02
RMM:   5    -0.369944576848E+03    0.13511E-05   -0.10292E-04  6377   0.182E-02    0.199E-02
RMM:   6    -0.369944578241E+03   -0.13926E-05   -0.38605E-05  3664   0.125E-02
  36 F= -.36994458E+03 E0= -.36994982E+03  d E =-.318875E-03
       N       E                     dE             d eps       ncg     rms          rms(c)
DAV:   1    -0.369944632446E+03   -0.55597E-04   -0.62184E-03  5280   0.234E-01    0.480E-02
RMM:   2    -0.369944650946E+03   -0.18500E-04   -0.44037E-04  7191   0.541E-02    0.220E-02
RMM:   3    -0.369944640225E+03    0.10721E-04   -0.64073E-05  5401   0.165E-02    0.156E-02
RMM:   4    -0.369944635303E+03    0.49222E-05   -0.16061E-05  2849   0.104E-02
  37 F= -.36994464E+03 E0= -.36994988E+03  d E =-.570617E-04
       N       E                     dE             d eps       ncg     rms          rms(c)
DAV:   1    -0.369944736494E+03   -0.96269E-04   -0.55392E-02  4832   0.698E-01    0.128E-01
RMM:   2    -0.369944849885E+03   -0.11339E-03   -0.34974E-03  6477   0.154E-01    0.557E-02
RMM:   3    -0.369944758671E+03    0.91215E-04   -0.40310E-04  7071   0.471E-02    0.394E-02
RMM:   4    -0.369944725018E+03    0.33652E-04   -0.11173E-04  6168   0.193E-02    0.230E-02
RMM:   5    -0.369944716255E+03    0.87631E-05   -0.36645E-05  3574   0.146E-02
  38 F= -.36994472E+03 E0= -.36994997E+03  d E =-.138014E-03
       N       E                     dE             d eps       ncg     rms          rms(c)
DAV:   1    -0.369944720591E+03    0.44272E-05   -0.67976E-03  4928   0.245E-01    0.424E-02
RMM:   2    -0.369944737461E+03   -0.16870E-04   -0.43592E-04  6680   0.535E-02    0.203E-02
RMM:   3    -0.369944721949E+03    0.15513E-04   -0.44830E-05  3987   0.166E-02    0.140E-02
RMM:   4    -0.369944717465E+03    0.44842E-05   -0.15289E-05  2840   0.115E-02
  39 F= -.36994472E+03 E0= -.36994997E+03  d E =-.139223E-03
       N       E                     dE             d eps       ncg     rms          rms(c)
DAV:   1    -0.369944748565E+03   -0.26616E-04   -0.11392E-03  5104   0.971E-02    0.122E-02
RMM:   2    -0.369944750476E+03   -0.19112E-05   -0.53800E-05  3898   0.205E-02
  40 F= -.36994475E+03 E0= -.36995001E+03  d E =-.330115E-04
       N       E                     dE             d eps       ncg     rms          rms(c)
DAV:   1    -0.369944797470E+03   -0.48905E-04   -0.65610E-03  4872   0.233E-01    0.318E-02
RMM:   2    -0.369944815616E+03   -0.18146E-04   -0.32422E-04  6757   0.480E-02    0.144E-02
RMM:   3    -0.369944808694E+03    0.69219E-05   -0.34312E-05  3651   0.145E-02
  41 F= -.36994481E+03 E0= -.36995009E+03  d E =-.912293E-04
