       N       E                     dE             d eps       ncg     rms          rms(c)
DAV:   1     0.162923340477E+04    0.16292E+04   -0.10411E+05  5216   0.104E+03
DAV:   2    -0.141087159222E+03   -0.17703E+04   -0.17109E+04  5496   0.377E+02
DAV:   3    -0.366224678491E+03   -0.22514E+03   -0.21391E+03  8016   0.926E+01
DAV:   4    -0.392235985011E+03   -0.26011E+02   -0.24517E+02  7896   0.293E+01
DAV:   5    -0.394724731685E+03   -0.24887E+01   -0.24291E+01  7544   0.932E+00    0.669E+01
RMM:   6    -0.384248616114E+03    0.10476E+02   -0.26769E+01  6888   0.105E+01    0.324E+01
RMM:   7    -0.387550252812E+03   -0.33016E+01   -0.32014E+01  7224   0.858E+00    0.142E+01
RMM:   8    -0.379025201759E+03    0.85251E+01   -0.98598E+00  6877   0.451E+00    0.383E+00
RMM:   9    -0.378887960870E+03    0.13724E+00   -0.26056E+00  7351   0.225E+00    0.276E+00
RMM:  10    -0.378817745198E+03    0.70216E-01   -0.48546E-01  7461   0.111E+00    0.152E+00
RMM:  11    -0.378785023897E+03    0.32721E-01   -0.15728E-01  7312   0.637E-01    0.793E-01
RMM:  12    -0.378782386545E+03    0.26374E-02   -0.63954E-02  7451   0.366E-01    0.439E-01
RMM:  13    -0.378780709736E+03    0.16768E-02   -0.19999E-02  7425   0.218E-01    0.241E-01
RMM:  14    -0.378780575328E+03    0.13441E-03   -0.87471E-03  7567   0.124E-01    0.145E-01
RMM:  15    -0.378780675197E+03   -0.99870E-04   -0.39809E-03  7561   0.706E-02    0.823E-02
RMM:  16    -0.378780705210E+03   -0.30012E-04   -0.16159E-03  6918   0.405E-02    0.509E-02
RMM:  17    -0.378780720881E+03   -0.15672E-04   -0.75275E-04  6615   0.326E-02    0.221E-02
RMM:  18    -0.378780735878E+03   -0.14997E-04   -0.29701E-04  5734   0.188E-02    0.128E-02
RMM:  19    -0.378780740099E+03   -0.42211E-05   -0.13144E-04  4143   0.138E-02    0.769E-03
RMM:  20    -0.378780742116E+03   -0.20164E-05   -0.61345E-05  3700   0.113E-02
   1 F= -.37878074E+03 E0= -.37878192E+03  d E =-.378781E+03
       N       E                     dE             d eps       ncg     rms          rms(c)
DAV:   1    -0.378882350895E+03   -0.10161E+00   -0.34296E+00  5872   0.641E+00    0.213E+00
RMM:   2    -0.378858008731E+03    0.24342E-01   -0.43472E-01  7252   0.180E+00    0.832E-01
RMM:   3    -0.378837401636E+03    0.20607E-01   -0.79670E-02  7347   0.508E-01    0.554E-01
RMM:   4    -0.378830335227E+03    0.70664E-02   -0.23014E-02  7487   0.299E-01    0.314E-01
RMM:   5    -0.378828389694E+03    0.19455E-02   -0.73284E-03  7416   0.184E-01    0.208E-01
RMM:   6    -0.378828589945E+03   -0.20025E-03   -0.29438E-03  7593   0.910E-02    0.142E-01
RMM:   7    -0.378828713864E+03   -0.12392E-03   -0.11017E-03  7590   0.631E-02    0.814E-02
RMM:   8    -0.378828804778E+03   -0.90915E-04   -0.65041E-04  6952   0.375E-02    0.570E-02
RMM:   9    -0.378828875853E+03   -0.71075E-04   -0.23617E-04  6438   0.288E-02    0.405E-02
RMM:  10    -0.378828945173E+03   -0.69320E-04   -0.15838E-04  5507   0.213E-02    0.223E-02
RMM:  11    -0.378828977595E+03   -0.32422E-04   -0.91987E-05  4696   0.180E-02    0.103E-02
RMM:  12    -0.378828983415E+03   -0.58196E-05   -0.29437E-05  3706   0.140E-02
   2 F= -.37882898E+03 E0= -.37883046E+03  d E =-.482413E-01
       N       E                     dE             d eps       ncg     rms          rms(c)
DAV:   1    -0.379004827413E+03   -0.17585E+00   -0.93049E+00  5696   0.106E+01    0.354E+00
RMM:   2    -0.378937101222E+03    0.67726E-01   -0.11812E+00  7245   0.298E+00    0.137E+00
RMM:   3    -0.378881321653E+03    0.55780E-01   -0.21491E-01  7341   0.838E-01    0.914E-01
RMM:   4    -0.378862188968E+03    0.19133E-01   -0.62425E-02  7484   0.491E-01    0.517E-01
RMM:   5    -0.378856941516E+03    0.52475E-02   -0.19866E-02  7412   0.304E-01    0.343E-01
RMM:   6    -0.378857456760E+03   -0.51524E-03   -0.79884E-03  7581   0.151E-01    0.235E-01
RMM:   7    -0.378857780781E+03   -0.32402E-03   -0.31200E-03  8050   0.103E-01    0.136E-01
RMM:   8    -0.378858007179E+03   -0.22640E-03   -0.17019E-03  7941   0.599E-02    0.956E-02
RMM:   9    -0.378858183717E+03   -0.17654E-03   -0.62001E-04  6996   0.439E-02    0.680E-02
RMM:  10    -0.378858354780E+03   -0.17106E-03   -0.43379E-04  6752   0.329E-02    0.371E-02
RMM:  11    -0.378858425136E+03   -0.70355E-04   -0.23850E-04  5941   0.259E-02    0.165E-02
RMM:  12    -0.378858438144E+03   -0.13008E-04   -0.86911E-05  4698   0.173E-02    0.879E-03
RMM:  13    -0.378858441205E+03   -0.30613E-05   -0.29346E-05  3867   0.140E-02
   3 F= -.37885844E+03 E0= -.37886038E+03  d E =-.776991E-01
       N       E                     dE             d eps       ncg     rms          rms(c)
DAV:   1    -0.378889106461E+03   -0.30668E-01   -0.33442E+00  4752   0.518E+00    0.628E-01
RMM:   2    -0.378900199529E+03   -0.11093E-01   -0.14700E-01  6773   0.108E+00    0.355E-01
RMM:   3    -0.378896760095E+03    0.34394E-02   -0.18283E-02  7272   0.308E-01    0.268E-01
RMM:   4    -0.378896091788E+03    0.66831E-03   -0.37456E-03  7471   0.100E-01    0.175E-01
RMM:   5    -0.378895953372E+03    0.13842E-03   -0.16850E-03  7411   0.760E-02    0.957E-02
RMM:   6    -0.378895917642E+03    0.35730E-04   -0.76453E-04  7478   0.507E-02    0.519E-02
RMM:   7    -0.378895885898E+03    0.31744E-04   -0.27100E-04  6878   0.262E-02    0.333E-02
RMM:   8    -0.378895884890E+03    0.10083E-05   -0.87006E-05  4990   0.156E-02
   4 F= -.37889588E+03 E0= -.37889825E+03  d E =-.374437E-01
       N       E                     dE             d eps       ncg     rms          rms(c)
DAV:   1    -0.378884244110E+03    0.11642E-01   -0.30124E+01  4744   0.156E+01    0.187E+00
RMM:   2    -0.378981887738E+03   -0.97644E-01   -0.13171E+00  6670   0.324E+00    0.101E+00
RMM:   3    -0.378958604794E+03    0.23283E-01   -0.17338E-01  7358   0.969E-01    0.825E-01
RMM:   4    -0.378951755628E+03    0.68492E-02   -0.33263E-02  7621   0.302E-01    0.532E-01
RMM:   5    -0.378950652084E+03    0.11035E-02   -0.15732E-02  7399   0.235E-01    0.295E-01
RMM:   6    -0.378950274884E+03    0.37720E-03   -0.69835E-03  7487   0.156E-01    0.157E-01
RMM:   7    -0.378950115781E+03    0.15910E-03   -0.25869E-03  8096   0.806E-02    0.105E-01
RMM:   8    -0.378950143869E+03   -0.28088E-04   -0.97211E-04  7597   0.416E-02    0.722E-02
RMM:   9    -0.378950161073E+03   -0.17204E-04   -0.43393E-04  7072   0.350E-02    0.401E-02
RMM:  10    -0.378950161898E+03   -0.82541E-06   -0.18362E-04  6094   0.208E-02    0.201E-02
RMM:  11    -0.378950159069E+03    0.28292E-05   -0.83822E-05  5072   0.158E-02
   5 F= -.37895016E+03 E0= -.37895355E+03  d E =-.917179E-01
       N       E                     dE             d eps       ncg     rms          rms(c)
DAV:   1    -0.378949930611E+03    0.23129E-03   -0.47475E-01  4928   0.196E+00    0.237E-01
RMM:   2    -0.378951461812E+03   -0.15312E-02   -0.20724E-02  6761   0.407E-01    0.128E-01
RMM:   3    -0.378951027737E+03    0.43408E-03   -0.25980E-03  7245   0.116E-01    0.983E-02
RMM:   4    -0.378950934269E+03    0.93468E-04   -0.55984E-04  7166   0.381E-02    0.629E-02
RMM:   5    -0.378950918276E+03    0.15993E-04   -0.25202E-04  7044   0.291E-02    0.352E-02
RMM:   6    -0.378950912438E+03    0.58380E-05   -0.11303E-04  6425   0.194E-02    0.195E-02
RMM:   7    -0.378950907493E+03    0.49454E-05   -0.32858E-05  3401   0.117E-02
   6 F= -.37895091E+03 E0= -.37895441E+03  d E =-.924663E-01
       N       E                     dE             d eps       ncg     rms          rms(c)
DAV:   1    -0.378959821392E+03   -0.89090E-02   -0.66610E-01  5040   0.261E+00    0.529E-01
RMM:   2    -0.378960376829E+03   -0.55544E-03   -0.49529E-02  6431   0.620E-01    0.228E-01
RMM:   3    -0.378958771631E+03    0.16052E-02   -0.66496E-03  7072   0.191E-01    0.151E-01
RMM:   4    -0.378958375117E+03    0.39651E-03   -0.17093E-03  7441   0.755E-02    0.934E-02
RMM:   5    -0.378958217726E+03    0.15739E-03   -0.62012E-04  7411   0.489E-02    0.595E-02
RMM:   6    -0.378958212070E+03    0.56556E-05   -0.27109E-04  7047   0.296E-02    0.413E-02
RMM:   7    -0.378958202085E+03    0.99852E-05   -0.11183E-04  5908   0.187E-02    0.233E-02
RMM:   8    -0.378958199682E+03    0.24030E-05   -0.57464E-05  4070   0.140E-02
   7 F= -.37895820E+03 E0= -.37896174E+03  d E =-.729219E-02
       N       E                     dE             d eps       ncg     rms          rms(c)
DAV:   1    -0.378975413151E+03   -0.17211E-01   -0.41963E+00  4816   0.654E+00    0.132E+00
RMM:   2    -0.378978974459E+03   -0.35613E-02   -0.31104E-01  6467   0.155E+00    0.575E-01
RMM:   3    -0.378968938882E+03    0.10036E-01   -0.42525E-02  7107   0.483E-01    0.381E-01
RMM:   4    -0.378966483728E+03    0.24552E-02   -0.10895E-02  7443   0.190E-01    0.238E-01
RMM:   5    -0.378965497919E+03    0.98581E-03   -0.39479E-03  7476   0.122E-01    0.152E-01
RMM:   6    -0.378965500468E+03   -0.25490E-05   -0.17677E-03  7526   0.736E-02    0.105E-01
RMM:   7    -0.378965471173E+03    0.29294E-04   -0.75416E-04  7552   0.472E-02    0.583E-02
RMM:   8    -0.378965482121E+03   -0.10948E-04   -0.35532E-04  6519   0.285E-02    0.395E-02
RMM:   9    -0.378965490107E+03   -0.79857E-05   -0.16581E-04  5914   0.234E-02    0.273E-02
RMM:  10    -0.378965493953E+03   -0.38461E-05   -0.72282E-05  4742   0.158E-02
   8 F= -.37896549E+03 E0= -.37896912E+03  d E =-.145865E-01
       N       E                     dE             d eps       ncg     rms          rms(c)
DAV:   1    -0.378970411397E+03   -0.49213E-02   -0.40358E-01  5104   0.200E+00    0.381E-01
RMM:   2    -0.378971023154E+03   -0.61176E-03   -0.26401E-02  6409   0.452E-01    0.164E-01
RMM:   3    -0.378970451379E+03    0.57178E-03   -0.37438E-03  7297   0.142E-01    0.117E-01
RMM:   4    -0.378970152257E+03    0.29912E-03   -0.10291E-03  7426   0.562E-02    0.618E-02
RMM:   5    -0.378970105993E+03    0.46264E-04   -0.38585E-04  7366   0.391E-02    0.385E-02
RMM:   6    -0.378970115248E+03   -0.92549E-05   -0.13728E-04  6383   0.202E-02    0.247E-02
RMM:   7    -0.378970119321E+03   -0.40732E-05   -0.45457E-05  3937   0.133E-02
   9 F= -.37897012E+03 E0= -.37897382E+03  d E =-.462537E-02
       N       E                     dE             d eps       ncg     rms          rms(c)
DAV:   1    -0.378979077208E+03   -0.89620E-02   -0.36204E+00  4816   0.599E+00    0.114E+00
RMM:   2    -0.378984942863E+03   -0.58657E-02   -0.23495E-01  6246   0.136E+00    0.482E-01
RMM:   3    -0.378979426343E+03    0.55165E-02   -0.31643E-02  7195   0.430E-01    0.339E-01
RMM:   4    -0.378976808041E+03    0.26183E-02   -0.86931E-03  7482   0.165E-01    0.177E-01
RMM:   5    -0.378976436083E+03    0.37196E-03   -0.31933E-03  7452   0.113E-01    0.114E-01
RMM:   6    -0.378976505382E+03   -0.69299E-04   -0.11824E-03  7769   0.576E-02    0.749E-02
RMM:   7    -0.378976537907E+03   -0.32526E-04   -0.48750E-04  7051   0.375E-02    0.494E-02
RMM:   8    -0.378976578311E+03   -0.40403E-04   -0.25168E-04  6411   0.256E-02    0.310E-02
RMM:   9    -0.378976607466E+03   -0.29156E-04   -0.11638E-04  5028   0.199E-02    0.217E-02
RMM:  10    -0.378976630687E+03   -0.23221E-04   -0.64659E-05  4450   0.162E-02    0.121E-02
RMM:  11    -0.378976640193E+03   -0.95063E-05   -0.22908E-05  3420   0.132E-02
  10 F= -.37897664E+03 E0= -.37898056E+03  d E =-.111462E-01
       N       E                     dE             d eps       ncg     rms          rms(c)
DAV:   1    -0.378976674488E+03   -0.43801E-04   -0.17559E-02  5088   0.417E-01    0.776E-02
RMM:   2    -0.378976704331E+03   -0.29843E-04   -0.11108E-03  6169   0.933E-02    0.318E-02
RMM:   3    -0.378976682149E+03    0.22182E-04   -0.14996E-04  6255   0.300E-02    0.222E-02
RMM:   4    -0.378976673031E+03    0.91182E-05   -0.37856E-05  3582   0.136E-02
  11 F= -.37897667E+03 E0= -.37898060E+03  d E =-.111791E-01
       N       E                     dE             d eps       ncg     rms          rms(c)
DAV:   1    -0.378978100749E+03   -0.14186E-02   -0.80188E-02  4928   0.818E-01    0.875E-02
RMM:   2    -0.378978305011E+03   -0.20426E-03   -0.31589E-03  6892   0.167E-01    0.455E-02
RMM:   3    -0.378978267307E+03    0.37704E-04   -0.42357E-04  6894   0.435E-02    0.342E-02
RMM:   4    -0.378978255834E+03    0.11473E-04   -0.10495E-04  5691   0.168E-02    0.210E-02
RMM:   5    -0.378978255674E+03    0.16022E-06   -0.34694E-05  3561   0.114E-02
  12 F= -.37897826E+03 E0= -.37898227E+03  d E =-.158264E-02
       N       E                     dE             d eps       ncg     rms          rms(c)
DAV:   1    -0.378980764511E+03   -0.25087E-02   -0.72143E-01  4720   0.245E+00    0.263E-01
RMM:   2    -0.378982585282E+03   -0.18208E-02   -0.28338E-02  7086   0.500E-01    0.140E-01
RMM:   3    -0.378982274956E+03    0.31033E-03   -0.38111E-03  7236   0.127E-01    0.104E-01
RMM:   4    -0.378982166285E+03    0.10867E-03   -0.94279E-04  7680   0.478E-02    0.645E-02
RMM:   5    -0.378982153700E+03    0.12584E-04   -0.38808E-04  7252   0.335E-02    0.338E-02
RMM:   6    -0.378982153395E+03    0.30502E-06   -0.15861E-04  6767   0.223E-02    0.171E-02
RMM:   7    -0.378982154059E+03   -0.66381E-06   -0.44832E-05  3745   0.127E-02
  13 F= -.37898215E+03 E0= -.37898641E+03  d E =-.548103E-02
       N       E                     dE             d eps       ncg     rms          rms(c)
DAV:   1    -0.378980668603E+03    0.14848E-02   -0.28893E+00  4704   0.491E+00    0.525E-01
RMM:   2    -0.378987800071E+03   -0.71315E-02   -0.11285E-01  7066   0.999E-01    0.275E-01
RMM:   3    -0.378986628006E+03    0.11721E-02   -0.15012E-02  7242   0.256E-01    0.207E-01
RMM:   4    -0.378986166522E+03    0.46148E-03   -0.36775E-03  7728   0.951E-02    0.128E-01
RMM:   5    -0.378986104930E+03    0.61593E-04   -0.15167E-03  7349   0.664E-02    0.664E-02
RMM:   6    -0.378986100040E+03    0.48899E-05   -0.63240E-04  7607   0.439E-02    0.339E-02
RMM:   7    -0.378986103838E+03   -0.37983E-05   -0.22541E-04  6262   0.216E-02    0.231E-02
RMM:   8    -0.378986107759E+03   -0.39205E-05   -0.65487E-05  4349   0.154E-02
  14 F= -.37898611E+03 E0= -.37899080E+03  d E =-.943473E-02
       N       E                     dE             d eps       ncg     rms          rms(c)
DAV:   1    -0.378996389800E+03   -0.10286E-01   -0.72363E-01  5272   0.288E+00    0.894E-01
RMM:   2    -0.378992284746E+03    0.41051E-02   -0.72450E-02  7077   0.741E-01    0.337E-01
RMM:   3    -0.378988986166E+03    0.32986E-02   -0.14091E-02  7261   0.221E-01    0.229E-01
RMM:   4    -0.378987894243E+03    0.10919E-02   -0.38794E-03  7451   0.136E-01    0.130E-01
RMM:   5    -0.378987574136E+03    0.32011E-03   -0.12519E-03  7381   0.702E-02    0.882E-02
RMM:   6    -0.378987580086E+03   -0.59497E-05   -0.53054E-04  7308   0.390E-02    0.588E-02
RMM:   7    -0.378987566745E+03    0.13341E-04   -0.19445E-04  6414   0.274E-02    0.291E-02
RMM:   8    -0.378987571911E+03   -0.51660E-05   -0.11728E-04  5122   0.181E-02    0.219E-02
RMM:   9    -0.378987572404E+03   -0.49328E-06   -0.47687E-05  4050   0.146E-02
  15 F= -.37898757E+03 E0= -.37899226E+03  d E =-.146465E-02
       N       E                     dE             d eps       ncg     rms          rms(c)
DAV:   1    -0.378987721692E+03   -0.14978E-03   -0.90498E-03  5424   0.321E-01    0.103E-01
RMM:   2    -0.378987666499E+03    0.55193E-04   -0.96214E-04  7161   0.834E-02    0.409E-02
RMM:   3    -0.378987627789E+03    0.38709E-04   -0.20482E-04  6508   0.268E-02    0.299E-02
RMM:   4    -0.378987610222E+03    0.17567E-04   -0.48966E-05  4532   0.174E-02    0.175E-02
RMM:   5    -0.378987605026E+03    0.51958E-05   -0.14692E-05  2693   0.124E-02
  16 F= -.37898761E+03 E0= -.37899229E+03  d E =-.149727E-02
       N       E                     dE             d eps       ncg     rms          rms(c)
DAV:   1    -0.378987925866E+03   -0.31564E-03   -0.53699E-01  4736   0.209E+00    0.150E-01
RMM:   2    -0.378989319778E+03   -0.13939E-02   -0.17958E-02  6317   0.408E-01    0.799E-02
RMM:   3    -0.378989205626E+03    0.11415E-03   -0.21085E-03  7151   0.117E-01    0.644E-02
RMM:   4    -0.378989185184E+03    0.20442E-04   -0.47936E-04  7362   0.324E-02    0.428E-02
RMM:   5    -0.378989176344E+03    0.88396E-05   -0.16252E-04  6444   0.212E-02    0.237E-02
RMM:   6    -0.378989172614E+03    0.37298E-05   -0.59582E-05  4765   0.156E-02
  17 F= -.37898917E+03 E0= -.37899383E+03  d E =-.156759E-02
       N       E                     dE             d eps       ncg     rms          rms(c)
DAV:   1    -0.378983462586E+03    0.57138E-02   -0.31217E+00  4704   0.504E+00    0.365E-01
RMM:   2    -0.378991637511E+03   -0.81749E-02   -0.10503E-01  6392   0.984E-01    0.195E-01
RMM:   3    -0.378991065163E+03    0.57235E-03   -0.12783E-02  7202   0.280E-01    0.158E-01
RMM:   4    -0.378990956403E+03    0.10876E-03   -0.28525E-03  7948   0.788E-02    0.106E-01
RMM:   5    -0.378990908823E+03    0.47580E-04   -0.99518E-04  7516   0.543E-02    0.591E-02
RMM:   6    -0.378990887357E+03    0.21467E-04   -0.39514E-04  7352   0.383E-02    0.224E-02
RMM:   7    -0.378990889282E+03   -0.19258E-05   -0.12746E-04  5309   0.165E-02    0.150E-02
RMM:   8    -0.378990890578E+03   -0.12956E-05   -0.61182E-05  3902   0.137E-02
  18 F= -.37899089E+03 E0= -.37899544E+03  d E =-.328555E-02
       N       E                     dE             d eps       ncg     rms          rms(c)
DAV:   1    -0.379008890173E+03   -0.18001E-01   -0.96507E-01  6032   0.352E+00    0.122E+00
RMM:   2    -0.378999518902E+03    0.93713E-02   -0.13559E-01  7295   0.100E+00    0.475E-01
RMM:   3    -0.378992970599E+03    0.65483E-02   -0.24243E-02  7351   0.274E-01    0.301E-01
RMM:   4    -0.378991154700E+03    0.18159E-02   -0.69766E-03  7486   0.181E-01    0.169E-01
RMM:   5    -0.378990591569E+03    0.56313E-03   -0.22043E-03  7369   0.969E-02    0.116E-01
RMM:   6    -0.378990654365E+03   -0.62796E-04   -0.88557E-04  7543   0.514E-02    0.796E-02
RMM:   7    -0.378990705852E+03   -0.51487E-04   -0.35621E-04  6799   0.353E-02    0.395E-02
RMM:   8    -0.378990746065E+03   -0.40212E-04   -0.18499E-04  6291   0.236E-02    0.280E-02
RMM:   9    -0.378990774421E+03   -0.28357E-04   -0.91091E-05  4420   0.173E-02    0.222E-02
RMM:  10    -0.378990796246E+03   -0.21825E-04   -0.45822E-05  3918   0.141E-02    0.123E-02
RMM:  11    -0.378990807504E+03   -0.11258E-04   -0.21431E-05  3377   0.121E-02    0.566E-03
RMM:  12    -0.378990811067E+03   -0.35630E-05   -0.15727E-05  3122   0.121E-02
  19 F= -.37899081E+03 E0= -.37899541E+03  d E =0.795107E-04
       N       E                     dE             d eps       ncg     rms          rms(c)
DAV:   1    -0.378996656289E+03   -0.58488E-02   -0.25680E-01  6024   0.182E+00    0.631E-01
RMM:   2    -0.378994247923E+03    0.24084E-02   -0.36287E-02  7290   0.517E-01    0.247E-01
RMM:   3    -0.378992465163E+03    0.17828E-02   -0.66236E-03  7348   0.143E-01    0.158E-01
RMM:   4    -0.378991952880E+03    0.51228E-03   -0.18781E-03  7460   0.941E-02    0.886E-02
RMM:   5    -0.378991782666E+03    0.17021E-03   -0.58645E-04  7286   0.501E-02    0.594E-02
RMM:   6    -0.378991776658E+03    0.60087E-05   -0.23590E-04  6728   0.270E-02    0.408E-02
RMM:   7    -0.378991766138E+03    0.10519E-04   -0.83351E-05  5337   0.184E-02    0.203E-02
RMM:   8    -0.378991764829E+03    0.13089E-05   -0.53649E-05  3575   0.145E-02
  20 F= -.37899176E+03 E0= -.37899634E+03  d E =-.874251E-03
       N       E                     dE             d eps       ncg     rms          rms(c)
DAV:   1    -0.378991780290E+03   -0.14151E-04   -0.10785E-03  6200   0.119E-01    0.380E-02
RMM:   2    -0.378991772134E+03    0.81553E-05   -0.16250E-04  6473   0.350E-02    0.154E-02
RMM:   3    -0.378991761924E+03    0.10210E-04   -0.15598E-05  2581   0.930E-03    0.105E-02
RMM:   4    -0.378991759706E+03    0.22178E-05   -0.53842E-06  2461   0.836E-03
  21 F= -.37899176E+03 E0= -.37899633E+03  d E =-.869128E-03
       N       E                     dE             d eps       ncg     rms          rms(c)
DAV:   1    -0.378992140249E+03   -0.37833E-03   -0.15046E-01  4800   0.115E+00    0.125E-01
RMM:   2    -0.378992482230E+03   -0.34198E-03   -0.68835E-03  6966   0.247E-01    0.642E-02
RMM:   3    -0.378992446955E+03    0.35274E-04   -0.87053E-04  7191   0.638E-02    0.477E-02
RMM:   4    -0.378992405436E+03    0.41519E-04   -0.25245E-04  6882   0.274E-02    0.250E-02
RMM:   5    -0.378992401043E+03    0.43932E-05   -0.10258E-04  5898   0.177E-02    0.134E-02
RMM:   6    -0.378992398254E+03    0.27883E-05   -0.33017E-05  3494   0.111E-02
  22 F= -.37899240E+03 E0= -.37899695E+03  d E =-.638548E-03
       N       E                     dE             d eps       ncg     rms          rms(c)
DAV:   1    -0.378992277141E+03    0.12390E-03   -0.24714E-01  4704   0.147E+00    0.160E-01
RMM:   2    -0.378992856293E+03   -0.57915E-03   -0.11501E-02  7082   0.317E-01    0.845E-02
RMM:   3    -0.378992813989E+03    0.42303E-04   -0.15659E-03  7239   0.819E-02    0.625E-02
RMM:   4    -0.378992753684E+03    0.60305E-04   -0.46414E-04  7282   0.361E-02    0.333E-02
RMM:   5    -0.378992748724E+03    0.49605E-05   -0.19122E-04  6412   0.235E-02    0.178E-02
RMM:   6    -0.378992745922E+03    0.28016E-05   -0.67420E-05  4389   0.141E-02
  23 F= -.37899275E+03 E0= -.37899726E+03  d E =-.986216E-03
       N       E                     dE             d eps       ncg     rms          rms(c)
DAV:   1    -0.378992868373E+03   -0.11965E-03   -0.75923E-02  4752   0.818E-01    0.787E-02
RMM:   2    -0.378993076092E+03   -0.20772E-03   -0.33128E-03  6772   0.172E-01    0.410E-02
RMM:   3    -0.378993055038E+03    0.21053E-04   -0.37146E-04  6877   0.441E-02    0.299E-02
RMM:   4    -0.378993045321E+03    0.97175E-05   -0.98891E-05  5491   0.174E-02
  24 F= -.37899305E+03 E0= -.37899750E+03  d E =-.299399E-03
       N       E                     dE             d eps       ncg     rms          rms(c)
DAV:   1    -0.378992110163E+03    0.94488E-03   -0.51778E-01  4704   0.214E+00    0.205E-01
RMM:   2    -0.378993540775E+03   -0.14306E-02   -0.22531E-02  7007   0.449E-01    0.112E-01
RMM:   3    -0.378993443957E+03    0.96818E-04   -0.26094E-03  7236   0.111E-01    0.808E-02
RMM:   4    -0.378993369725E+03    0.74231E-04   -0.67871E-04  7591   0.437E-02    0.513E-02
RMM:   5    -0.378993352732E+03    0.16993E-04   -0.28737E-04  7130   0.309E-02    0.271E-02
RMM:   6    -0.378993342531E+03    0.10200E-04   -0.10683E-04  6389   0.186E-02    0.147E-02
RMM:   7    -0.378993340689E+03    0.18419E-05   -0.27708E-05  3352   0.112E-02
  25 F= -.37899334E+03 E0= -.37899766E+03  d E =-.594767E-03
       N       E                     dE             d eps       ncg     rms          rms(c)
DAV:   1    -0.378993555871E+03   -0.21334E-03   -0.37218E-02  5152   0.611E-01    0.136E-01
RMM:   2    -0.378993550531E+03    0.53405E-05   -0.27761E-03  6727   0.144E-01    0.544E-02
RMM:   3    -0.378993488718E+03    0.61812E-04   -0.42337E-04  7133   0.449E-02    0.375E-02
RMM:   4    -0.378993463487E+03    0.25231E-04   -0.12062E-04  6280   0.209E-02    0.202E-02
RMM:   5    -0.378993458431E+03    0.50558E-05   -0.34405E-05  3455   0.139E-02
  26 F= -.37899346E+03 E0= -.37899776E+03  d E =-.117742E-03
       N       E                     dE             d eps       ncg     rms          rms(c)
DAV:   1    -0.378993547078E+03   -0.83591E-04   -0.29036E-02  4992   0.541E-01    0.114E-01
RMM:   2    -0.378993556809E+03   -0.97307E-05   -0.21215E-03  6359   0.127E-01    0.467E-02
RMM:   3    -0.378993504578E+03    0.52231E-04   -0.29186E-04  6746   0.398E-02    0.318E-02
RMM:   4    -0.378993489220E+03    0.15358E-04   -0.83323E-05  5031   0.181E-02    0.184E-02
RMM:   5    -0.378993487428E+03    0.17918E-05   -0.25288E-05  3091   0.140E-02
  27 F= -.37899349E+03 E0= -.37899777E+03  d E =-.146739E-03
       N       E                     dE             d eps       ncg     rms          rms(c)
DAV:   1    -0.378993554939E+03   -0.65719E-04   -0.72829E-03  4960   0.244E-01    0.330E-02
RMM:   2    -0.378993565509E+03   -0.10570E-04   -0.32049E-04  7198   0.524E-02    0.179E-02
RMM:   3    -0.378993565099E+03    0.41020E-06   -0.52093E-05  3876   0.150E-02
  28 F= -.37899357E+03 E0= -.37899786E+03  d E =-.776709E-04
       N       E                     dE             d eps       ncg     rms          rms(c)
DAV:   1    -0.378993670211E+03   -0.10470E-03   -0.65184E-02  4752   0.731E-01    0.937E-02
RMM:   2    -0.378993717971E+03   -0.47761E-04   -0.27327E-03  7219   0.153E-01    0.489E-02
RMM:   3    -0.378993699727E+03    0.18244E-04   -0.46085E-04  7099   0.414E-02    0.326E-02
RMM:   4    -0.378993686421E+03    0.13306E-04   -0.16919E-04  6299   0.215E-02    0.170E-02
RMM:   5    -0.378993683710E+03    0.27107E-05   -0.53395E-05  3856   0.122E-02
  29 F= -.37899368E+03 E0= -.37899798E+03  d E =-.196282E-03
