<?xml version="1.0" encoding="ISO-8859-1"?>
<modeling>
 <generator>
  <i name="program" type="string">vasp </i>
  <i name="version" type="string">5.4.1  </i>
  <i name="subversion" type="string">05Feb16 (build Jan 29 2020 16:04:39) complex                          parallel </i>
  <i name="platform" type="string">IFC91_ompi </i>
  <i name="date" type="string">2020 06 15 </i>
  <i name="time" type="string">10:54:26 </i>
 </generator>
 <incar>
  <i type="string" name="SYSTEM"> automatically generated by mexm</i>
  <i type="int" name="ISTART">     0</i>
  <i type="string" name="PREC">accurate               ! avoid wrap aro</i>
  <i type="string" name="ALGO"> Fast                   ! blocked Davids</i>
  <i type="int" name="ISPIN">     1</i>
  <i type="int" name="ICHARG">     2</i>
  <i type="int" name="NELM">    70</i>
  <i type="int" name="IBRION">     2</i>
  <i name="EDIFF">      0.00001000</i>
  <i name="EDIFFG">     -0.01000000</i>
  <i type="int" name="NSW">   300</i>
  <i type="int" name="ISIF">     3</i>
  <i type="int" name="ISYM">     1</i>
  <i name="ENCUT">    300.00000000</i>
  <i name="POTIM">      0.15000000</i>
  <i type="string" name="LREAL"> Auto                  ! unpublished met</i>
  <i type="int" name="ISMEAR">     1</i>
  <i name="SIGMA">      0.15000000</i>
  <i type="logical" name="LWAVE"> F  </i>
  <i type="logical" name="LCHARG"> F  </i>
  <i type="logical" name="LVTOT"> F  </i>
  <v type="int" name="KPOINT_BSE">    -1     0     0     0</v>
  <i type="int" name="NELM">    70</i>
 </incar>
 <kpoints>
  <generation param="Gamma">
   <v type="int" name="divisions">       3        3        3 </v>
   <v name="usershift">      0.00000000       0.00000000       0.00000000 </v>
   <v name="genvec1">      0.33333333       0.00000000       0.00000000 </v>
   <v name="genvec2">      0.00000000       0.33333333      -0.00000000 </v>
   <v name="genvec3">      0.00000000       0.00000000       0.33333333 </v>
   <v name="shift">      0.00000000       0.00000000       0.00000000 </v>
  </generation>
  <varray name="kpointlist" >
   <v>       0.00000000       0.00000000       0.00000000 </v>
   <v>       0.33333333       0.00000000      -0.00000000 </v>
   <v>      -0.00000000       0.33333333      -0.00000000 </v>
   <v>       0.33333333       0.33333333      -0.00000000 </v>
   <v>      -0.33333333       0.33333333       0.00000000 </v>
   <v>       0.00000000       0.00000000       0.33333333 </v>
   <v>       0.33333333       0.00000000       0.33333333 </v>
   <v>      -0.33333333      -0.00000000       0.33333333 </v>
   <v>      -0.00000000       0.33333333       0.33333333 </v>
   <v>       0.33333333       0.33333333       0.33333333 </v>
   <v>      -0.33333333       0.33333333       0.33333333 </v>
   <v>       0.00000000      -0.33333333       0.33333333 </v>
   <v>       0.33333333      -0.33333333       0.33333333 </v>
   <v>      -0.33333333      -0.33333333       0.33333333 </v>
  </varray>
  <varray name="weights" >
   <v>       0.03703704 </v>
   <v>       0.07407407 </v>
   <v>       0.07407407 </v>
   <v>       0.07407407 </v>
   <v>       0.07407407 </v>
   <v>       0.07407407 </v>
   <v>       0.07407407 </v>
   <v>       0.07407407 </v>
   <v>       0.07407407 </v>
   <v>       0.07407407 </v>
   <v>       0.07407407 </v>
   <v>       0.07407407 </v>
   <v>       0.07407407 </v>
   <v>       0.07407407 </v>
  </varray>
 </kpoints>
 <parameters>
  <separator name="general" >
   <i type="string" name="SYSTEM">automatically generated by mexm</i>
   <i type="logical" name="LCOMPAT"> F  </i>
  </separator>
  <separator name="electronic" >
   <i type="string" name="PREC">accura</i>
   <i name="ENMAX">    300.00000000</i>
   <i name="ENAUG">    461.25700000</i>
   <i name="EDIFF">      0.00001000</i>
   <i type="int" name="IALGO">    68</i>
   <i type="int" name="IWAVPR">    11</i>
   <i type="int" name="NBANDS">   168</i>
   <i name="NELECT">    280.00000000</i>
   <i type="int" name="TURBO">     0</i>
   <i type="int" name="IRESTART">     0</i>
   <i type="int" name="NREBOOT">     0</i>
   <i type="int" name="NMIN">     0</i>
   <i name="EREF">      0.00000000</i>
   <separator name="electronic smearing" >
    <i type="int" name="ISMEAR">     1</i>
    <i name="SIGMA">      0.15000000</i>
    <i name="KSPACING">      0.50000000</i>
    <i type="logical" name="KGAMMA"> T  </i>
   </separator>
   <separator name="electronic projectors" >
    <i type="logical" name="LREAL"> T  </i>
    <v name="ROPT">     -0.00025000     -0.00025000     -0.00025000     -0.00025000</v>
    <i type="int" name="LMAXPAW">  -100</i>
    <i type="int" name="LMAXMIX">     2</i>
    <i type="logical" name="NLSPLINE"> F  </i>
   </separator>
   <separator name="electronic startup" >
    <i type="int" name="ISTART">     0</i>
    <i type="int" name="ICHARG">     2</i>
    <i type="int" name="INIWAV">     1</i>
   </separator>
   <separator name="electronic spin" >
    <i type="int" name="ISPIN">     1</i>
    <i type="logical" name="LNONCOLLINEAR"> F  </i>
    <v name="MAGMOM">      1.00000000      1.00000000      1.00000000      1.00000000      1.00000000      1.00000000      1.00000000      1.00000000      1.00000000      1.00000000      1.00000000      1.00000000      1.00000000      1.00000000      1.00000000      1.00000000      1.00000000      1.00000000      1.00000000      1.00000000
      1.00000000      1.00000000      1.00000000      1.00000000      1.00000000      1.00000000      1.00000000      1.00000000      1.00000000      1.00000000      1.00000000      1.00000000      1.00000000      1.00000000      1.00000000      1.00000000</v>
    <i name="NUPDOWN">     -1.00000000</i>
    <i type="logical" name="LSORBIT"> F  </i>
    <v name="SAXIS">      0.00000000      0.00000000      1.00000000</v>
    <i type="logical" name="LSPIRAL"> F  </i>
    <v name="QSPIRAL">      0.00000000      0.00000000      0.00000000</v>
    <i type="logical" name="LZEROZ"> F  </i>
   </separator>
   <separator name="electronic exchange-correlation" >
    <i type="logical" name="LASPH"> F  </i>
    <i type="logical" name="LMETAGGA"> F  </i>
   </separator>
   <separator name="electronic convergence" >
    <i type="int" name="NELM">    70</i>
    <i type="int" name="NELMDL">    -5</i>
    <i type="int" name="NELMIN">     2</i>
    <i name="ENINI">    300.00000000</i>
    <separator name="electronic convergence detail" >
     <i type="logical" name="LDIAG"> T  </i>
     <i type="logical" name="LSUBROT"> F  </i>
     <i name="WEIMIN">      0.00100000</i>
     <i name="EBREAK">      0.00000001</i>
     <i name="DEPER">      0.30000000</i>
     <i type="int" name="NRMM">     4</i>
     <i name="TIME">      0.40000000</i>
    </separator>
   </separator>
   <separator name="electronic mixer" >
    <i name="AMIX">      0.40000000</i>
    <i name="BMIX">      1.00000000</i>
    <i name="AMIN">      0.10000000</i>
    <i name="AMIX_MAG">      1.60000000</i>
    <i name="BMIX_MAG">      1.00000000</i>
    <separator name="electronic mixer details" >
     <i type="int" name="IMIX">     4</i>
     <i type="logical" name="MIXFIRST"> F  </i>
     <i type="int" name="MAXMIX">   -45</i>
     <i name="WC">    100.00000000</i>
     <i type="int" name="INIMIX">     1</i>
     <i type="int" name="MIXPRE">     1</i>
     <i type="int" name="MREMOVE">     5</i>
    </separator>
   </separator>
   <separator name="electronic dipolcorrection" >
    <i type="logical" name="LDIPOL"> F  </i>
    <i type="logical" name="LMONO"> F  </i>
    <i type="int" name="IDIPOL">     0</i>
    <i name="EPSILON">      1.00000000</i>
    <v name="DIPOL">   -100.00000000   -100.00000000   -100.00000000</v>
    <i name="EFIELD">      0.00000000</i>
   </separator>
  </separator>
  <separator name="grids" >
   <i type="int" name="NGX">    40</i>
   <i type="int" name="NGY">    60</i>
   <i type="int" name="NGZ">    60</i>
   <i type="int" name="NGXF">    80</i>
   <i type="int" name="NGYF">   120</i>
   <i type="int" name="NGZF">   120</i>
   <i type="logical" name="ADDGRID"> F  </i>
  </separator>
  <separator name="ionic" >
   <i type="int" name="NSW">   300</i>
   <i type="int" name="IBRION">     2</i>
   <i type="int" name="ISIF">     3</i>
   <i name="PSTRESS">      0.00000000</i>
   <i name="EDIFFG">     -0.01000000</i>
   <i type="int" name="NFREE">     1</i>
   <i name="POTIM">      0.15000000</i>
   <i name="SMASS">     -3.00000000</i>
   <i name="SCALEE">      1.00000000</i>
  </separator>
  <separator name="ionic md" >
   <i name="TEBEG">      0.00010000</i>
   <i name="TEEND">      0.00010000</i>
   <i type="int" name="NBLOCK">     1</i>
   <i type="int" name="KBLOCK">   300</i>
   <i type="int" name="NPACO">   256</i>
   <i name="APACO">     16.00000000</i>
  </separator>
  <separator name="symmetry" >
   <i type="int" name="ISYM">     1</i>
   <i name="SYMPREC">      0.00001000</i>
  </separator>
  <separator name="dos" >
   <i type="logical" name="LORBIT"> F  </i>
   <v name="RWIGS">     -1.00000000     -1.00000000     -1.00000000     -1.00000000</v>
   <i type="int" name="NEDOS">   301</i>
   <i name="EMIN">     10.00000000</i>
   <i name="EMAX">    -10.00000000</i>
   <i name="EFERMI">      0.00000000</i>
  </separator>
  <separator name="writing" >
   <i type="int" name="NWRITE">     2</i>
   <i type="logical" name="LWAVE"> F  </i>
   <i type="logical" name="LCHARG"> F  </i>
   <i type="logical" name="LPARD"> F  </i>
   <i type="logical" name="LVTOT"> F  </i>
   <i type="logical" name="LVHAR"> F  </i>
   <i type="logical" name="LELF"> F  </i>
   <i type="logical" name="LOPTICS"> F  </i>
   <v name="STM">      0.00000000      0.00000000      0.00000000      0.00000000      0.00000000      0.00000000      0.00000000</v>
  </separator>
  <separator name="performance" >
   <i type="int" name="NPAR">     4</i>
   <i type="int" name="NSIM">     4</i>
   <i type="int" name="NBLK">    -1</i>
   <i type="logical" name="LPLANE"> T  </i>
   <i type="logical" name="LSCALAPACK"> T  </i>
   <i type="logical" name="LSCAAWARE"> F  </i>
   <i type="logical" name="LSCALU"> F  </i>
   <i type="logical" name="LASYNC"> F  </i>
   <i type="logical" name="LORBITALREAL"> F  </i>
  </separator>
  <separator name="miscellaneous" >
   <i type="int" name="IDIOT">     3</i>
   <i type="logical" name="LMUSIC"> F  </i>
   <v name="POMASS">    180.94800000    178.49000000     92.91000000     91.22400000</v>
   <v name="DARWINR">      0.00000000      0.00000000      0.00000000      0.00000000</v>
   <v name="DARWINV">      1.00000000      1.00000000      1.00000000      1.00000000</v>
   <i type="logical" name="LCORR"> T  </i>
  </separator>
  <i type="logical" name="GGA_COMPAT"> T  </i>
  <i type="logical" name="LBERRY"> F  </i>
  <i type="int" name="ICORELEVEL">     0</i>
  <i type="logical" name="LDAU"> F  </i>
  <i type="int" name="I_CONSTRAINED_M">     0</i>
  <separator name="electronic exchange-correlation" >
   <i type="string" name="GGA">--</i>
   <i type="int" name="VOSKOWN">     0</i>
   <i type="logical" name="LHFCALC"> F  </i>
   <i type="string" name="PRECFOCK"></i>
   <i type="logical" name="LSYMGRAD"> F  </i>
   <i type="logical" name="LHFONE"> F  </i>
   <i type="logical" name="LRHFCALC"> F  </i>
   <i type="logical" name="LTHOMAS"> F  </i>
   <i type="logical" name="LMODELHF"> F  </i>
   <i name="ENCUT4O">     -1.00000000</i>
   <i type="int" name="EXXOEP">     0</i>
   <i type="int" name="FOURORBIT">     0</i>
   <i name="AEXX">      0.00000000</i>
   <i name="HFALPHA">      0.00000000</i>
   <i name="MCALPHA">      0.00000000</i>
   <i name="ALDAX">      1.00000000</i>
   <i name="AGGAX">      1.00000000</i>
   <i name="ALDAC">      1.00000000</i>
   <i name="AGGAC">      1.00000000</i>
   <i type="int" name="NKREDX">     1</i>
   <i type="int" name="NKREDY">     1</i>
   <i type="int" name="NKREDZ">     1</i>
   <i type="logical" name="SHIFTRED"> F  </i>
   <i type="logical" name="ODDONLY"> F  </i>
   <i type="logical" name="EVENONLY"> F  </i>
   <i type="int" name="LMAXFOCK">     0</i>
   <i type="int" name="NMAXFOCKAE">     0</i>
   <i type="logical" name="LFOCKAEDFT"> F  </i>
   <i name="HFSCREEN">      0.00000000</i>
   <i name="HFSCREENC">      0.00000000</i>
   <i type="int" name="NBANDSGWLOW">     0</i>
  </separator>
  <separator name="vdW DFT" >
   <i type="logical" name="LUSE_VDW"> F  </i>
   <i name="Zab_VDW">     -0.84910000</i>
   <i name="PARAM1">      0.12340000</i>
   <i name="PARAM2">      1.00000000</i>
   <i name="PARAM3">      0.00000000</i>
  </separator>
  <separator name="model GW" >
   <i type="int" name="MODEL_GW">     0</i>
   <i name="MODEL_EPS0">     11.73661215</i>
   <i name="MODEL_ALPHA">      1.00000000</i>
  </separator>
  <separator name="linear response parameters" >
   <i type="logical" name="LEPSILON"> F  </i>
   <i type="logical" name="LRPA"> F  </i>
   <i type="logical" name="LNABLA"> F  </i>
   <i type="logical" name="LVEL"> F  </i>
   <i type="int" name="KINTER">     0</i>
   <i name="CSHIFT">      0.10000000</i>
   <i name="OMEGAMAX">     -1.00000000</i>
   <i name="DEG_THRESHOLD">      0.00200000</i>
  </separator>
  <separator name="orbital magnetization" >
   <i type="logical" name="NUCIND"> F  </i>
   <v name="MAGPOS">      0.00000000      0.00000000      0.00000000</v>
   <i type="logical" name="LNICSALL"> T  </i>
   <i type="logical" name="ORBITALMAG"> F  </i>
   <i type="logical" name="LMAGBLOCH"> F  </i>
   <i type="logical" name="LCHIMAG"> F  </i>
   <i type="logical" name="LGAUGE"> T  </i>
   <i type="int" name="MAGATOM">     0</i>
   <v name="MAGDIPOL">      0.00000000      0.00000000      0.00000000</v>
   <v name="AVECCONST">      0.00000000      0.00000000      0.00000000</v>
  </separator>
  <separator name="response functions" >
   <i type="logical" name="LADDER"> F  </i>
   <i type="logical" name="LFXC"> F  </i>
   <i type="logical" name="LHARTREE"> T  </i>
   <i type="int" name="IBSE">     0</i>
   <v type="int" name="KPOINT">    -1     0     0     0</v>
   <i type="logical" name="LTCTE"> F  </i>
   <i type="logical" name="LTETE"> F  </i>
   <i type="logical" name="LTRIPLET"> F  </i>
   <i type="logical" name="LFXCEPS"> F  </i>
   <i type="logical" name="LFXHEG"> F  </i>
   <i type="int" name="NATURALO">     0</i>
   <i type="logical" name="L2ORDER"> F  </i>
   <i type="logical" name="LUSEW"> F  </i>
   <i name="ENCUTGW">     -2.00000000</i>
   <i name="ENCUTGWSOFT">     -2.00000000</i>
   <i name="ENCUTLF">     -1.00000000</i>
   <i type="int" name="LMAXMP2">    -1</i>
   <i name="SCISSOR">      0.00000000</i>
   <i type="int" name="NOMEGA">     0</i>
   <i type="int" name="NOMEGAR">     0</i>
   <i type="int" name="NBANDSGW">    -1</i>
   <i type="int" name="NBANDSO">    -1</i>
   <i type="int" name="NBANDSV">    -1</i>
   <i type="int" name="NELM">    70</i>
   <i type="int" name="NELMHF">     1</i>
   <i type="int" name="DIM">     3</i>
   <i type="int" name="ANTIRES">     0</i>
   <i name="OMEGAMAX">    -30.00000000</i>
   <i name="OMEGAMIN">    -30.00000000</i>
   <i name="OMEGATL">   -200.00000000</i>
   <i type="int" name="OMEGAGRID">     0</i>
   <i name="CSHIFT">     -0.10000000</i>
   <i type="logical" name="SELFENERGY"> F  </i>
   <i type="logical" name="LSPECTRAL"> F  </i>
   <i type="logical" name="LSPECTRALGW"> F  </i>
   <i type="logical" name="LSINGLES"> F  </i>
   <i type="logical" name="LFERMIGW"> F  </i>
   <i type="logical" name="ODDONLYGW"> F  </i>
   <i type="logical" name="EVENONLYGW"> F  </i>
   <i type="int" name="NKREDLFX">     1</i>
   <i type="int" name="NKREDLFY">     1</i>
   <i type="int" name="NKREDLFZ">     1</i>
   <i type="int" name="MAXMEM">  1800</i>
   <i type="int" name="TELESCOPE">     0</i>
   <i type="int" name="TAUPAR">     1</i>
   <i type="int" name="OMEGAPAR">    -1</i>
   <i name="LAMBDA">      1.00000000</i>
  </separator>
  <separator name="External order field" >
   <i name="OFIELD_KAPPA">      0.00000000</i>
   <v name="OFIELD_K">      0.00000000      0.00000000      0.00000000</v>
   <i name="OFIELD_Q6_NEAR">      0.00000000</i>
   <i name="OFIELD_Q6_FAR">      0.00000000</i>
   <i name="OFIELD_A">      0.00000000</i>
  </separator>
 </parameters>
 <atominfo>
  <atoms>      36 </atoms>
  <types>       4 </types>
  <array name="atoms" >
   <dimension dim="1">ion</dimension>
   <field type="string">element</field>
   <field type="int">atomtype</field>
   <set>
    <rc><c>Ta</c><c>   1</c></rc>
    <rc><c>Ta</c><c>   1</c></rc>
    <rc><c>Ta</c><c>   1</c></rc>
    <rc><c>Ta</c><c>   1</c></rc>
    <rc><c>Ta</c><c>   1</c></rc>
    <rc><c>Ta</c><c>   1</c></rc>
    <rc><c>Ta</c><c>   1</c></rc>
    <rc><c>Ta</c><c>   1</c></rc>
    <rc><c>Ta</c><c>   1</c></rc>
    <rc><c>Ta</c><c>   1</c></rc>
    <rc><c>Ta</c><c>   1</c></rc>
    <rc><c>Ta</c><c>   1</c></rc>
    <rc><c>Ta</c><c>   1</c></rc>
    <rc><c>Ta</c><c>   1</c></rc>
    <rc><c>Ta</c><c>   1</c></rc>
    <rc><c>Hf</c><c>   2</c></rc>
    <rc><c>Hf</c><c>   2</c></rc>
    <rc><c>Hf</c><c>   2</c></rc>
    <rc><c>Hf</c><c>   2</c></rc>
    <rc><c>Hf</c><c>   2</c></rc>
    <rc><c>Hf</c><c>   2</c></rc>
    <rc><c>Hf</c><c>   2</c></rc>
    <rc><c>Nb</c><c>   3</c></rc>
    <rc><c>Nb</c><c>   3</c></rc>
    <rc><c>Nb</c><c>   3</c></rc>
    <rc><c>Nb</c><c>   3</c></rc>
    <rc><c>Nb</c><c>   3</c></rc>
    <rc><c>Nb</c><c>   3</c></rc>
    <rc><c>Nb</c><c>   3</c></rc>
    <rc><c>Nb</c><c>   3</c></rc>
    <rc><c>Nb</c><c>   3</c></rc>
    <rc><c>Zr</c><c>   4</c></rc>
    <rc><c>Zr</c><c>   4</c></rc>
    <rc><c>Zr</c><c>   4</c></rc>
    <rc><c>Zr</c><c>   4</c></rc>
    <rc><c>Zr</c><c>   4</c></rc>
   </set>
  </array>
  <array name="atomtypes" >
   <dimension dim="1">type</dimension>
   <field type="int">atomspertype</field>
   <field type="string">element</field>
   <field>mass</field>
   <field>valence</field>
   <field type="string">pseudopotential</field>
   <set>
    <rc><c>  15</c><c>Ta</c><c>    180.94800000</c><c>      5.00000000</c><c>  PAW_PBE Ta 17Jan2003                  </c></rc>
    <rc><c>   7</c><c>Hf</c><c>    178.49000000</c><c>      4.00000000</c><c>  PAW_PBE Hf 20Jan2003                  </c></rc>
    <rc><c>   9</c><c>Nb</c><c>     92.91000000</c><c>     13.00000000</c><c>  PAW_PBE Nb_sv 25May2007               </c></rc>
    <rc><c>   5</c><c>Zr</c><c>     91.22400000</c><c>     12.00000000</c><c>  PAW_PBE Zr_sv 04Jan2005               </c></rc>
   </set>
  </array>
 </atominfo>
 <structure name="initialpos" >
  <crystal>
   <varray name="basis" >
    <v>       6.81465500      -0.02023757      -0.00728293 </v>
    <v>      -0.02922651      10.10178667      -0.00336212 </v>
    <v>      -0.01064505      -0.00354669      10.22954228 </v>
   </varray>
   <i name="volume">    704.19672871 </i>
   <varray name="rec_basis" >
    <v>       0.14674400       0.00042461       0.00015285 </v>
    <v>       0.00029402       0.09899325       0.00003463 </v>
    <v>       0.00010457       0.00003284       0.09775620 </v>
   </varray>
  </crystal>
  <varray name="positions" >
   <v>       0.52112100       0.98805200       0.99837400 </v>
   <v>       0.24460400       0.83880100       0.49620200 </v>
   <v>       0.75809500       0.83925100       0.49653500 </v>
   <v>       0.24289600       0.50899400       0.17784600 </v>
   <v>       0.98199400       0.66808800       0.00265700 </v>
   <v>       0.75405000       0.49893600       0.49281400 </v>
   <v>       0.75154300       0.83405700       0.17294600 </v>
   <v>       0.98257000       0.99072000       0.00141900 </v>
   <v>       0.76678800       0.49778200       0.82600300 </v>
   <v>       0.99651800       0.66779000       0.33906400 </v>
   <v>       0.25596000       0.15750700       0.49539100 </v>
   <v>       0.26183900       0.14004500       0.83192000 </v>
   <v>       0.50139800       0.99029600       0.66046000 </v>
   <v>       0.48070300       0.34131500       0.34909000 </v>
   <v>       0.74908400       0.16459900       0.17248600 </v>
   <v>       0.24900700       0.82880800       0.17025100 </v>
   <v>       0.48182200       0.34261400       0.66856900 </v>
   <v>       0.74988800       0.16586600       0.49715200 </v>
   <v>       0.02029300       0.33340100       0.66546000 </v>
   <v>       0.74344400       0.16399000       0.83086300 </v>
   <v>       0.50779800       0.67093100       0.66063900 </v>
   <v>       0.47500900       0.34339800       0.98508500 </v>
   <v>       0.49824900       0.66450400       0.34261300 </v>
   <v>       0.75816000       0.83811600       0.82988000 </v>
   <v>       0.24349900       0.50800400       0.49309800 </v>
   <v>       0.50309000       0.99315600       0.33989800 </v>
   <v>       0.99993200       0.99140600       0.33627000 </v>
   <v>       0.00536100       0.00377100       0.66249400 </v>
   <v>       0.99083700       0.66552000       0.65988100 </v>
   <v>       0.01966100       0.34310000       0.34609100 </v>
   <v>       0.22116100       0.52896500       0.83079900 </v>
   <v>       0.24204600       0.83591500       0.83150000 </v>
   <v>       0.74999700       0.49157500       0.17764200 </v>
   <v>       0.02525200       0.33625200       0.99020300 </v>
   <v>       0.50988000       0.66354400       0.99591900 </v>
   <v>       0.25645200       0.16094400       0.17248700 </v>
  </varray>
 </structure>
 <calculation>
  <scstep>
   <time name="dav">    0.97    0.97</time>
   <time name="total">    1.22    1.43</time>
   <energy>
    <i name="alphaZ">   1521.66091802 </i>
    <i name="ewald"> -18037.16107648 </i>
    <i name="hartreedc">  -6035.41371504 </i>
    <i name="XCdc">   -610.63616650 </i>
    <i name="pawpsdc">  19828.46816637 </i>
    <i name="pawaedc"> -18038.75523802 </i>
    <i name="eentropy">     -0.00581942 </i>
    <i name="bandstr">     93.24034800 </i>
    <i name="atom">  22907.83598784 </i>
    <i name="e_fr_energy">   1629.23340477 </i>
    <i name="e_wo_entrp">   1629.23922418 </i>
    <i name="e_0_energy">   1629.23534457 </i>
   </energy>
  </scstep>
  <scstep>
   <time name="dav">    1.06    1.22</time>
   <time name="total">    1.06    1.30</time>
   <energy>
    <i name="e_fr_energy">   -141.08715922 </i>
    <i name="e_wo_entrp">   -141.08658984 </i>
    <i name="e_0_energy">   -141.08696943 </i>
   </energy>
  </scstep>
  <scstep>
   <time name="dav">    1.36    1.37</time>
   <time name="total">    1.36    1.39</time>
   <energy>
    <i name="e_fr_energy">   -366.22467849 </i>
    <i name="e_wo_entrp">   -366.22190365 </i>
    <i name="e_0_energy">   -366.22375354 </i>
   </energy>
  </scstep>
  <scstep>
   <time name="dav">    1.30    1.30</time>
   <time name="total">    1.30    1.32</time>
   <energy>
    <i name="e_fr_energy">   -392.23598501 </i>
    <i name="e_wo_entrp">   -392.23296151 </i>
    <i name="e_0_energy">   -392.23497718 </i>
   </energy>
  </scstep>
  <scstep>
   <time name="dav">    1.37    1.38</time>
   <time name="total">    1.42    1.44</time>
   <energy>
    <i name="e_fr_energy">   -394.72473169 </i>
    <i name="e_wo_entrp">   -394.72256285 </i>
    <i name="e_0_energy">   -394.72400874 </i>
   </energy>
  </scstep>
  <scstep>
   <time name="diag">    0.08    0.08</time>
   <time name="diis">    0.80    0.80</time>
   <time name="orth">    0.01    0.01</time>
   <time name="total">    0.98    1.00</time>
   <energy>
    <i name="e_fr_energy">   -384.24861611 </i>
    <i name="e_wo_entrp">   -384.26391362 </i>
    <i name="e_0_energy">   -384.25371528 </i>
   </energy>
  </scstep>
  <scstep>
   <time name="diag">    0.08    0.08</time>
   <time name="diis">    0.76    0.77</time>
   <time name="orth">    0.01    0.01</time>
   <time name="total">    0.95    0.97</time>
   <energy>
    <i name="e_fr_energy">   -387.55025281 </i>
    <i name="e_wo_entrp">   -387.53302960 </i>
    <i name="e_0_energy">   -387.54451174 </i>
   </energy>
  </scstep>
  <scstep>
   <time name="diag">    0.07    0.07</time>
   <time name="diis">    0.73    0.74</time>
   <time name="orth">    0.01    0.01</time>
   <time name="total">    0.88    0.90</time>
   <energy>
    <i name="e_fr_energy">   -379.02520176 </i>
    <i name="e_wo_entrp">   -379.03234689 </i>
    <i name="e_0_energy">   -379.02758347 </i>
   </energy>
  </scstep>
  <scstep>
   <time name="diag">    0.07    0.07</time>
   <time name="diis">    0.86    0.87</time>
   <time name="orth">    0.01    0.01</time>
   <time name="total">    1.01    1.03</time>
   <energy>
    <i name="e_fr_energy">   -378.88796087 </i>
    <i name="e_wo_entrp">   -378.89322790 </i>
    <i name="e_0_energy">   -378.88971655 </i>
   </energy>
  </scstep>
  <scstep>
   <time name="diag">    0.07    0.07</time>
   <time name="diis">    0.84    0.84</time>
   <time name="orth">    0.02    0.02</time>
   <time name="total">    1.04    1.06</time>
   <energy>
    <i name="e_fr_energy">   -378.81774520 </i>
    <i name="e_wo_entrp">   -378.82434198 </i>
    <i name="e_0_energy">   -378.81994413 </i>
   </energy>
  </scstep>
  <scstep>
   <time name="diag">    0.09    0.09</time>
   <time name="diis">    0.83    0.85</time>
   <time name="orth">    0.01    0.01</time>
   <time name="total">    1.01    1.07</time>
   <energy>
    <i name="e_fr_energy">   -378.78502390 </i>
    <i name="e_wo_entrp">   -378.78787129 </i>
    <i name="e_0_energy">   -378.78597303 </i>
   </energy>
  </scstep>
  <scstep>
   <time name="diag">    0.10    0.10</time>
   <time name="diis">    0.78    0.78</time>
   <time name="orth">    0.01    0.01</time>
   <time name="total">    0.95    0.98</time>
   <energy>
    <i name="e_fr_energy">   -378.78238655 </i>
    <i name="e_wo_entrp">   -378.78560277 </i>
    <i name="e_0_energy">   -378.78345862 </i>
   </energy>
  </scstep>
  <scstep>
   <time name="diag">    0.07    0.07</time>
   <time name="diis">    0.81    0.82</time>
   <time name="orth">    0.01    0.01</time>
   <time name="total">    0.96    0.98</time>
   <energy>
    <i name="e_fr_energy">   -378.78070974 </i>
    <i name="e_wo_entrp">   -378.78417024 </i>
    <i name="e_0_energy">   -378.78186324 </i>
   </energy>
  </scstep>
  <scstep>
   <time name="diag">    0.08    0.08</time>
   <time name="diis">    0.86    0.86</time>
   <time name="orth">    0.01    0.01</time>
   <time name="total">    1.04    1.08</time>
   <energy>
    <i name="e_fr_energy">   -378.78057533 </i>
    <i name="e_wo_entrp">   -378.78413267 </i>
    <i name="e_0_energy">   -378.78176111 </i>
   </energy>
  </scstep>
  <scstep>
   <time name="diag">    0.07    0.07</time>
   <time name="diis">    0.75    0.87</time>
   <time name="orth">    0.01    0.01</time>
   <time name="total">    0.91    1.08</time>
   <energy>
    <i name="e_fr_energy">   -378.78067520 </i>
    <i name="e_wo_entrp">   -378.78422309 </i>
    <i name="e_0_energy">   -378.78185783 </i>
   </energy>
  </scstep>
  <scstep>
   <time name="diag">    0.07    0.07</time>
   <time name="diis">    0.73    0.74</time>
   <time name="orth">    0.01    0.01</time>
   <time name="total">    0.88    0.93</time>
   <energy>
    <i name="e_fr_energy">   -378.78070521 </i>
    <i name="e_wo_entrp">   -378.78430573 </i>
    <i name="e_0_energy">   -378.78190538 </i>
   </energy>
  </scstep>
  <scstep>
   <time name="diag">    0.07    0.07</time>
   <time name="diis">    0.73    0.74</time>
   <time name="orth">    0.01    0.01</time>
   <time name="total">    0.92    0.96</time>
   <energy>
    <i name="e_fr_energy">   -378.78072088 </i>
    <i name="e_wo_entrp">   -378.78425825 </i>
    <i name="e_0_energy">   -378.78190000 </i>
   </energy>
  </scstep>
  <scstep>
   <time name="diag">    0.08    0.08</time>
   <time name="diis">    0.62    0.62</time>
   <time name="orth">    0.01    0.01</time>
   <time name="total">    0.77    0.82</time>
   <energy>
    <i name="e_fr_energy">   -378.78073588 </i>
    <i name="e_wo_entrp">   -378.78425878 </i>
    <i name="e_0_energy">   -378.78191018 </i>
   </energy>
  </scstep>
  <scstep>
   <time name="diag">    0.07    0.07</time>
   <time name="diis">    0.54    0.55</time>
   <time name="orth">    0.01    0.01</time>
   <time name="total">    0.69    0.73</time>
   <energy>
    <i name="e_fr_energy">   -378.78074010 </i>
    <i name="e_wo_entrp">   -378.78427607 </i>
    <i name="e_0_energy">   -378.78191876 </i>
   </energy>
  </scstep>
  <scstep>
   <time name="diag">    0.07    0.07</time>
   <time name="diis">    0.41    0.41</time>
   <time name="orth">    0.01    0.01</time>
   <time name="total">    0.53    0.55</time>
   <energy>
    <i name="alphaZ">   1521.66091802 </i>
    <i name="ewald"> -18037.16107648 </i>
    <i name="hartreedc">  -5825.40675893 </i>
    <i name="XCdc">   -606.86943241 </i>
    <i name="pawpsdc">  32014.18071130 </i>
    <i name="pawaedc"> -30210.96357442 </i>
    <i name="eentropy">      0.00353703 </i>
    <i name="bandstr">  -2142.06105407 </i>
    <i name="atom">  22907.83598784 </i>
    <i name="e_fr_energy">   -378.78074212 </i>
    <i name="e_wo_entrp">   -378.78427914 </i>
    <i name="e_0_energy">   -378.78192113 </i>
   </energy>
  </scstep>
  <structure>
   <crystal>
    <varray name="basis" >
     <v>       6.81465500      -0.02023757      -0.00728293 </v>
     <v>      -0.02922651      10.10178667      -0.00336212 </v>
     <v>      -0.01064505      -0.00354669      10.22954228 </v>
    </varray>
    <i name="volume">    704.19672871 </i>
    <varray name="rec_basis" >
     <v>       0.14674400       0.00042461       0.00015285 </v>
     <v>       0.00029402       0.09899325       0.00003463 </v>
     <v>       0.00010457       0.00003284       0.09775620 </v>
    </varray>
   </crystal>
   <varray name="positions" >
    <v>       0.52112100       0.98805200       0.99837400 </v>
    <v>       0.24460400       0.83880100       0.49620200 </v>
    <v>       0.75809500       0.83925100       0.49653500 </v>
    <v>       0.24289600       0.50899400       0.17784600 </v>
    <v>       0.98199400       0.66808800       0.00265700 </v>
    <v>       0.75405000       0.49893600       0.49281400 </v>
    <v>       0.75154300       0.83405700       0.17294600 </v>
    <v>       0.98257000       0.99072000       0.00141900 </v>
    <v>       0.76678800       0.49778200       0.82600300 </v>
    <v>       0.99651800       0.66779000       0.33906400 </v>
    <v>       0.25596000       0.15750700       0.49539100 </v>
    <v>       0.26183900       0.14004500       0.83192000 </v>
    <v>       0.50139800       0.99029600       0.66046000 </v>
    <v>       0.48070300       0.34131500       0.34909000 </v>
    <v>       0.74908400       0.16459900       0.17248600 </v>
    <v>       0.24900700       0.82880800       0.17025100 </v>
    <v>       0.48182200       0.34261400       0.66856900 </v>
    <v>       0.74988800       0.16586600       0.49715200 </v>
    <v>       0.02029300       0.33340100       0.66546000 </v>
    <v>       0.74344400       0.16399000       0.83086300 </v>
    <v>       0.50779800       0.67093100       0.66063900 </v>
    <v>       0.47500900       0.34339800       0.98508500 </v>
    <v>       0.49824900       0.66450400       0.34261300 </v>
    <v>       0.75816000       0.83811600       0.82988000 </v>
    <v>       0.24349900       0.50800400       0.49309800 </v>
    <v>       0.50309000       0.99315600       0.33989800 </v>
    <v>       0.99993200       0.99140600       0.33627000 </v>
    <v>       0.00536100       0.00377100       0.66249400 </v>
    <v>       0.99083700       0.66552000       0.65988100 </v>
    <v>       0.01966100       0.34310000       0.34609100 </v>
    <v>       0.22116100       0.52896500       0.83079900 </v>
    <v>       0.24204600       0.83591500       0.83150000 </v>
    <v>       0.74999700       0.49157500       0.17764200 </v>
    <v>       0.02525200       0.33625200       0.99020300 </v>
    <v>       0.50988000       0.66354400       0.99591900 </v>
    <v>       0.25645200       0.16094400       0.17248700 </v>
   </varray>
  </structure>
  <varray name="forces" >
   <v>       0.16456617       0.44511821       0.35505078 </v>
   <v>      -0.00297264      -0.04362375       0.03860367 </v>
   <v>       0.00671157      -0.01295707       0.01751110 </v>
   <v>      -0.00829391       0.05951070       0.04686457 </v>
   <v>      -0.01388725       0.00783553      -0.00276882 </v>
   <v>      -0.01899780       0.03326164       0.02761134 </v>
   <v>       0.01719946       0.08685392      -0.00040647 </v>
   <v>      -0.16543017       0.39708321       0.32972152 </v>
   <v>       0.03045487       0.03952121      -0.04396930 </v>
   <v>       0.00012891       0.03339893       0.00136790 </v>
   <v>       0.00455105      -0.00857345       0.03752241 </v>
   <v>      -0.01854240      -0.04030580      -0.02905151 </v>
   <v>       0.00770573       0.01560858       0.00564073 </v>
   <v>       0.31923103      -0.28133096      -0.30818315 </v>
   <v>      -0.03957973      -0.44941671      -0.03956494 </v>
   <v>      -0.00426759      -0.04844081      -0.01834232 </v>
   <v>       0.00475285       0.00234832       0.00818320 </v>
   <v>      -0.00808146       0.00463286      -0.17988120 </v>
   <v>      -0.00479711      -0.00079326       0.00297823 </v>
   <v>       0.00063794      -0.03173730       0.13646382 </v>
   <v>      -0.00542686      -0.01789698       0.00901031 </v>
   <v>       0.27177645      -0.21120590       0.24795558 </v>
   <v>       0.00979750       0.01493792      -0.01446801 </v>
   <v>      -0.00175219       0.00161860      -0.00511658 </v>
   <v>       0.01666395       0.06469198       0.03411950 </v>
   <v>       0.26379763       0.33022862      -0.30725155 </v>
   <v>      -0.24681517       0.35388252      -0.25374508 </v>
   <v>      -0.00800910       0.01294301       0.00607322 </v>
   <v>       0.02085104      -0.00771167      -0.00081656 </v>
   <v>      -0.31172693      -0.29042366      -0.28038357 </v>
   <v>      -0.01588144       0.04349787      -0.01207981 </v>
   <v>      -0.00457902      -0.02141115      -0.00822444 </v>
   <v>       0.00600728      -0.20992935      -0.00996338 </v>
   <v>      -0.30237345      -0.17734507       0.22469057 </v>
   <v>       0.00312407      -0.03641919      -0.01593987 </v>
   <v>       0.03345672      -0.05745155       0.00078813 </v>
  </varray>
  <varray name="stress" >
   <v>      -9.80599094       0.11197209       0.74357245 </v>
   <v>       0.11197206     -10.28479653      -1.04970185 </v>
   <v>       0.74357251      -1.04970185     -10.57070303 </v>
  </varray>
  <energy>
   <i name="e_fr_energy">   -378.78074212 </i>
   <i name="e_wo_entrp">   -378.78192113 </i>
   <i name="e_0_energy">      0.00353703 </i>
  </energy>
  <time name="totalsc">   21.56   22.79</time>
 </calculation>
 <calculation>
  <scstep>
   <time name="dav">    1.05    1.05</time>
   <time name="total">    1.27    1.42</time>
   <energy>
    <i name="alphaZ">   1529.93499594 </i>
    <i name="ewald"> -18073.94639355 </i>
    <i name="hartreedc">  -5832.07764798 </i>
    <i name="XCdc">   -605.50639500 </i>
    <i name="pawpsdc">  32014.17470583 </i>
    <i name="pawaedc"> -30210.95691565 </i>
    <i name="eentropy">      0.00447424 </i>
    <i name="bandstr">  -2108.34516257 </i>
    <i name="atom">  22907.83598784 </i>
    <i name="e_fr_energy">   -378.88235089 </i>
    <i name="e_wo_entrp">   -378.88682513 </i>
    <i name="e_0_energy">   -378.88384231 </i>
   </energy>
  </scstep>
  <scstep>
   <time name="diag">    0.08    0.08</time>
   <time name="diis">    0.77    0.78</time>
   <time name="orth">    0.01    0.01</time>
   <time name="total">    1.17    1.22</time>
   <energy>
    <i name="e_fr_energy">   -378.85800873 </i>
    <i name="e_wo_entrp">   -378.86270600 </i>
    <i name="e_0_energy">   -378.85957449 </i>
   </energy>
  </scstep>
  <scstep>
   <time name="diag">    0.07    0.07</time>
   <time name="diis">    0.84    0.84</time>
   <time name="orth">    0.01    0.01</time>
   <time name="total">    0.99    1.03</time>
   <energy>
    <i name="e_fr_energy">   -378.83740164 </i>
    <i name="e_wo_entrp">   -378.84203109 </i>
    <i name="e_0_energy">   -378.83894479 </i>
   </energy>
  </scstep>
  <scstep>
   <time name="diag">    0.07    0.07</time>
   <time name="diis">    0.90    0.90</time>
   <time name="orth">    0.01    0.01</time>
   <time name="total">    1.05    1.08</time>
   <energy>
    <i name="e_fr_energy">   -378.83033523 </i>
    <i name="e_wo_entrp">   -378.83455889 </i>
    <i name="e_0_energy">   -378.83174311 </i>
   </energy>
  </scstep>
  <scstep>
   <time name="diag">    0.08    0.09</time>
   <time name="diis">    0.83    0.86</time>
   <time name="orth">    0.01    0.01</time>
   <time name="total">    1.01    1.06</time>
   <energy>
    <i name="e_fr_energy">   -378.82838969 </i>
    <i name="e_wo_entrp">   -378.83284637 </i>
    <i name="e_0_energy">   -378.82987525 </i>
   </energy>
  </scstep>
  <scstep>
   <time name="diag">    0.12    0.12</time>
   <time name="diis">    0.85    0.86</time>
   <time name="orth">    0.01    0.01</time>
   <time name="total">    1.06    1.10</time>
   <energy>
    <i name="e_fr_energy">   -378.82858994 </i>
    <i name="e_wo_entrp">   -378.83301750 </i>
    <i name="e_0_energy">   -378.83006580 </i>
   </energy>
  </scstep>
  <scstep>
   <time name="diag">    0.09    0.09</time>
   <time name="diis">    0.87    0.90</time>
   <time name="orth">    0.01    0.01</time>
   <time name="total">    1.04    1.09</time>
   <energy>
    <i name="e_fr_energy">   -378.82871386 </i>
    <i name="e_wo_entrp">   -378.83317581 </i>
    <i name="e_0_energy">   -378.83020118 </i>
   </energy>
  </scstep>
  <scstep>
   <time name="diag">    0.07    0.08</time>
   <time name="diis">    1.15    1.28</time>
   <time name="orth">    0.01    0.01</time>
   <time name="total">    1.30    1.47</time>
   <energy>
    <i name="e_fr_energy">   -378.82880478 </i>
    <i name="e_wo_entrp">   -378.83319626 </i>
    <i name="e_0_energy">   -378.83026861 </i>
   </energy>
  </scstep>
  <scstep>
   <time name="diag">    0.08    0.08</time>
   <time name="diis">    0.67    0.78</time>
   <time name="orth">    0.01    0.01</time>
   <time name="total">    0.83    0.96</time>
   <energy>
    <i name="e_fr_energy">   -378.82887585 </i>
    <i name="e_wo_entrp">   -378.83332817 </i>
    <i name="e_0_energy">   -378.83035996 </i>
   </energy>
  </scstep>
  <scstep>
   <time name="diag">    0.07    0.08</time>
   <time name="diis">    0.73    0.78</time>
   <time name="orth">    0.01    0.01</time>
   <time name="total">    1.48    1.57</time>
   <energy>
    <i name="e_fr_energy">   -378.82894517 </i>
    <i name="e_wo_entrp">   -378.83336507 </i>
    <i name="e_0_energy">   -378.83041847 </i>
   </energy>
  </scstep>
  <scstep>
   <time name="diag">    0.11    0.11</time>
   <time name="diis">    0.57    0.61</time>
   <time name="orth">    0.01    0.01</time>
   <time name="total">    1.12    1.21</time>
   <energy>
    <i name="e_fr_energy">   -378.82897760 </i>
    <i name="e_wo_entrp">   -378.83340767 </i>
    <i name="e_0_energy">   -378.83045429 </i>
   </energy>
  </scstep>
  <scstep>
   <time name="diag">    0.65    0.66</time>
   <time name="diis">    0.45    0.45</time>
   <time name="orth">    0.01    0.01</time>
   <time name="total">    1.15    1.18</time>
   <energy>
    <i name="alphaZ">   1529.93499594 </i>
    <i name="ewald"> -18073.94639355 </i>
    <i name="hartreedc">  -5812.50981155 </i>
    <i name="XCdc">   -606.28342812 </i>
    <i name="pawpsdc">  32237.45328675 </i>
    <i name="pawaedc"> -30434.00096922 </i>
    <i name="eentropy">      0.00443167 </i>
    <i name="bandstr">  -2127.31708318 </i>
    <i name="atom">  22907.83598784 </i>
    <i name="e_fr_energy">   -378.82898341 </i>
    <i name="e_wo_entrp">   -378.83341509 </i>
    <i name="e_0_energy">   -378.83046064 </i>
   </energy>
  </scstep>
  <structure>
   <crystal>
    <varray name="basis" >
     <v>       6.80284585      -0.02006461      -0.00637021 </v>
     <v>      -0.02897644      10.08342864      -0.00523337 </v>
     <v>      -0.00928264      -0.00543784      10.21043450 </v>
    </varray>
    <i name="volume">    700.38834560 </i>
    <varray name="rec_basis" >
     <v>       0.14699868       0.00042250       0.00013387 </v>
     <v>       0.00029256       0.09917348       0.00005308 </v>
     <v>       0.00009186       0.00005110       0.09793914 </v>
    </varray>
   </crystal>
   <varray name="positions" >
    <v>       0.52147403       0.98869060       0.99887679 </v>
    <v>       0.24459750       0.83873851       0.49625659 </v>
    <v>       0.75810921       0.83923247       0.49655978 </v>
    <v>       0.24287885       0.50907925       0.17791232 </v>
    <v>       0.98196455       0.66809917       0.00265307 </v>
    <v>       0.75400992       0.49898359       0.49285305 </v>
    <v>       0.75158006       0.83418151       0.17294549 </v>
    <v>       0.98222183       0.99128837       0.00188543 </v>
    <v>       0.76685283       0.49783873       0.82594086 </v>
    <v>       0.99651848       0.66783785       0.33906595 </v>
    <v>       0.25596970       0.15749475       0.49544409 </v>
    <v>       0.26179931       0.13998716       0.83187885 </v>
    <v>       0.50141447       0.99031840       0.66046800 </v>
    <v>       0.48137857       0.34091314       0.34865433 </v>
    <v>       0.74899709       0.16395493       0.17242975 </v>
    <v>       0.24899760       0.82873857       0.17022502 </v>
    <v>       0.48183213       0.34261739       0.66858059 </v>
    <v>       0.74987047       0.16587251       0.49689749 </v>
    <v>       0.02028281       0.33339984       0.66546421 </v>
    <v>       0.74344546       0.16394460       0.83105606 </v>
    <v>       0.50778638       0.67090534       0.66065173 </v>
    <v>       0.47558545       0.34309668       0.98543612 </v>
    <v>       0.49826987       0.66452544       0.34259255 </v>
    <v>       0.75815628       0.83811831       0.82987276 </v>
    <v>       0.24353486       0.50809677       0.49314633 </v>
    <v>       0.50365160       0.99363009       0.33946385 </v>
    <v>       0.99940943       0.99191183       0.33591079 </v>
    <v>       0.00534408       0.00378951       0.66250259 </v>
    <v>       0.99088123       0.66550904       0.65987987 </v>
    <v>       0.01899655       0.34268244       0.34569370 </v>
    <v>       0.22112751       0.52902725       0.83078191 </v>
    <v>       0.24203613       0.83588430       0.83148835 </v>
    <v>       0.75000845       0.49127425       0.17762781 </v>
    <v>       0.02460923       0.33599674       0.99052035 </v>
    <v>       0.50988638       0.66349183       0.99589644 </v>
    <v>       0.25652270       0.16086183       0.17248814 </v>
   </varray>
  </structure>
  <varray name="forces" >
   <v>       0.12112832       0.40104559       0.32774533 </v>
   <v>       0.00130223      -0.03455212       0.02879720 </v>
   <v>       0.00427020      -0.01457411       0.01674080 </v>
   <v>      -0.00565607       0.04242234       0.02849569 </v>
   <v>      -0.00684032       0.00682464      -0.00162949 </v>
   <v>      -0.02023300       0.01789923       0.03022905 </v>
   <v>       0.00476430       0.08414290       0.00383231 </v>
   <v>      -0.12070528       0.36366504       0.29885376 </v>
   <v>       0.01339836       0.02805320      -0.03834915 </v>
   <v>      -0.00015842       0.03292642      -0.00055125 </v>
   <v>       0.00256443       0.00507469       0.02516734 </v>
   <v>      -0.02228515      -0.00873646      -0.01815082 </v>
   <v>       0.01200792       0.00456777       0.00692525 </v>
   <v>       0.29499417      -0.27249770      -0.29509950 </v>
   <v>      -0.03991344      -0.37611991      -0.03351000 </v>
   <v>       0.00100241      -0.03754343      -0.01830052 </v>
   <v>       0.00239136       0.00307640       0.01640314 </v>
   <v>      -0.00060862       0.02075680      -0.15387912 </v>
   <v>      -0.00671032      -0.00235539       0.00232159 </v>
   <v>       0.00525160      -0.01312190       0.11585598 </v>
   <v>      -0.01465974      -0.01631843       0.01588409 </v>
   <v>       0.24286462      -0.19965533       0.23554417 </v>
   <v>       0.00640146       0.02076020      -0.01366649 </v>
   <v>      -0.00322695      -0.00209425      -0.00675963 </v>
   <v>       0.01779013       0.04265962       0.02454034 </v>
   <v>       0.22377282       0.29439686      -0.29614128 </v>
   <v>      -0.20560199       0.32067317      -0.24126501 </v>
   <v>      -0.01678252       0.00129043       0.00935465 </v>
   <v>       0.02972221       0.00907428       0.00149795 </v>
   <v>      -0.28646180      -0.27850990      -0.26203345 </v>
   <v>       0.00733570       0.01594868       0.00546452 </v>
   <v>       0.00121108      -0.01099400       0.01146688 </v>
   <v>       0.00667208      -0.18579856      -0.01671993 </v>
   <v>      -0.26973259      -0.17466700       0.20995041 </v>
   <v>      -0.00574891      -0.04443410      -0.01648901 </v>
   <v>       0.02647975      -0.04328565      -0.00252581 </v>
  </varray>
  <varray name="stress" >
   <v>      -1.91157004       0.05717162       0.57417625 </v>
   <v>       0.05717167      -2.22289035      -0.77756799 </v>
   <v>       0.57417624      -0.77756796      -2.60071388 </v>
  </varray>
  <energy>
   <i name="e_fr_energy">   -378.82898341 </i>
   <i name="e_wo_entrp">   -378.83046064 </i>
   <i name="e_0_energy">      0.00443167 </i>
  </energy>
  <time name="totalsc">   15.18   16.22</time>
 </calculation>
 <calculation>
  <scstep>
   <time name="dav">    1.13    1.13</time>
   <time name="total">    2.17    2.26</time>
   <energy>
    <i name="alphaZ">   1543.68352263 </i>
    <i name="ewald"> -18134.31054124 </i>
    <i name="hartreedc">  -5823.94089905 </i>
    <i name="XCdc">   -604.02935406 </i>
    <i name="pawpsdc">  32237.83459787 </i>
    <i name="pawaedc"> -30434.36670724 </i>
    <i name="eentropy">      0.00568615 </i>
    <i name="bandstr">  -2071.71712031 </i>
    <i name="atom">  22907.83598784 </i>
    <i name="e_fr_energy">   -379.00482741 </i>
    <i name="e_wo_entrp">   -379.01051356 </i>
    <i name="e_0_energy">   -379.00672280 </i>
   </energy>
  </scstep>
  <scstep>
   <time name="diag">    0.07    0.07</time>
   <time name="diis">    0.70    0.83</time>
   <time name="orth">    0.01    0.01</time>
   <time name="total">    0.85    1.00</time>
   <energy>
    <i name="e_fr_energy">   -378.93710122 </i>
    <i name="e_wo_entrp">   -378.94364640 </i>
    <i name="e_0_energy">   -378.93928295 </i>
   </energy>
  </scstep>
  <scstep>
   <time name="diag">    0.07    0.07</time>
   <time name="diis">    0.77    0.78</time>
   <time name="orth">    0.01    0.01</time>
   <time name="total">    0.92    0.99</time>
   <energy>
    <i name="e_fr_energy">   -378.88132165 </i>
    <i name="e_wo_entrp">   -378.88730021 </i>
    <i name="e_0_energy">   -378.88331451 </i>
   </energy>
  </scstep>
  <scstep>
   <time name="diag">    0.07    0.07</time>
   <time name="diis">    0.84    0.84</time>
   <time name="orth">    0.01    0.01</time>
   <time name="total">    1.04    1.07</time>
   <energy>
    <i name="e_fr_energy">   -378.86218897 </i>
    <i name="e_wo_entrp">   -378.86776568 </i>
    <i name="e_0_energy">   -378.86404787 </i>
   </energy>
  </scstep>
  <scstep>
   <time name="diag">    0.07    0.07</time>
   <time name="diis">    0.78    0.78</time>
   <time name="orth">    0.01    0.01</time>
   <time name="total">    0.92    0.95</time>
   <energy>
    <i name="e_fr_energy">   -378.85694152 </i>
    <i name="e_wo_entrp">   -378.86280541 </i>
    <i name="e_0_energy">   -378.85889615 </i>
   </energy>
  </scstep>
  <scstep>
   <time name="diag">    0.11    0.11</time>
   <time name="diis">    0.79    0.85</time>
   <time name="orth">    0.01    0.01</time>
   <time name="total">    1.99    2.12</time>
   <energy>
    <i name="e_fr_energy">   -378.85745676 </i>
    <i name="e_wo_entrp">   -378.86326356 </i>
    <i name="e_0_energy">   -378.85939236 </i>
   </energy>
  </scstep>
  <scstep>
   <time name="diag">    0.07    0.07</time>
   <time name="diis">    0.85    0.85</time>
   <time name="orth">    0.01    0.01</time>
   <time name="total">    1.22    1.25</time>
   <energy>
    <i name="e_fr_energy">   -378.85778078 </i>
    <i name="e_wo_entrp">   -378.86364915 </i>
    <i name="e_0_energy">   -378.85973690 </i>
   </energy>
  </scstep>
  <scstep>
   <time name="diag">    0.09    0.09</time>
   <time name="diis">    0.85    0.87</time>
   <time name="orth">    0.01    0.01</time>
   <time name="total">    1.02    1.06</time>
   <energy>
    <i name="e_fr_energy">   -378.85800718 </i>
    <i name="e_wo_entrp">   -378.86376837 </i>
    <i name="e_0_energy">   -378.85992758 </i>
   </energy>
  </scstep>
  <scstep>
   <time name="diag">    0.10    0.10</time>
   <time name="diis">    0.82    0.83</time>
   <time name="orth">    0.01    0.01</time>
   <time name="total">    1.00    1.02</time>
   <energy>
    <i name="e_fr_energy">   -378.85818372 </i>
    <i name="e_wo_entrp">   -378.86403608 </i>
    <i name="e_0_energy">   -378.86013450 </i>
   </energy>
  </scstep>
  <scstep>
   <time name="diag">    0.07    0.07</time>
   <time name="diis">    0.72    0.73</time>
   <time name="orth">    0.03    0.03</time>
   <time name="total">    0.91    0.94</time>
   <energy>
    <i name="e_fr_energy">   -378.85835478 </i>
    <i name="e_wo_entrp">   -378.86415655 </i>
    <i name="e_0_energy">   -378.86028870 </i>
   </energy>
  </scstep>
  <scstep>
   <time name="diag">    0.13    0.13</time>
   <time name="diis">    0.64    0.65</time>
   <time name="orth">    0.01    0.01</time>
   <time name="total">    0.86    0.88</time>
   <energy>
    <i name="e_fr_energy">   -378.85842514 </i>
    <i name="e_wo_entrp">   -378.86424538 </i>
    <i name="e_0_energy">   -378.86036522 </i>
   </energy>
  </scstep>
  <scstep>
   <time name="diag">    0.07    0.07</time>
   <time name="diis">    0.51    0.51</time>
   <time name="orth">    0.01    0.01</time>
   <time name="total">    0.66    0.68</time>
   <energy>
    <i name="e_fr_energy">   -378.85843814 </i>
    <i name="e_wo_entrp">   -378.86426167 </i>
    <i name="e_0_energy">   -378.86037932 </i>
   </energy>
  </scstep>
  <scstep>
   <time name="diag">    0.07    0.07</time>
   <time name="diis">    0.43    0.44</time>
   <time name="orth">    0.01    0.01</time>
   <time name="total">    0.55    0.57</time>
   <energy>
    <i name="alphaZ">   1543.68352263 </i>
    <i name="ewald"> -18134.31054124 </i>
    <i name="hartreedc">  -5791.87583771 </i>
    <i name="XCdc">   -605.30364641 </i>
    <i name="pawpsdc">  32618.83631096 </i>
    <i name="pawaedc"> -30814.83903336 </i>
    <i name="eentropy">      0.00581834 </i>
    <i name="bandstr">  -2102.89102225 </i>
    <i name="atom">  22907.83598784 </i>
    <i name="e_fr_energy">   -378.85844121 </i>
    <i name="e_wo_entrp">   -378.86425954 </i>
    <i name="e_0_energy">   -378.86038065 </i>
   </energy>
  </scstep>
  <structure>
   <crystal>
    <varray name="basis" >
     <v>       6.78341096      -0.01977997      -0.00486810 </v>
     <v>      -0.02856490      10.05321594      -0.00831298 </v>
     <v>      -0.00704044      -0.00855020      10.17898790 </v>
    </varray>
    <i name="volume">    694.15046865 </i>
    <varray name="rec_basis" >
     <v>       0.14741976       0.00041896       0.00010232 </v>
     <v>       0.00029011       0.09947155       0.00008376 </v>
     <v>       0.00007074       0.00008144       0.09824171 </v>
    </varray>
   </crystal>
   <varray name="positions" >
    <v>       0.52205583       0.98974364       0.99970594 </v>
    <v>       0.24458678       0.83863549       0.49634659 </v>
    <v>       0.75813264       0.83920194       0.49660063 </v>
    <v>       0.24285056       0.50921983       0.17802170 </v>
    <v>       0.98191599       0.66811757       0.00264659 </v>
    <v>       0.75394382       0.49906206       0.49291746 </v>
    <v>       0.75164115       0.83438679       0.17294469 </v>
    <v>       0.98164766       0.99222561       0.00265472 </v>
    <v>       0.76695971       0.49793224       0.82583840 </v>
    <v>       0.99651927       0.66791675       0.33906918 </v>
    <v>       0.25598566       0.15747458       0.49553162 </v>
    <v>       0.26173389       0.13989178       0.83181099 </v>
    <v>       0.50144163       0.99035533       0.66048119 </v>
    <v>       0.48249248       0.34025042       0.34793577 </v>
    <v>       0.74885386       0.16289300       0.17233682 </v>
    <v>       0.24898211       0.82862409       0.17018216 </v>
    <v>       0.48184882       0.34262298       0.66859969 </v>
    <v>       0.74984164       0.16588317       0.49647786 </v>
    <v>       0.02026602       0.33339794       0.66547114 </v>
    <v>       0.74344781       0.16386981       0.83137436 </v>
    <v>       0.50776723       0.67086304       0.66067272 </v>
    <v>       0.47653568       0.34259999       0.98601488 </v>
    <v>       0.49830428       0.66456077       0.34255884 </v>
    <v>       0.75815014       0.83812211       0.82986082 </v>
    <v>       0.24359397       0.50824975       0.49322604 </v>
    <v>       0.50457758       0.99441160       0.33874809 </v>
    <v>       0.99854801       0.99274572       0.33531876 </v>
    <v>       0.00531619       0.00382004       0.66251675 </v>
    <v>       0.99095416       0.66549097       0.65987800 </v>
    <v>       0.01790128       0.34199388       0.34503860 </v>
    <v>       0.22107231       0.52912987       0.83075374 </v>
    <v>       0.24201985       0.83583368       0.83146913 </v>
    <v>       0.75002734       0.49077839       0.17760433 </v>
    <v>       0.02354946       0.33557600       0.99104363 </v>
    <v>       0.50989690       0.66340580       0.99585921 </v>
    <v>       0.25663927       0.16072636       0.17248998 </v>
   </varray>
  </structure>
  <varray name="forces" >
   <v>       0.04529198       0.32336834       0.27821331 </v>
   <v>       0.00881827      -0.01929353       0.01293400 </v>
   <v>      -0.00033014      -0.01663498       0.01646582 </v>
   <v>      -0.00170704       0.01326047      -0.00210771 </v>
   <v>       0.00448744       0.00573156      -0.00032629 </v>
   <v>      -0.02248822      -0.00841543       0.03546177 </v>
   <v>      -0.01632641       0.07645612       0.00982325 </v>
   <v>      -0.04226873       0.30472808       0.24409403 </v>
   <v>      -0.01452517       0.00811614      -0.02989632 </v>
   <v>      -0.00054246       0.03285904      -0.00371292 </v>
   <v>      -0.00078853       0.02777626       0.00592757 </v>
   <v>      -0.02881077       0.04463452      -0.00173711 </v>
   <v>       0.02006111      -0.01353394       0.00817268 </v>
   <v>       0.25347085      -0.25701117      -0.27321457 </v>
   <v>      -0.03957991      -0.24367987      -0.02257113 </v>
   <v>       0.00991916      -0.01788138      -0.01874234 </v>
   <v>      -0.00101874       0.00373742       0.02918383 </v>
   <v>       0.01197658       0.04821346      -0.10457655 </v>
   <v>      -0.00983888      -0.00578430       0.00076083 </v>
   <v>       0.01378962       0.01811011       0.07826479 </v>
   <v>      -0.03070810      -0.01441104       0.02635723 </v>
   <v>       0.19482326      -0.18108130       0.21406918 </v>
   <v>       0.00001656       0.03254259      -0.01178816 </v>
   <v>      -0.00577741      -0.00727426      -0.00828319 </v>
   <v>       0.02027900       0.00500995       0.00985284 </v>
   <v>       0.15279255       0.22876442      -0.27179314 </v>
   <v>      -0.13291709       0.26242253      -0.21735932 </v>
   <v>      -0.03196725      -0.01832417       0.01237720 </v>
   <v>       0.04423411       0.03718135       0.00420186 </v>
   <v>      -0.24335116      -0.25921125      -0.23106069 </v>
   <v>       0.04557659      -0.03045010       0.03524814 </v>
   <v>       0.01006333       0.00721322       0.04485652 </v>
   <v>       0.00821655      -0.14229830      -0.02909122 </v>
   <v>      -0.21407834      -0.16962653       0.18527633 </v>
   <v>      -0.02022852      -0.05736263      -0.01753033 </v>
   <v>       0.01343591      -0.01785138      -0.00775019 </v>
  </varray>
  <varray name="stress" >
   <v>      11.64729003      -0.04522079       0.27550078 </v>
   <v>      -0.04522077      11.54512647      -0.30202055 </v>
   <v>       0.27550081      -0.30202047      11.03599784 </v>
  </varray>
  <energy>
   <i name="e_fr_energy">   -378.85844121 </i>
   <i name="e_wo_entrp">   -378.86038065 </i>
   <i name="e_0_energy">      0.00581834 </i>
  </energy>
  <time name="totalsc">   15.69   16.42</time>
 </calculation>
 <calculation>
  <scstep>
   <time name="dav">    0.93    0.93</time>
   <time name="total">    1.13    1.21</time>
   <energy>
    <i name="alphaZ">   1541.85344386 </i>
    <i name="ewald"> -18132.69235557 </i>
    <i name="hartreedc">  -5784.43067826 </i>
    <i name="XCdc">   -605.62822904 </i>
    <i name="pawpsdc">  32619.00540596 </i>
    <i name="pawaedc"> -30814.98468212 </i>
    <i name="eentropy">      0.00762377 </i>
    <i name="bandstr">  -2109.85562290 </i>
    <i name="atom">  22907.83598784 </i>
    <i name="e_fr_energy">   -378.88910646 </i>
    <i name="e_wo_entrp">   -378.89673023 </i>
    <i name="e_0_energy">   -378.89164772 </i>
   </energy>
  </scstep>
  <scstep>
   <time name="diag">    0.08    0.09</time>
   <time name="diis">    0.73    0.74</time>
   <time name="orth">    0.01    0.01</time>
   <time name="total">    0.89    0.91</time>
   <energy>
    <i name="e_fr_energy">   -378.90019953 </i>
    <i name="e_wo_entrp">   -378.90660400 </i>
    <i name="e_0_energy">   -378.90233435 </i>
   </energy>
  </scstep>
  <scstep>
   <time name="diag">    0.07    0.07</time>
   <time name="diis">    0.77    0.78</time>
   <time name="orth">    0.01    0.01</time>
   <time name="total">    0.92    0.94</time>
   <energy>
    <i name="e_fr_energy">   -378.89676009 </i>
    <i name="e_wo_entrp">   -378.90397859 </i>
    <i name="e_0_energy">   -378.89916626 </i>
   </energy>
  </scstep>
  <scstep>
   <time name="diag">    0.07    0.07</time>
   <time name="diis">    0.79    0.79</time>
   <time name="orth">    0.01    0.01</time>
   <time name="total">    0.94    0.96</time>
   <energy>
    <i name="e_fr_energy">   -378.89609179 </i>
    <i name="e_wo_entrp">   -378.90323193 </i>
    <i name="e_0_energy">   -378.89847184 </i>
   </energy>
  </scstep>
  <scstep>
   <time name="diag">    0.07    0.07</time>
   <time name="diis">    0.87    0.87</time>
   <time name="orth">    0.01    0.01</time>
   <time name="total">    1.02    1.04</time>
   <energy>
    <i name="e_fr_energy">   -378.89595337 </i>
    <i name="e_wo_entrp">   -378.90303176 </i>
    <i name="e_0_energy">   -378.89831283 </i>
   </energy>
  </scstep>
  <scstep>
   <time name="diag">    0.07    0.07</time>
   <time name="diis">    0.79    0.80</time>
   <time name="orth">    0.01    0.01</time>
   <time name="total">    0.94    0.96</time>
   <energy>
    <i name="e_fr_energy">   -378.89591764 </i>
    <i name="e_wo_entrp">   -378.90294308 </i>
    <i name="e_0_energy">   -378.89825945 </i>
   </energy>
  </scstep>
  <scstep>
   <time name="diag">    0.08    0.08</time>
   <time name="diis">    0.79    0.80</time>
   <time name="orth">    0.01    0.01</time>
   <time name="total">    0.95    0.97</time>
   <energy>
    <i name="e_fr_energy">   -378.89588590 </i>
    <i name="e_wo_entrp">   -378.90298939 </i>
    <i name="e_0_energy">   -378.89825373 </i>
   </energy>
  </scstep>
  <scstep>
   <time name="diag">    0.07    0.07</time>
   <time name="diis">    0.54    0.54</time>
   <time name="orth">    0.01    0.01</time>
   <time name="total">    0.66    0.68</time>
   <energy>
    <i name="alphaZ">   1541.85344386 </i>
    <i name="ewald"> -18132.69235557 </i>
    <i name="hartreedc">  -5788.37795734 </i>
    <i name="XCdc">   -605.46403704 </i>
    <i name="pawpsdc">  32559.32365750 </i>
    <i name="pawaedc"> -30755.21847925 </i>
    <i name="eentropy">      0.00710166 </i>
    <i name="bandstr">  -2106.16324655 </i>
    <i name="atom">  22907.83598784 </i>
    <i name="e_fr_energy">   -378.89588489 </i>
    <i name="e_wo_entrp">   -378.90298655 </i>
    <i name="e_0_energy">   -378.89825211 </i>
   </energy>
  </scstep>
  <structure>
   <crystal>
    <varray name="basis" >
     <v>       6.78670880      -0.01973402      -0.00391757 </v>
     <v>      -0.02850122      10.05731631      -0.01017023 </v>
     <v>      -0.00562092      -0.01042772      10.18196591 </v>
    </varray>
    <i name="volume">    694.97437967 </i>
    <varray name="rec_basis" >
     <v>       0.14734809       0.00041765       0.00008177 </v>
     <v>       0.00028918       0.09943103       0.00010199 </v>
     <v>       0.00005698       0.00009948       0.09821299 </v>
    </varray>
   </crystal>
   <varray name="positions" >
    <v>       0.52240624       0.99062942       0.00042885 </v>
    <v>       0.24459829       0.83856450       0.49640348 </v>
    <v>       0.75814257       0.83916714       0.49663963 </v>
    <v>       0.24283459       0.50930031       0.17806873 </v>
    <v>       0.98190239       0.66813316       0.00264326 </v>
    <v>       0.75387183       0.49908701       0.49299081 </v>
    <v>       0.75163878       0.83457622       0.17295664 </v>
    <v>       0.98131009       0.99303501       0.00330796 </v>
    <v>       0.76698108       0.49798479       0.82575471 </v>
    <v>       0.99651879       0.66799394       0.33906607 </v>
    <v>       0.25599158       0.15750045       0.49557873 </v>
    <v>       0.26165065       0.13990466       0.83177805 </v>
    <v>       0.50149135       0.99035511       0.66049736 </v>
    <v>       0.48346951       0.33962643       0.34726952 </v>
    <v>       0.74871369       0.16210402       0.17226615 </v>
    <v>       0.24899350       0.82854964       0.17013937 </v>
    <v>       0.48185454       0.34263026       0.66864468 </v>
    <v>       0.74985112       0.16594864       0.49615739 </v>
    <v>       0.02023999       0.33338975       0.66547522 </v>
    <v>       0.74347478       0.16385888       0.83161619 </v>
    <v>       0.50770115       0.67082561       0.66071500 </v>
    <v>       0.47732978       0.34214748       0.98654374 </v>
    <v>       0.49832007       0.66461780       0.34252891 </v>
    <v>       0.75813652       0.83811464       0.82984508 </v>
    <v>       0.24365868       0.50832555       0.49327450 </v>
    <v>       0.50528388       0.99505456       0.33808550 </v>
    <v>       0.99791024       0.99345391       0.33477996 </v>
    <v>       0.00524375       0.00381069       0.66253854 </v>
    <v>       0.99107006       0.66552979       0.65988246 </v>
    <v>       0.01694845       0.34135365       0.34445330 </v>
    <v>       0.22113228       0.52913825       0.83078487 </v>
    <v>       0.24203137       0.83581989       0.83151625 </v>
    <v>       0.75005047       0.49037413       0.17755726 </v>
    <v>       0.02266823       0.33517087       0.99151126 </v>
    <v>       0.50986357       0.66329439       0.99582042 </v>
    <v>       0.25671713       0.16064244       0.17248114 </v>
   </varray>
  </structure>
  <varray name="forces" >
   <v>       0.01909184       0.24793584       0.22147343 </v>
   <v>       0.00629790       0.01183400      -0.01285680 </v>
   <v>       0.00304411      -0.00296058       0.00183880 </v>
   <v>      -0.00662055      -0.00262562       0.00801736 </v>
   <v>       0.00267047      -0.00285314      -0.01114314 </v>
   <v>      -0.01763835      -0.02268154       0.01198626 </v>
   <v>      -0.01728308       0.07742939       0.01062608 </v>
   <v>      -0.01807737       0.23440065       0.19074801 </v>
   <v>      -0.00187465       0.00196400      -0.02502549 </v>
   <v>       0.00381048       0.02597258       0.00672098 </v>
   <v>       0.00058364       0.02840913      -0.02101520 </v>
   <v>      -0.02522678       0.05071700       0.00126698 </v>
   <v>       0.01406260      -0.03685364       0.00212988 </v>
   <v>       0.19370583      -0.21633290      -0.22353448 </v>
   <v>      -0.03737824      -0.15773837      -0.00799841 </v>
   <v>       0.00523649      -0.00371922      -0.00756645 </v>
   <v>      -0.01503200       0.01216112       0.03140737 </v>
   <v>       0.01672645       0.05003503      -0.07226502 </v>
   <v>       0.00072199       0.00452237      -0.00105803 </v>
   <v>       0.00955276       0.01789428       0.04860442 </v>
   <v>      -0.03278973      -0.00881852       0.02390828 </v>
   <v>       0.14196289      -0.15387714       0.18033281 </v>
   <v>      -0.00889583       0.02747034       0.00796705 </v>
   <v>       0.00059058       0.01363097       0.00617945 </v>
   <v>       0.01553555      -0.02761489      -0.03598949 </v>
   <v>       0.09981537       0.16712327      -0.22273015 </v>
   <v>      -0.08217840       0.18773999      -0.17392501 </v>
   <v>      -0.02702030      -0.02716495       0.00489144 </v>
   <v>       0.04786661       0.03873229       0.00456178 </v>
   <v>      -0.18125910      -0.20588015      -0.17842709 </v>
   <v>       0.03300663      -0.04956902       0.05486624 </v>
   <v>       0.00685469       0.03447630       0.06678221 </v>
   <v>       0.01483110      -0.09467170      -0.01481996 </v>
   <v>      -0.15559091      -0.14539886       0.14819315 </v>
   <v>      -0.01448221      -0.06615879      -0.02566979 </v>
   <v>       0.00537952      -0.00752952       0.00152254 </v>
  </varray>
  <varray name="stress" >
   <v>       9.36154524      -0.07007045       0.09607487 </v>
   <v>      -0.07007052       9.24257496      -0.02055103 </v>
   <v>       0.09607486      -0.02055103       8.82212409 </v>
  </varray>
  <energy>
   <i name="e_fr_energy">   -378.89588489 </i>
   <i name="e_wo_entrp">   -378.89825211 </i>
   <i name="e_0_energy">      0.00710166 </i>
  </energy>
  <time name="totalsc">    9.12    9.42</time>
 </calculation>
 <calculation>
  <scstep>
   <time name="dav">    0.96    0.96</time>
   <time name="total">    1.13    1.22</time>
   <energy>
    <i name="alphaZ">   1536.38169245 </i>
    <i name="ewald"> -18125.20535302 </i>
    <i name="hartreedc">  -5768.25864016 </i>
    <i name="XCdc">   -606.42999439 </i>
    <i name="pawpsdc">  32559.35481616 </i>
    <i name="pawaedc"> -30755.30287485 </i>
    <i name="eentropy">      0.01168232 </i>
    <i name="bandstr">  -2127.27156046 </i>
    <i name="atom">  22907.83598784 </i>
    <i name="e_fr_energy">   -378.88424411 </i>
    <i name="e_wo_entrp">   -378.89592643 </i>
    <i name="e_0_energy">   -378.88813822 </i>
   </energy>
  </scstep>
  <scstep>
   <time name="diag">    0.07    0.07</time>
   <time name="diis">    0.79    0.79</time>
   <time name="orth">    0.01    0.01</time>
   <time name="total">    0.94    0.96</time>
   <energy>
    <i name="e_fr_energy">   -378.98188774 </i>
    <i name="e_wo_entrp">   -378.99048182 </i>
    <i name="e_0_energy">   -378.98475243 </i>
   </energy>
  </scstep>
  <scstep>
   <time name="diag">    0.08    0.08</time>
   <time name="diis">    0.85    0.86</time>
   <time name="orth">    0.01    0.01</time>
   <time name="total">    1.00    1.03</time>
   <energy>
    <i name="e_fr_energy">   -378.95860479 </i>
    <i name="e_wo_entrp">   -378.96917484 </i>
    <i name="e_0_energy">   -378.96212814 </i>
   </energy>
  </scstep>
  <scstep>
   <time name="diag">    0.07    0.08</time>
   <time name="diis">    0.80    0.80</time>
   <time name="orth">    0.01    0.01</time>
   <time name="total">    0.95    0.97</time>
   <energy>
    <i name="e_fr_energy">   -378.95175563 </i>
    <i name="e_wo_entrp">   -378.96214529 </i>
    <i name="e_0_energy">   -378.95521885 </i>
   </energy>
  </scstep>
  <scstep>
   <time name="diag">    0.07    0.07</time>
   <time name="diis">    0.77    0.78</time>
   <time name="orth">    0.01    0.01</time>
   <time name="total">    0.96    0.98</time>
   <energy>
    <i name="e_fr_energy">   -378.95065208 </i>
    <i name="e_wo_entrp">   -378.96074236 </i>
    <i name="e_0_energy">   -378.95401551 </i>
   </energy>
  </scstep>
  <scstep>
   <time name="diag">    0.12    0.12</time>
   <time name="diis">    0.79    0.80</time>
   <time name="orth">    0.01    0.01</time>
   <time name="total">    1.00    1.02</time>
   <energy>
    <i name="e_fr_energy">   -378.95027488 </i>
    <i name="e_wo_entrp">   -378.96030423 </i>
    <i name="e_0_energy">   -378.95361800 </i>
   </energy>
  </scstep>
  <scstep>
   <time name="diag">    0.07    0.07</time>
   <time name="diis">    0.93    0.93</time>
   <time name="orth">    0.01    0.01</time>
   <time name="total">    1.07    1.09</time>
   <energy>
    <i name="e_fr_energy">   -378.95011578 </i>
    <i name="e_wo_entrp">   -378.96035339 </i>
    <i name="e_0_energy">   -378.95352832 </i>
   </energy>
  </scstep>
  <scstep>
   <time name="diag">    0.07    0.07</time>
   <time name="diis">    0.81    0.81</time>
   <time name="orth">    0.01    0.01</time>
   <time name="total">    0.96    0.98</time>
   <energy>
    <i name="e_fr_energy">   -378.95014387 </i>
    <i name="e_wo_entrp">   -378.96035876 </i>
    <i name="e_0_energy">   -378.95354883 </i>
   </energy>
  </scstep>
  <scstep>
   <time name="diag">    0.08    0.08</time>
   <time name="diis">    0.73    0.80</time>
   <time name="orth">    0.01    0.01</time>
   <time name="total">    0.90    1.01</time>
   <energy>
    <i name="e_fr_energy">   -378.95016107 </i>
    <i name="e_wo_entrp">   -378.96032851 </i>
    <i name="e_0_energy">   -378.95355022 </i>
   </energy>
  </scstep>
  <scstep>
   <time name="diag">    0.12    0.12</time>
   <time name="diis">    0.65    0.68</time>
   <time name="orth">    0.01    0.01</time>
   <time name="total">    0.85    0.91</time>
   <energy>
    <i name="e_fr_energy">   -378.95016190 </i>
    <i name="e_wo_entrp">   -378.96035783 </i>
    <i name="e_0_energy">   -378.95356054 </i>
   </energy>
  </scstep>
  <scstep>
   <time name="diag">    0.10    0.10</time>
   <time name="diis">    0.57    0.57</time>
   <time name="orth">    0.01    0.01</time>
   <time name="total">    0.73    0.76</time>
   <energy>
    <i name="alphaZ">   1536.38169245 </i>
    <i name="ewald"> -18125.20535302 </i>
    <i name="hartreedc">  -5779.70140519 </i>
    <i name="XCdc">   -605.95637975 </i>
    <i name="pawpsdc">  32388.57300728 </i>
    <i name="pawaedc"> -30584.87653876 </i>
    <i name="eentropy">      0.01018624 </i>
    <i name="bandstr">  -2116.01135617 </i>
    <i name="atom">  22907.83598784 </i>
    <i name="e_fr_energy">   -378.95015907 </i>
    <i name="e_wo_entrp">   -378.96034531 </i>
    <i name="e_0_energy">   -378.95355448 </i>
   </energy>
  </scstep>
  <structure>
   <crystal>
    <varray name="basis" >
     <v>       6.79660230      -0.01959616      -0.00106598 </v>
     <v>      -0.02831020      10.06961744      -0.01574200 </v>
     <v>      -0.00136236      -0.01606030      10.19089992 </v>
    </varray>
    <i name="volume">    697.44949836 </i>
    <varray name="rec_basis" >
     <v>       0.14713354       0.00041369       0.00002032 </v>
     <v>       0.00028636       0.09930969       0.00015654 </v>
     <v>       0.00001583       0.00015345       0.09812700 </v>
    </varray>
   </crystal>
   <varray name="positions" >
    <v>       0.52345645       0.99328605       0.00259734 </v>
    <v>       0.24463277       0.83835166       0.49657409 </v>
    <v>       0.75817234       0.83906282       0.49675658 </v>
    <v>       0.24278667       0.50954170       0.17820982 </v>
    <v>       0.98186158       0.66817991       0.00263328 </v>
    <v>       0.75365593       0.49916189       0.49321081 </v>
    <v>       0.75163166       0.83514426       0.17299258 </v>
    <v>       0.98029746       0.99546258       0.00526767 </v>
    <v>       0.76704520       0.49814232       0.82550374 </v>
    <v>       0.99651733       0.66822543       0.33905678 </v>
    <v>       0.25600927       0.15757806       0.49572003 </v>
    <v>       0.26140109       0.13994324       0.83167931 </v>
    <v>       0.50164043       0.99035446       0.66054583 </v>
    <v>       0.48639962       0.33775485       0.34527076 </v>
    <v>       0.74829345       0.15973800       0.17205379 </v>
    <v>       0.24902769       0.82832635       0.17001098 </v>
    <v>       0.48187167       0.34265210       0.66877962 </v>
    <v>       0.74987974       0.16614480       0.49519631 </v>
    <v>       0.02016196       0.33336520       0.66548746 </v>
    <v>       0.74355551       0.16382626       0.83234146 </v>
    <v>       0.50750296       0.67071338       0.66084179 </v>
    <v>       0.47971061       0.34079081       0.98812938 </v>
    <v>       0.49836746       0.66478878       0.34243918 </v>
    <v>       0.75809569       0.83809222       0.82979789 </v>
    <v>       0.24385267       0.50855288       0.49341987 </v>
    <v>       0.50740216       0.99698229       0.33609849 </v>
    <v>       0.99599817       0.99557732       0.33316461 </v>
    <v>       0.00502652       0.00378267       0.66260391 </v>
    <v>       0.99141757       0.66564623       0.65989580 </v>
    <v>       0.01409172       0.33943343       0.34269786 </v>
    <v>       0.22131209       0.52916339       0.83087820 </v>
    <v>       0.24206586       0.83577857       0.83165756 </v>
    <v>       0.75011988       0.48916180       0.17741585 </v>
    <v>       0.02002556       0.33395624       0.99291379 </v>
    <v>       0.50976365       0.66296026       0.99570402 </v>
    <v>       0.25695061       0.16039081       0.17245455 </v>
   </varray>
  </structure>
  <varray name="forces" >
   <v>      -0.06957129       0.02089464       0.04967603 </v>
   <v>       0.00015294       0.09194027      -0.07599732 </v>
   <v>       0.01227073       0.03410267      -0.03606297 </v>
   <v>      -0.02176249      -0.04559249       0.03508886 </v>
   <v>       0.00116047      -0.03129803      -0.04643500 </v>
   <v>      -0.00405929      -0.06343401      -0.05042821 </v>
   <v>      -0.01891011       0.07755741       0.01072273 </v>
   <v>       0.06476545       0.02554976       0.02975938 </v>
   <v>       0.03384881      -0.01341987      -0.01420148 </v>
   <v>       0.01940589       0.00519344       0.03938733 </v>
   <v>       0.00460980       0.02468731      -0.09498618 </v>
   <v>      -0.01530398       0.06624335       0.00785727 </v>
   <v>      -0.00122554      -0.10559752      -0.01474194 </v>
   <v>       0.02715106      -0.10225506      -0.08665987 </v>
   <v>      -0.02590241       0.12026883       0.03897866 </v>
   <v>      -0.01018754       0.04580201       0.02320005 </v>
   <v>      -0.05405096       0.03963710       0.03877607 </v>
   <v>       0.03036711       0.05248364       0.02784788 </v>
   <v>       0.03090397       0.03693512      -0.00391291 </v>
   <v>       0.00037289       0.01388266      -0.04164510 </v>
   <v>      -0.04167890       0.00753966       0.01664693 </v>
   <v>      -0.00498189      -0.07799991       0.08408784 </v>
   <v>      -0.03573748       0.01030733       0.07010765 </v>
   <v>       0.01836749       0.07088465       0.04463476 </v>
   <v>       0.00217904      -0.10273625      -0.15509334 </v>
   <v>      -0.06145016      -0.01850848      -0.08069615 </v>
   <v>       0.07454409      -0.03023373      -0.05023526 </v>
   <v>      -0.01472010      -0.05332330      -0.01761182 </v>
   <v>       0.05983068       0.04115134       0.00498282 </v>
   <v>      -0.01504501      -0.05978615      -0.03719866 </v>
   <v>      -0.00326269      -0.10249121       0.10800364 </v>
   <v>      -0.00249537       0.11341532       0.12862941 </v>
   <v>       0.03334919       0.05204468       0.02677283 </v>
   <v>       0.00868345      -0.07424648       0.04092395 </v>
   <v>       0.00167287      -0.09381601      -0.04952987 </v>
   <v>      -0.02329073       0.02421731       0.02935198 </v>
  </varray>
  <varray name="stress" >
   <v>       2.78691346      -0.11377256      -0.43334215 </v>
   <v>      -0.11377257       2.55233582       0.78697106 </v>
   <v>      -0.43334215       0.78697110       2.20893038 </v>
  </varray>
  <energy>
   <i name="e_fr_energy">   -378.95015907 </i>
   <i name="e_wo_entrp">   -378.95355448 </i>
   <i name="e_0_energy">      0.01018624 </i>
  </energy>
  <time name="totalsc">   12.06   12.69</time>
 </calculation>
 <calculation>
  <scstep>
   <time name="dav">    0.90    0.91</time>
   <time name="total">    1.11    1.20</time>
   <energy>
    <i name="alphaZ">   1535.69703775 </i>
    <i name="ewald"> -18123.98571519 </i>
    <i name="hartreedc">  -5777.39801559 </i>
    <i name="XCdc">   -606.07753714 </i>
    <i name="pawpsdc">  32387.82480132 </i>
    <i name="pawaedc"> -30584.16734600 </i>
    <i name="eentropy">      0.01068601 </i>
    <i name="bandstr">  -2118.68982960 </i>
    <i name="atom">  22907.83598784 </i>
    <i name="e_fr_energy">   -378.94993061 </i>
    <i name="e_wo_entrp">   -378.96061662 </i>
    <i name="e_0_energy">   -378.95349261 </i>
   </energy>
  </scstep>
  <scstep>
   <time name="diag">    0.09    0.09</time>
   <time name="diis">    0.64    0.76</time>
   <time name="orth">    0.01    0.01</time>
   <time name="total">    0.82    0.97</time>
   <energy>
    <i name="e_fr_energy">   -378.95146181 </i>
    <i name="e_wo_entrp">   -378.96175731 </i>
    <i name="e_0_energy">   -378.95489364 </i>
   </energy>
  </scstep>
  <scstep>
   <time name="diag">    0.07    0.07</time>
   <time name="diis">    0.85    0.85</time>
   <time name="orth">    0.01    0.01</time>
   <time name="total">    1.00    1.02</time>
   <energy>
    <i name="e_fr_energy">   -378.95102774 </i>
    <i name="e_wo_entrp">   -378.96157046 </i>
    <i name="e_0_energy">   -378.95454198 </i>
   </energy>
  </scstep>
  <scstep>
   <time name="diag">    0.07    0.07</time>
   <time name="diis">    0.76    0.76</time>
   <time name="orth">    0.01    0.01</time>
   <time name="total">    0.93    0.95</time>
   <energy>
    <i name="e_fr_energy">   -378.95093427 </i>
    <i name="e_wo_entrp">   -378.96145720 </i>
    <i name="e_0_energy">   -378.95444191 </i>
   </energy>
  </scstep>
  <scstep>
   <time name="diag">    0.13    0.14</time>
   <time name="diis">    0.74    0.75</time>
   <time name="orth">    0.01    0.01</time>
   <time name="total">    0.96    0.98</time>
   <energy>
    <i name="e_fr_energy">   -378.95091828 </i>
    <i name="e_wo_entrp">   -378.96141031 </i>
    <i name="e_0_energy">   -378.95441562 </i>
   </energy>
  </scstep>
  <scstep>
   <time name="diag">    0.07    0.07</time>
   <time name="diis">    0.69    0.69</time>
   <time name="orth">    0.01    0.01</time>
   <time name="total">    0.84    0.85</time>
   <energy>
    <i name="e_fr_energy">   -378.95091244 </i>
    <i name="e_wo_entrp">   -378.96139600 </i>
    <i name="e_0_energy">   -378.95440696 </i>
   </energy>
  </scstep>
  <scstep>
   <time name="diag">    0.07    0.07</time>
   <time name="diis">    0.38    0.38</time>
   <time name="orth">    0.01    0.01</time>
   <time name="total">    0.49    0.51</time>
   <energy>
    <i name="alphaZ">   1535.69703775 </i>
    <i name="ewald"> -18123.98571519 </i>
    <i name="hartreedc">  -5778.86488523 </i>
    <i name="XCdc">   -606.01703704 </i>
    <i name="pawpsdc">  32367.01556094 </i>
    <i name="pawaedc"> -30563.40114219 </i>
    <i name="eentropy">      0.01050734 </i>
    <i name="bandstr">  -2117.24122172 </i>
    <i name="atom">  22907.83598784 </i>
    <i name="e_fr_energy">   -378.95090749 </i>
    <i name="e_wo_entrp">   -378.96141484 </i>
    <i name="e_0_energy">   -378.95440994 </i>
   </energy>
  </scstep>
  <structure>
   <crystal>
[...]
       <r>    6.6546    1.0000 </r>
       <r>    6.6929    1.0000 </r>
       <r>    6.7104    1.0000 </r>
       <r>    6.7628    1.0000 </r>
       <r>    6.7760    1.0000 </r>
       <r>    6.8243    1.0000 </r>
       <r>    6.8836    1.0000 </r>
       <r>    6.9030    1.0000 </r>
       <r>    6.9500    1.0000 </r>
       <r>    7.0093    1.0003 </r>
       <r>    7.0829    1.0026 </r>
       <r>    7.0954    1.0037 </r>
       <r>    7.1136    1.0057 </r>
       <r>    7.1412    1.0104 </r>
       <r>    7.1693    1.0173 </r>
       <r>    7.1823    1.0211 </r>
       <r>    7.2310    1.0343 </r>
       <r>    7.2424    1.0354 </r>
       <r>    7.2828    1.0220 </r>
       <r>    7.3067    0.9933 </r>
       <r>    7.3575    0.8558 </r>
       <r>    7.3748    0.7832 </r>
       <r>    7.4117    0.5949 </r>
       <r>    7.4497    0.3825 </r>
       <r>    7.4770    0.2423 </r>
       <r>    7.5030    0.1321 </r>
       <r>    7.5342    0.0389 </r>
       <r>    7.5945   -0.0329 </r>
       <r>    7.6189   -0.0352 </r>
       <r>    7.6628   -0.0249 </r>
       <r>    7.6805   -0.0195 </r>
       <r>    7.7071   -0.0123 </r>
       <r>    7.7740   -0.0027 </r>
       <r>    7.8190   -0.0007 </r>
       <r>    7.8681   -0.0001 </r>
       <r>    7.9017   -0.0000 </r>
       <r>    7.9319   -0.0000 </r>
       <r>    8.0025   -0.0000 </r>
       <r>    8.0433   -0.0000 </r>
       <r>    8.1993   -0.0000 </r>
       <r>    8.2447   -0.0000 </r>
       <r>    8.4727   -0.0000 </r>
       <r>    8.5961   -0.0000 </r>
       <r>    8.6732   -0.0000 </r>
       <r>    9.3626   -0.0000 </r>
       <r>    9.4245   -0.0000 </r>
       <r>    9.4729   -0.0000 </r>
       <r>    9.5337   -0.0000 </r>
       <r>    9.5639   -0.0000 </r>
      </set>
     </set>
    </set>
   </array>
  </eigenvalues>
  <separator name="orbital magnetization" >
   <v name="MAGDIPOLOUT">      0.00000000      0.00000000      0.00000000</v>
  </separator>
  <dos>
   <i name="efermi">      7.42863956 </i>
   <total>
    <array>
     <dimension dim="1">gridpoints</dimension>
     <dimension dim="2">spin</dimension>
     <field>energy</field>
     <field>total</field>
     <field>integrated</field>
     <set>
      <set comment="spin 1">
       <r>   -49.6073     0.0000     0.0000 </r>
       <r>   -49.4007     0.0000     0.0000 </r>
       <r>   -49.1941     0.0000     0.0000 </r>
       <r>   -48.9875     0.0000     0.0000 </r>
       <r>   -48.7808     0.0000     0.0000 </r>
       <r>   -48.5742     0.0000     0.0000 </r>
       <r>   -48.3676     0.0000     0.0000 </r>
       <r>   -48.1609    -0.0000    -0.0000 </r>
       <r>   -47.9543    -0.0000    -0.0000 </r>
       <r>   -47.7477    -0.0000    -0.0000 </r>
       <r>   -47.5410    -0.0000    -0.0000 </r>
       <r>   -47.3344    -0.0000    -0.0000 </r>
       <r>   -47.1278    -0.0517    -0.0107 </r>
       <r>   -46.9212    -1.7308    -0.3683 </r>
       <r>   -46.7145    36.2446     7.1209 </r>
       <r>   -46.5079    54.3080    18.3426 </r>
       <r>   -46.3013    -1.5255    18.0273 </r>
       <r>   -46.0946    -0.1323    18.0000 </r>
       <r>   -45.8880    -0.0001    18.0000 </r>
       <r>   -45.6814    -0.0000    18.0000 </r>
       <r>   -45.4747     0.0000    18.0000 </r>
       <r>   -45.2681     0.0000    18.0000 </r>
       <r>   -45.0615     0.0000    18.0000 </r>
       <r>   -44.8549     0.0000    18.0000 </r>
       <r>   -44.6482     0.0000    18.0000 </r>
       <r>   -44.4416     0.0000    18.0000 </r>
       <r>   -44.2350     0.0000    18.0000 </r>
       <r>   -44.0283     0.0000    18.0000 </r>
       <r>   -43.8217     0.0000    18.0000 </r>
       <r>   -43.6151     0.0000    18.0000 </r>
       <r>   -43.4084     0.0000    18.0000 </r>
       <r>   -43.2018     0.0000    18.0000 </r>
       <r>   -42.9952     0.0000    18.0000 </r>
       <r>   -42.7886     0.0000    18.0000 </r>
       <r>   -42.5819     0.0000    18.0000 </r>
       <r>   -42.3753     0.0000    18.0000 </r>
       <r>   -42.1687     0.0000    18.0000 </r>
       <r>   -41.9620    -0.0000    18.0000 </r>
       <r>   -41.7554    -0.0000    18.0000 </r>
       <r>   -41.5488    -0.0000    18.0000 </r>
       <r>   -41.3421    -0.0000    18.0000 </r>
       <r>   -41.1355    -0.0008    17.9998 </r>
       <r>   -40.9289    -0.3485    17.9278 </r>
       <r>   -40.7223     3.2985    18.6094 </r>
       <r>   -40.5156    38.9824    26.6643 </r>
       <r>   -40.3090     7.0329    28.1175 </r>
       <r>   -40.1024    -0.5665    28.0005 </r>
       <r>   -39.8957    -0.0022    28.0000 </r>
       <r>   -39.6891    -0.0000    28.0000 </r>
       <r>   -39.4825    -0.0000    28.0000 </r>
       <r>   -39.2759     0.0000    28.0000 </r>
       <r>   -39.0692     0.0000    28.0000 </r>
       <r>   -38.8626     0.0000    28.0000 </r>
       <r>   -38.6560     0.0000    28.0000 </r>
       <r>   -38.4493     0.0000    28.0000 </r>
       <r>   -38.2427     0.0000    28.0000 </r>
       <r>   -38.0361     0.0000    28.0000 </r>
       <r>   -37.8294     0.0000    28.0000 </r>
       <r>   -37.6228     0.0000    28.0000 </r>
       <r>   -37.4162     0.0000    28.0000 </r>
       <r>   -37.2096     0.0000    28.0000 </r>
       <r>   -37.0029     0.0000    28.0000 </r>
       <r>   -36.7963     0.0000    28.0000 </r>
       <r>   -36.5897     0.0000    28.0000 </r>
       <r>   -36.3830     0.0000    28.0000 </r>
       <r>   -36.1764     0.0000    28.0000 </r>
       <r>   -35.9698     0.0000    28.0000 </r>
       <r>   -35.7631     0.0000    28.0000 </r>
       <r>   -35.5565     0.0000    28.0000 </r>
       <r>   -35.3499     0.0000    28.0000 </r>
       <r>   -35.1433     0.0000    28.0000 </r>
       <r>   -34.9366     0.0000    28.0000 </r>
       <r>   -34.7300     0.0000    28.0000 </r>
       <r>   -34.5234     0.0000    28.0000 </r>
       <r>   -34.3167     0.0000    28.0000 </r>
       <r>   -34.1101     0.0000    28.0000 </r>
       <r>   -33.9035     0.0000    28.0000 </r>
       <r>   -33.6968     0.0000    28.0000 </r>
       <r>   -33.4902     0.0000    28.0000 </r>
       <r>   -33.2836     0.0000    28.0000 </r>
       <r>   -33.0770     0.0000    28.0000 </r>
       <r>   -32.8703     0.0000    28.0000 </r>
       <r>   -32.6637     0.0000    28.0000 </r>
       <r>   -32.4571     0.0000    28.0000 </r>
       <r>   -32.2504     0.0000    28.0000 </r>
       <r>   -32.0438     0.0000    28.0000 </r>
       <r>   -31.8372     0.0000    28.0000 </r>
       <r>   -31.6305     0.0000    28.0000 </r>
       <r>   -31.4239     0.0000    28.0000 </r>
       <r>   -31.2173     0.0000    28.0000 </r>
       <r>   -31.0107     0.0000    28.0000 </r>
       <r>   -30.8040     0.0000    28.0000 </r>
       <r>   -30.5974     0.0000    28.0000 </r>
       <r>   -30.3908     0.0000    28.0000 </r>
       <r>   -30.1841     0.0000    28.0000 </r>
       <r>   -29.9775     0.0000    28.0000 </r>
       <r>   -29.7709     0.0000    28.0000 </r>
       <r>   -29.5642     0.0000    28.0000 </r>
       <r>   -29.3576     0.0000    28.0000 </r>
       <r>   -29.1510     0.0000    28.0000 </r>
       <r>   -28.9444     0.0000    28.0000 </r>
       <r>   -28.7377     0.0000    28.0000 </r>
       <r>   -28.5311     0.0000    28.0000 </r>
       <r>   -28.3245     0.0000    28.0000 </r>
       <r>   -28.1178     0.0000    28.0000 </r>
       <r>   -27.9112     0.0000    28.0000 </r>
       <r>   -27.7046     0.0000    28.0000 </r>
       <r>   -27.4979     0.0000    28.0000 </r>
       <r>   -27.2913     0.0000    28.0000 </r>
       <r>   -27.0847     0.0000    28.0000 </r>
       <r>   -26.8781     0.0000    28.0000 </r>
       <r>   -26.6714     0.0000    28.0000 </r>
       <r>   -26.4648     0.0000    28.0000 </r>
       <r>   -26.2582     0.0000    28.0000 </r>
       <r>   -26.0515     0.0000    28.0000 </r>
       <r>   -25.8449     0.0000    28.0000 </r>
       <r>   -25.6383     0.0000    28.0000 </r>
       <r>   -25.4316     0.0000    28.0000 </r>
       <r>   -25.2250     0.0000    28.0000 </r>
       <r>   -25.0184     0.0000    28.0000 </r>
       <r>   -24.8118     0.0000    28.0000 </r>
       <r>   -24.6051    -0.0000    28.0000 </r>
       <r>   -24.3985    -0.0000    28.0000 </r>
       <r>   -24.1919    -0.0000    28.0000 </r>
       <r>   -23.9852    -0.0000    28.0000 </r>
       <r>   -23.7786    -0.0000    28.0000 </r>
       <r>   -23.5720    -0.0309    27.9936 </r>
       <r>   -23.3654    -0.7298    27.8428 </r>
       <r>   -23.1587    15.7060    31.0881 </r>
       <r>   -22.9521    40.7519    39.5087 </r>
       <r>   -22.7455   130.9968    66.5765 </r>
       <r>   -22.5388    56.6344    78.2789 </r>
       <r>   -22.3322    18.8297    82.1697 </r>
       <r>   -22.1256    -0.7781    82.0089 </r>
       <r>   -21.9189    -0.0432    82.0000 </r>
       <r>   -21.7123    -0.0000    82.0000 </r>
       <r>   -21.5057    -0.0000    82.0000 </r>
       <r>   -21.2991     0.0000    82.0000 </r>
       <r>   -21.0924     0.0000    82.0000 </r>
       <r>   -20.8858     0.0000    82.0000 </r>
       <r>   -20.6792     0.0000    82.0000 </r>
       <r>   -20.4725     0.0000    82.0000 </r>
       <r>   -20.2659    -0.0000    82.0000 </r>
       <r>   -20.0593    -0.0000    82.0000 </r>
       <r>   -19.8526    -0.0000    82.0000 </r>
       <r>   -19.6460    -0.0000    82.0000 </r>
       <r>   -19.4394    -0.0087    81.9982 </r>
       <r>   -19.2328    -0.6058    81.8730 </r>
       <r>   -19.0261     9.2705    83.7886 </r>
       <r>   -18.8195    28.1802    89.6115 </r>
       <r>   -18.6129    74.8257   105.0727 </r>
       <r>   -18.4062    30.3672   111.3474 </r>
       <r>   -18.1996     3.5009   112.0708 </r>
       <r>   -17.9930    -0.3417   112.0002 </r>
       <r>   -17.7863    -0.0012   112.0000 </r>
       <r>   -17.5797    -0.0000   112.0000 </r>
       <r>   -17.3731    -0.0000   112.0000 </r>
       <r>   -17.1665     0.0000   112.0000 </r>
       <r>   -16.9598     0.0000   112.0000 </r>
       <r>   -16.7532     0.0000   112.0000 </r>
       <r>   -16.5466     0.0000   112.0000 </r>
       <r>   -16.3399     0.0000   112.0000 </r>
       <r>   -16.1333     0.0000   112.0000 </r>
       <r>   -15.9267     0.0000   112.0000 </r>
       <r>   -15.7200     0.0000   112.0000 </r>
       <r>   -15.5134     0.0000   112.0000 </r>
       <r>   -15.3068     0.0000   112.0000 </r>
       <r>   -15.1002     0.0000   112.0000 </r>
       <r>   -14.8935     0.0000   112.0000 </r>
       <r>   -14.6869     0.0000   112.0000 </r>
       <r>   -14.4803     0.0000   112.0000 </r>
       <r>   -14.2736     0.0000   112.0000 </r>
       <r>   -14.0670     0.0000   112.0000 </r>
       <r>   -13.8604     0.0000   112.0000 </r>
       <r>   -13.6537     0.0000   112.0000 </r>
       <r>   -13.4471     0.0000   112.0000 </r>
       <r>   -13.2405     0.0000   112.0000 </r>
       <r>   -13.0339     0.0000   112.0000 </r>
       <r>   -12.8272     0.0000   112.0000 </r>
       <r>   -12.6206     0.0000   112.0000 </r>
       <r>   -12.4140     0.0000   112.0000 </r>
       <r>   -12.2073     0.0000   112.0000 </r>
       <r>   -12.0007     0.0000   112.0000 </r>
       <r>   -11.7941     0.0000   112.0000 </r>
       <r>   -11.5874     0.0000   112.0000 </r>
       <r>   -11.3808     0.0000   112.0000 </r>
       <r>   -11.1742     0.0000   112.0000 </r>
       <r>   -10.9676     0.0000   112.0000 </r>
       <r>   -10.7609     0.0000   112.0000 </r>
       <r>   -10.5543     0.0000   112.0000 </r>
       <r>   -10.3477     0.0000   112.0000 </r>
       <r>   -10.1410     0.0000   112.0000 </r>
       <r>    -9.9344     0.0000   112.0000 </r>
       <r>    -9.7278     0.0000   112.0000 </r>
       <r>    -9.5211     0.0000   112.0000 </r>
       <r>    -9.3145     0.0000   112.0000 </r>
       <r>    -9.1079     0.0000   112.0000 </r>
       <r>    -8.9013     0.0000   112.0000 </r>
       <r>    -8.6946     0.0000   112.0000 </r>
       <r>    -8.4880     0.0000   112.0000 </r>
       <r>    -8.2814     0.0000   112.0000 </r>
       <r>    -8.0747     0.0000   112.0000 </r>
       <r>    -7.8681     0.0000   112.0000 </r>
       <r>    -7.6615     0.0000   112.0000 </r>
       <r>    -7.4549     0.0000   112.0000 </r>
       <r>    -7.2482     0.0000   112.0000 </r>
       <r>    -7.0416     0.0000   112.0000 </r>
       <r>    -6.8350     0.0000   112.0000 </r>
       <r>    -6.6283     0.0000   112.0000 </r>
       <r>    -6.4217     0.0000   112.0000 </r>
       <r>    -6.2151     0.0000   112.0000 </r>
       <r>    -6.0084     0.0000   112.0000 </r>
       <r>    -5.8018     0.0000   112.0000 </r>
       <r>    -5.5952     0.0000   112.0000 </r>
       <r>    -5.3886     0.0000   112.0000 </r>
       <r>    -5.1819     0.0000   112.0000 </r>
       <r>    -4.9753     0.0000   112.0000 </r>
       <r>    -4.7687     0.0000   112.0000 </r>
       <r>    -4.5620     0.0000   112.0000 </r>
       <r>    -4.3554     0.0000   112.0000 </r>
       <r>    -4.1488     0.0000   112.0000 </r>
       <r>    -3.9421     0.0000   112.0000 </r>
       <r>    -3.7355     0.0000   112.0000 </r>
       <r>    -3.5289     0.0000   112.0000 </r>
       <r>    -3.3223     0.0000   112.0000 </r>
       <r>    -3.1156     0.0000   112.0000 </r>
       <r>    -2.9090     0.0000   112.0000 </r>
       <r>    -2.7024     0.0000   112.0000 </r>
       <r>    -2.4957     0.0000   112.0000 </r>
       <r>    -2.2891     0.0000   112.0000 </r>
       <r>    -2.0825     0.0000   112.0000 </r>
       <r>    -1.8758     0.0000   112.0000 </r>
       <r>    -1.6692     0.0000   112.0000 </r>
       <r>    -1.4626     0.0000   112.0000 </r>
       <r>    -1.2560     0.0000   112.0000 </r>
       <r>    -1.0493     0.0000   112.0000 </r>
       <r>    -0.8427    -0.0000   112.0000 </r>
       <r>    -0.6361    -0.0000   112.0000 </r>
       <r>    -0.4294    -0.0000   112.0000 </r>
       <r>    -0.2228    -0.0000   112.0000 </r>
       <r>    -0.0162    -0.0000   112.0000 </r>
       <r>     0.1905    -0.0087   111.9982 </r>
       <r>     0.3971     0.1102   112.0210 </r>
       <r>     0.6037     0.4969   112.1236 </r>
       <r>     0.8103     1.3197   112.3963 </r>
       <r>     1.0170     1.7580   112.7596 </r>
       <r>     1.2236     2.2461   113.2237 </r>
       <r>     1.4302     4.5146   114.1565 </r>
       <r>     1.6369     2.4809   114.6692 </r>
       <r>     1.8435     3.8062   115.4556 </r>
       <r>     2.0501     3.7904   116.2389 </r>
       <r>     2.2568     3.7347   117.0106 </r>
       <r>     2.4634     3.7337   117.7820 </r>
       <r>     2.6700     8.5560   119.5500 </r>
       <r>     2.8766     8.0821   121.2200 </r>
       <r>     3.0833     8.3893   122.9535 </r>
       <r>     3.2899     8.0194   124.6105 </r>
       <r>     3.4965    10.8590   126.8543 </r>
       <r>     3.7032    18.6137   130.7004 </r>
       <r>     3.9098    21.6689   135.1779 </r>
       <r>     4.1164    22.9648   139.9231 </r>
       <r>     4.3231    30.6653   146.2594 </r>
       <r>     4.5297    32.1104   152.8944 </r>
       <r>     4.7363    38.0288   160.7523 </r>
       <r>     4.9429    38.5148   168.7106 </r>
       <r>     5.1496    36.4227   176.2366 </r>
       <r>     5.3562    31.1367   182.6704 </r>
       <r>     5.5628    34.5813   189.8159 </r>
       <r>     5.7695    13.6082   192.6278 </r>
       <r>     5.9761    26.9275   198.1918 </r>
       <r>     6.1827    66.7756   211.9896 </r>
       <r>     6.3894    62.8388   224.9740 </r>
       <r>     6.5960    54.6678   236.2700 </r>
       <r>     6.8026    47.1260   246.0076 </r>
       <r>     7.0092    53.5817   257.0792 </r>
       <r>     7.2159    58.0685   269.0779 </r>
       <r>     7.4225    51.4210   279.7030 </r>
       <r>     7.6291    49.5866   289.9491 </r>
       <r>     7.8358    48.0912   299.8862 </r>
       <r>     8.0424    36.9895   307.5293 </r>
       <r>     8.2490    28.6601   313.4513 </r>
       <r>     8.4557    20.3081   317.6476 </r>
       <r>     8.6623    17.1006   321.1811 </r>
       <r>     8.8689    11.4756   323.5523 </r>
       <r>     9.0755    11.9085   326.0129 </r>
       <r>     9.2822    22.3200   330.6249 </r>
       <r>     9.4888    18.1111   334.3672 </r>
       <r>     9.6954     8.3061   336.0835 </r>
       <r>     9.9021    -0.3898   336.0030 </r>
       <r>    10.1087    -0.0144   336.0000 </r>
       <r>    10.3153    -0.0000   336.0000 </r>
       <r>    10.5219    -0.0000   336.0000 </r>
       <r>    10.7286     0.0000   336.0000 </r>
       <r>    10.9352     0.0000   336.0000 </r>
       <r>    11.1418     0.0000   336.0000 </r>
       <r>    11.3485     0.0000   336.0000 </r>
       <r>    11.5551     0.0000   336.0000 </r>
       <r>    11.7617     0.0000   336.0000 </r>
       <r>    11.9684     0.0000   336.0000 </r>
       <r>    12.1750     0.0000   336.0000 </r>
       <r>    12.3816     0.0000   336.0000 </r>
      </set>
     </set>
    </array>
   </total>
  </dos>
 </calculation>
 <structure name="finalpos" >
  <crystal>
   <varray name="basis" >
    <v>       6.79939449      -0.01892537      -0.00276959 </v>
    <v>      -0.02726750      10.08591844      -0.00483934 </v>
    <v>      -0.00389115      -0.00505826      10.18099811 </v>
   </varray>
   <i name="volume">    698.18836661 </i>
   <varray name="rec_basis" >
    <v>       0.14707305       0.00039764       0.00005641 </v>
    <v>       0.00027599       0.09914890       0.00004937 </v>
    <v>       0.00004014       0.00004724       0.09822224 </v>
   </varray>
  </crystal>
  <varray name="positions" >
   <v>       0.52219501       0.99759155       0.00375412 </v>
   <v>       0.24496040       0.83816208       0.49623525 </v>
   <v>       0.75795239       0.83817172       0.49653934 </v>
   <v>       0.24252967       0.50836888       0.17794197 </v>
   <v>       0.98035951       0.66892859       0.00183918 </v>
   <v>       0.75292910       0.49836969       0.49342253 </v>
   <v>       0.74978471       0.83674756       0.17313734 </v>
   <v>       0.98022026       0.99870811       0.00598481 </v>
   <v>       0.76925933       0.49723033       0.82244224 </v>
   <v>       0.99715842       0.66894403       0.34006793 </v>
   <v>       0.25590144       0.15726707       0.49361051 </v>
   <v>       0.26079836       0.14112730       0.83050035 </v>
   <v>       0.50210166       0.98698042       0.66017160 </v>
   <v>       0.49021407       0.33556912       0.34082589 </v>
   <v>       0.74720425       0.16198261       0.17385536 </v>
   <v>       0.24962408       0.82907499       0.16910925 </v>
   <v>       0.47748909       0.34480707       0.66979957 </v>
   <v>       0.75067203       0.16736255       0.49698771 </v>
   <v>       0.02422759       0.33457031       0.66416476 </v>
   <v>       0.74357162       0.16378907       0.82732824 </v>
   <v>       0.50501425       0.67042248       0.66203015 </v>
   <v>       0.48355993       0.33694758       0.99248222 </v>
   <v>       0.49760637       0.66513519       0.34396537 </v>
   <v>       0.75850181       0.83901567       0.83061972 </v>
   <v>       0.24471312       0.50725125       0.48964393 </v>
   <v>       0.50620221       0.99732547       0.33557001 </v>
   <v>       0.99665009       0.99525497       0.33283512 </v>
   <v>       0.00480908       0.00140127       0.66216802 </v>
   <v>       0.99462098       0.66610992       0.66036622 </v>
   <v>       0.01097193       0.33804418       0.34114203 </v>
   <v>       0.21999751       0.52639998       0.83599659 </v>
   <v>       0.24270057       0.83808708       0.83571160 </v>
   <v>       0.75168671       0.49299230       0.17819220 </v>
   <v>       0.01713799       0.33127778       0.99455771 </v>
   <v>       0.51206450       0.66053341       0.99291794 </v>
   <v>       0.25461095       0.16006141       0.17408420 </v>
  </varray>
 </structure>
</modeling>
