<?xml version="1.0" encoding="ISO-8859-1"?>
<modeling>
 <generator>
  <i name="program" type="string">vasp </i>
  <i name="version" type="string">5.4.1  </i>
  <i name="subversion" type="string">05Feb16 (build Jan 29 2020 16:04:39) complex                          parallel </i>
  <i name="platform" type="string">IFC91_ompi </i>
  <i name="date" type="string">2020 06 15 </i>
  <i name="time" type="string">08:22:12 </i>
 </generator>
 <incar>
  <i type="string" name="SYSTEM"> automatically generated by mexm</i>
  <i type="int" name="ISTART">     0</i>
  <i type="string" name="PREC">accurate               ! avoid wrap aro</i>
  <i type="string" name="ALGO"> Fast                   ! blocked Davids</i>
  <i type="int" name="ISPIN">     1</i>
  <i type="int" name="ICHARG">     2</i>
  <i type="int" name="NELM">    70</i>
  <i type="int" name="IBRION">     2</i>
  <i name="EDIFF">      0.00001000</i>
  <i name="EDIFFG">     -0.01000000</i>
  <i type="int" name="NSW">   300</i>
  <i type="int" name="ISIF">     3</i>
  <i type="int" name="ISYM">     1</i>
  <i name="ENCUT">    300.00000000</i>
  <i name="POTIM">      0.15000000</i>
  <i type="string" name="LREAL"> Auto                  ! unpublished met</i>
  <i type="int" name="ISMEAR">     1</i>
  <i name="SIGMA">      0.15000000</i>
  <i type="logical" name="LWAVE"> F  </i>
  <i type="logical" name="LCHARG"> F  </i>
  <i type="logical" name="LVTOT"> F  </i>
  <v type="int" name="KPOINT_BSE">    -1     0     0     0</v>
  <i type="int" name="NELM">    70</i>
 </incar>
 <kpoints>
  <generation param="Gamma">
   <v type="int" name="divisions">       3        3        3 </v>
   <v name="usershift">      0.00000000       0.00000000       0.00000000 </v>
   <v name="genvec1">      0.33333333      -0.00000000       0.00000000 </v>
   <v name="genvec2">     -0.00000000       0.33333333       0.00000000 </v>
   <v name="genvec3">     -0.00000000       0.00000000       0.33333333 </v>
   <v name="shift">      0.00000000       0.00000000       0.00000000 </v>
  </generation>
  <varray name="kpointlist" >
   <v>       0.00000000       0.00000000       0.00000000 </v>
   <v>       0.33333333      -0.00000000      -0.00000000 </v>
   <v>      -0.00000000       0.33333333       0.00000000 </v>
   <v>       0.33333333       0.33333333       0.00000000 </v>
   <v>      -0.33333333       0.33333333       0.00000000 </v>
   <v>      -0.00000000       0.00000000       0.33333333 </v>
   <v>       0.33333333       0.00000000       0.33333333 </v>
   <v>      -0.33333333       0.00000000       0.33333333 </v>
   <v>      -0.00000000       0.33333333       0.33333333 </v>
   <v>       0.33333333       0.33333333       0.33333333 </v>
   <v>      -0.33333333       0.33333333       0.33333333 </v>
   <v>      -0.00000000      -0.33333333       0.33333333 </v>
   <v>       0.33333333      -0.33333333       0.33333333 </v>
   <v>      -0.33333333      -0.33333333       0.33333333 </v>
  </varray>
  <varray name="weights" >
   <v>       0.03703704 </v>
   <v>       0.07407407 </v>
   <v>       0.07407407 </v>
   <v>       0.07407407 </v>
   <v>       0.07407407 </v>
   <v>       0.07407407 </v>
   <v>       0.07407407 </v>
   <v>       0.07407407 </v>
   <v>       0.07407407 </v>
   <v>       0.07407407 </v>
   <v>       0.07407407 </v>
   <v>       0.07407407 </v>
   <v>       0.07407407 </v>
   <v>       0.07407407 </v>
  </varray>
 </kpoints>
 <parameters>
  <separator name="general" >
   <i type="string" name="SYSTEM">automatically generated by mexm</i>
   <i type="logical" name="LCOMPAT"> F  </i>
  </separator>
  <separator name="electronic" >
   <i type="string" name="PREC">accura</i>
   <i name="ENMAX">    300.00000000</i>
   <i name="ENAUG">    461.25700000</i>
   <i name="EDIFF">      0.00001000</i>
   <i type="int" name="IALGO">    68</i>
   <i type="int" name="IWAVPR">    11</i>
   <i type="int" name="NBANDS">   172</i>
   <i name="NELECT">    282.00000000</i>
   <i type="int" name="TURBO">     0</i>
   <i type="int" name="IRESTART">     0</i>
   <i type="int" name="NREBOOT">     0</i>
   <i type="int" name="NMIN">     0</i>
   <i name="EREF">      0.00000000</i>
   <separator name="electronic smearing" >
    <i type="int" name="ISMEAR">     1</i>
    <i name="SIGMA">      0.15000000</i>
    <i name="KSPACING">      0.50000000</i>
    <i type="logical" name="KGAMMA"> T  </i>
   </separator>
   <separator name="electronic projectors" >
    <i type="logical" name="LREAL"> T  </i>
    <v name="ROPT">     -0.00025000     -0.00025000     -0.00025000     -0.00025000</v>
    <i type="int" name="LMAXPAW">  -100</i>
    <i type="int" name="LMAXMIX">     2</i>
    <i type="logical" name="NLSPLINE"> F  </i>
   </separator>
   <separator name="electronic startup" >
    <i type="int" name="ISTART">     0</i>
    <i type="int" name="ICHARG">     2</i>
    <i type="int" name="INIWAV">     1</i>
   </separator>
   <separator name="electronic spin" >
    <i type="int" name="ISPIN">     1</i>
    <i type="logical" name="LNONCOLLINEAR"> F  </i>
    <v name="MAGMOM">      1.00000000      1.00000000      1.00000000      1.00000000      1.00000000      1.00000000      1.00000000      1.00000000      1.00000000      1.00000000      1.00000000      1.00000000      1.00000000      1.00000000      1.00000000      1.00000000      1.00000000      1.00000000      1.00000000      1.00000000
      1.00000000      1.00000000      1.00000000      1.00000000      1.00000000      1.00000000      1.00000000      1.00000000      1.00000000      1.00000000      1.00000000      1.00000000      1.00000000      1.00000000      1.00000000      1.00000000</v>
    <i name="NUPDOWN">     -1.00000000</i>
    <i type="logical" name="LSORBIT"> F  </i>
    <v name="SAXIS">      0.00000000      0.00000000      1.00000000</v>
    <i type="logical" name="LSPIRAL"> F  </i>
    <v name="QSPIRAL">      0.00000000      0.00000000      0.00000000</v>
    <i type="logical" name="LZEROZ"> F  </i>
   </separator>
   <separator name="electronic exchange-correlation" >
    <i type="logical" name="LASPH"> F  </i>
    <i type="logical" name="LMETAGGA"> F  </i>
   </separator>
   <separator name="electronic convergence" >
    <i type="int" name="NELM">    70</i>
    <i type="int" name="NELMDL">    -5</i>
    <i type="int" name="NELMIN">     2</i>
    <i name="ENINI">    300.00000000</i>
    <separator name="electronic convergence detail" >
     <i type="logical" name="LDIAG"> T  </i>
     <i type="logical" name="LSUBROT"> F  </i>
     <i name="WEIMIN">      0.00100000</i>
     <i name="EBREAK">      0.00000001</i>
     <i name="DEPER">      0.30000000</i>
     <i type="int" name="NRMM">     4</i>
     <i name="TIME">      0.40000000</i>
    </separator>
   </separator>
   <separator name="electronic mixer" >
    <i name="AMIX">      0.40000000</i>
    <i name="BMIX">      1.00000000</i>
    <i name="AMIN">      0.10000000</i>
    <i name="AMIX_MAG">      1.60000000</i>
    <i name="BMIX_MAG">      1.00000000</i>
    <separator name="electronic mixer details" >
     <i type="int" name="IMIX">     4</i>
     <i type="logical" name="MIXFIRST"> F  </i>
     <i type="int" name="MAXMIX">   -45</i>
     <i name="WC">    100.00000000</i>
     <i type="int" name="INIMIX">     1</i>
     <i type="int" name="MIXPRE">     1</i>
     <i type="int" name="MREMOVE">     5</i>
    </separator>
   </separator>
   <separator name="electronic dipolcorrection" >
    <i type="logical" name="LDIPOL"> F  </i>
    <i type="logical" name="LMONO"> F  </i>
    <i type="int" name="IDIPOL">     0</i>
    <i name="EPSILON">      1.00000000</i>
    <v name="DIPOL">   -100.00000000   -100.00000000   -100.00000000</v>
    <i name="EFIELD">      0.00000000</i>
   </separator>
  </separator>
  <separator name="grids" >
   <i type="int" name="NGX">    40</i>
   <i type="int" name="NGY">    60</i>
   <i type="int" name="NGZ">    60</i>
   <i type="int" name="NGXF">    80</i>
   <i type="int" name="NGYF">   120</i>
   <i type="int" name="NGZF">   120</i>
   <i type="logical" name="ADDGRID"> F  </i>
  </separator>
  <separator name="ionic" >
   <i type="int" name="NSW">   300</i>
   <i type="int" name="IBRION">     2</i>
   <i type="int" name="ISIF">     3</i>
   <i name="PSTRESS">      0.00000000</i>
   <i name="EDIFFG">     -0.01000000</i>
   <i type="int" name="NFREE">     1</i>
   <i name="POTIM">      0.15000000</i>
   <i name="SMASS">     -3.00000000</i>
   <i name="SCALEE">      1.00000000</i>
  </separator>
  <separator name="ionic md" >
   <i name="TEBEG">      0.00010000</i>
   <i name="TEEND">      0.00010000</i>
   <i type="int" name="NBLOCK">     1</i>
   <i type="int" name="KBLOCK">   300</i>
   <i type="int" name="NPACO">   256</i>
   <i name="APACO">     16.00000000</i>
  </separator>
  <separator name="symmetry" >
   <i type="int" name="ISYM">     1</i>
   <i name="SYMPREC">      0.00001000</i>
  </separator>
  <separator name="dos" >
   <i type="logical" name="LORBIT"> F  </i>
   <v name="RWIGS">     -1.00000000     -1.00000000     -1.00000000     -1.00000000</v>
   <i type="int" name="NEDOS">   301</i>
   <i name="EMIN">     10.00000000</i>
   <i name="EMAX">    -10.00000000</i>
   <i name="EFERMI">      0.00000000</i>
  </separator>
  <separator name="writing" >
   <i type="int" name="NWRITE">     2</i>
   <i type="logical" name="LWAVE"> F  </i>
   <i type="logical" name="LCHARG"> F  </i>
   <i type="logical" name="LPARD"> F  </i>
   <i type="logical" name="LVTOT"> F  </i>
   <i type="logical" name="LVHAR"> F  </i>
   <i type="logical" name="LELF"> F  </i>
   <i type="logical" name="LOPTICS"> F  </i>
   <v name="STM">      0.00000000      0.00000000      0.00000000      0.00000000      0.00000000      0.00000000      0.00000000</v>
  </separator>
  <separator name="performance" >
   <i type="int" name="NPAR">     4</i>
   <i type="int" name="NSIM">     4</i>
   <i type="int" name="NBLK">    -1</i>
   <i type="logical" name="LPLANE"> T  </i>
   <i type="logical" name="LSCALAPACK"> T  </i>
   <i type="logical" name="LSCAAWARE"> F  </i>
   <i type="logical" name="LSCALU"> F  </i>
   <i type="logical" name="LASYNC"> F  </i>
   <i type="logical" name="LORBITALREAL"> F  </i>
  </separator>
  <separator name="miscellaneous" >
   <i type="int" name="IDIOT">     3</i>
   <i type="logical" name="LMUSIC"> F  </i>
   <v name="POMASS">    180.94800000     91.22400000     92.91000000    178.49000000</v>
   <v name="DARWINR">      0.00000000      0.00000000      0.00000000      0.00000000</v>
   <v name="DARWINV">      1.00000000      1.00000000      1.00000000      1.00000000</v>
   <i type="logical" name="LCORR"> T  </i>
  </separator>
  <i type="logical" name="GGA_COMPAT"> T  </i>
  <i type="logical" name="LBERRY"> F  </i>
  <i type="int" name="ICORELEVEL">     0</i>
  <i type="logical" name="LDAU"> F  </i>
  <i type="int" name="I_CONSTRAINED_M">     0</i>
  <separator name="electronic exchange-correlation" >
   <i type="string" name="GGA">--</i>
   <i type="int" name="VOSKOWN">     0</i>
   <i type="logical" name="LHFCALC"> F  </i>
   <i type="string" name="PRECFOCK"></i>
   <i type="logical" name="LSYMGRAD"> F  </i>
   <i type="logical" name="LHFONE"> F  </i>
   <i type="logical" name="LRHFCALC"> F  </i>
   <i type="logical" name="LTHOMAS"> F  </i>
   <i type="logical" name="LMODELHF"> F  </i>
   <i name="ENCUT4O">     -1.00000000</i>
   <i type="int" name="EXXOEP">     0</i>
   <i type="int" name="FOURORBIT">     0</i>
   <i name="AEXX">      0.00000000</i>
   <i name="HFALPHA">      0.00000000</i>
   <i name="MCALPHA">      0.00000000</i>
   <i name="ALDAX">      1.00000000</i>
   <i name="AGGAX">      1.00000000</i>
   <i name="ALDAC">      1.00000000</i>
   <i name="AGGAC">      1.00000000</i>
   <i type="int" name="NKREDX">     1</i>
   <i type="int" name="NKREDY">     1</i>
   <i type="int" name="NKREDZ">     1</i>
   <i type="logical" name="SHIFTRED"> F  </i>
   <i type="logical" name="ODDONLY"> F  </i>
   <i type="logical" name="EVENONLY"> F  </i>
   <i type="int" name="LMAXFOCK">     0</i>
   <i type="int" name="NMAXFOCKAE">     0</i>
   <i type="logical" name="LFOCKAEDFT"> F  </i>
   <i name="HFSCREEN">      0.00000000</i>
   <i name="HFSCREENC">      0.00000000</i>
   <i type="int" name="NBANDSGWLOW">     0</i>
  </separator>
  <separator name="vdW DFT" >
   <i type="logical" name="LUSE_VDW"> F  </i>
   <i name="Zab_VDW">     -0.84910000</i>
   <i name="PARAM1">      0.12340000</i>
   <i name="PARAM2">      1.00000000</i>
   <i name="PARAM3">      0.00000000</i>
  </separator>
  <separator name="model GW" >
   <i type="int" name="MODEL_GW">     0</i>
   <i name="MODEL_EPS0">     12.03833313</i>
   <i name="MODEL_ALPHA">      1.00000000</i>
  </separator>
  <separator name="linear response parameters" >
   <i type="logical" name="LEPSILON"> F  </i>
   <i type="logical" name="LRPA"> F  </i>
   <i type="logical" name="LNABLA"> F  </i>
   <i type="logical" name="LVEL"> F  </i>
   <i type="int" name="KINTER">     0</i>
   <i name="CSHIFT">      0.10000000</i>
   <i name="OMEGAMAX">     -1.00000000</i>
   <i name="DEG_THRESHOLD">      0.00200000</i>
  </separator>
  <separator name="orbital magnetization" >
   <i type="logical" name="NUCIND"> F  </i>
   <v name="MAGPOS">      0.00000000      0.00000000      0.00000000</v>
   <i type="logical" name="LNICSALL"> T  </i>
   <i type="logical" name="ORBITALMAG"> F  </i>
   <i type="logical" name="LMAGBLOCH"> F  </i>
   <i type="logical" name="LCHIMAG"> F  </i>
   <i type="logical" name="LGAUGE"> T  </i>
   <i type="int" name="MAGATOM">     0</i>
   <v name="MAGDIPOL">      0.00000000      0.00000000      0.00000000</v>
   <v name="AVECCONST">      0.00000000      0.00000000      0.00000000</v>
  </separator>
  <separator name="response functions" >
   <i type="logical" name="LADDER"> F  </i>
   <i type="logical" name="LFXC"> F  </i>
   <i type="logical" name="LHARTREE"> T  </i>
   <i type="int" name="IBSE">     0</i>
   <v type="int" name="KPOINT">    -1     0     0     0</v>
   <i type="logical" name="LTCTE"> F  </i>
   <i type="logical" name="LTETE"> F  </i>
   <i type="logical" name="LTRIPLET"> F  </i>
   <i type="logical" name="LFXCEPS"> F  </i>
   <i type="logical" name="LFXHEG"> F  </i>
   <i type="int" name="NATURALO">     0</i>
   <i type="logical" name="L2ORDER"> F  </i>
   <i type="logical" name="LUSEW"> F  </i>
   <i name="ENCUTGW">     -2.00000000</i>
   <i name="ENCUTGWSOFT">     -2.00000000</i>
   <i name="ENCUTLF">     -1.00000000</i>
   <i type="int" name="LMAXMP2">    -1</i>
   <i name="SCISSOR">      0.00000000</i>
   <i type="int" name="NOMEGA">     0</i>
   <i type="int" name="NOMEGAR">     0</i>
   <i type="int" name="NBANDSGW">    -1</i>
   <i type="int" name="NBANDSO">    -1</i>
   <i type="int" name="NBANDSV">    -1</i>
   <i type="int" name="NELM">    70</i>
   <i type="int" name="NELMHF">     1</i>
   <i type="int" name="DIM">     3</i>
   <i type="int" name="ANTIRES">     0</i>
   <i name="OMEGAMAX">    -30.00000000</i>
   <i name="OMEGAMIN">    -30.00000000</i>
   <i name="OMEGATL">   -200.00000000</i>
   <i type="int" name="OMEGAGRID">     0</i>
   <i name="CSHIFT">     -0.10000000</i>
   <i type="logical" name="SELFENERGY"> F  </i>
   <i type="logical" name="LSPECTRAL"> F  </i>
   <i type="logical" name="LSPECTRALGW"> F  </i>
   <i type="logical" name="LSINGLES"> F  </i>
   <i type="logical" name="LFERMIGW"> F  </i>
   <i type="logical" name="ODDONLYGW"> F  </i>
   <i type="logical" name="EVENONLYGW"> F  </i>
   <i type="int" name="NKREDLFX">     1</i>
   <i type="int" name="NKREDLFY">     1</i>
   <i type="int" name="NKREDLFZ">     1</i>
   <i type="int" name="MAXMEM">  1800</i>
   <i type="int" name="TELESCOPE">     0</i>
   <i type="int" name="TAUPAR">     1</i>
   <i type="int" name="OMEGAPAR">    -1</i>
   <i name="LAMBDA">      1.00000000</i>
  </separator>
  <separator name="External order field" >
   <i name="OFIELD_KAPPA">      0.00000000</i>
   <v name="OFIELD_K">      0.00000000      0.00000000      0.00000000</v>
   <i name="OFIELD_Q6_NEAR">      0.00000000</i>
   <i name="OFIELD_Q6_FAR">      0.00000000</i>
   <i name="OFIELD_A">      0.00000000</i>
  </separator>
 </parameters>
 <atominfo>
  <atoms>      36 </atoms>
  <types>       4 </types>
  <array name="atoms" >
   <dimension dim="1">ion</dimension>
   <field type="string">element</field>
   <field type="int">atomtype</field>
   <set>
    <rc><c>Ta</c><c>   1</c></rc>
    <rc><c>Ta</c><c>   1</c></rc>
    <rc><c>Ta</c><c>   1</c></rc>
    <rc><c>Ta</c><c>   1</c></rc>
    <rc><c>Ta</c><c>   1</c></rc>
    <rc><c>Ta</c><c>   1</c></rc>
    <rc><c>Ta</c><c>   1</c></rc>
    <rc><c>Ta</c><c>   1</c></rc>
    <rc><c>Ta</c><c>   1</c></rc>
    <rc><c>Ta</c><c>   1</c></rc>
    <rc><c>Ta</c><c>   1</c></rc>
    <rc><c>Ta</c><c>   1</c></rc>
    <rc><c>Zr</c><c>   2</c></rc>
    <rc><c>Zr</c><c>   2</c></rc>
    <rc><c>Zr</c><c>   2</c></rc>
    <rc><c>Zr</c><c>   2</c></rc>
    <rc><c>Zr</c><c>   2</c></rc>
    <rc><c>Zr</c><c>   2</c></rc>
    <rc><c>Zr</c><c>   2</c></rc>
    <rc><c>Zr</c><c>   2</c></rc>
    <rc><c>Zr</c><c>   2</c></rc>
    <rc><c>Nb</c><c>   3</c></rc>
    <rc><c>Nb</c><c>   3</c></rc>
    <rc><c>Nb</c><c>   3</c></rc>
    <rc><c>Nb</c><c>   3</c></rc>
    <rc><c>Nb</c><c>   3</c></rc>
    <rc><c>Nb</c><c>   3</c></rc>
    <rc><c>Hf</c><c>   4</c></rc>
    <rc><c>Hf</c><c>   4</c></rc>
    <rc><c>Hf</c><c>   4</c></rc>
    <rc><c>Hf</c><c>   4</c></rc>
    <rc><c>Hf</c><c>   4</c></rc>
    <rc><c>Hf</c><c>   4</c></rc>
    <rc><c>Hf</c><c>   4</c></rc>
    <rc><c>Hf</c><c>   4</c></rc>
    <rc><c>Hf</c><c>   4</c></rc>
   </set>
  </array>
  <array name="atomtypes" >
   <dimension dim="1">type</dimension>
   <field type="int">atomspertype</field>
   <field type="string">element</field>
   <field>mass</field>
   <field>valence</field>
   <field type="string">pseudopotential</field>
   <set>
    <rc><c>  12</c><c>Ta</c><c>    180.94800000</c><c>      5.00000000</c><c>  PAW_PBE Ta 17Jan2003                  </c></rc>
    <rc><c>   9</c><c>Zr</c><c>     91.22400000</c><c>     12.00000000</c><c>  PAW_PBE Zr_sv 04Jan2005               </c></rc>
    <rc><c>   6</c><c>Nb</c><c>     92.91000000</c><c>     13.00000000</c><c>  PAW_PBE Nb_sv 25May2007               </c></rc>
    <rc><c>   9</c><c>Hf</c><c>    178.49000000</c><c>      4.00000000</c><c>  PAW_PBE Hf 20Jan2003                  </c></rc>
   </set>
  </array>
 </atominfo>
 <structure name="initialpos" >
  <crystal>
   <varray name="basis" >
    <v>       6.94018083       0.01157288      -0.01999315 </v>
    <v>       0.01735932      10.19192045       0.01408699 </v>
    <v>      -0.02990492       0.01403710      10.21166418 </v>
   </varray>
   <i name="volume">    722.29998756 </i>
   <varray name="rec_basis" >
    <v>       0.14409009      -0.00024600       0.00042231 </v>
    <v>      -0.00016400       0.09811740      -0.00013535 </v>
    <v>       0.00028234      -0.00013583       0.09792824 </v>
   </varray>
  </crystal>
  <varray name="positions" >
   <v>       0.50865900       0.33480900       0.33769100 </v>
   <v>       0.73896800       0.83342200       0.15611700 </v>
   <v>       0.97952100       0.99451100       0.31394400 </v>
   <v>       0.27728500       0.48174900       0.15459500 </v>
   <v>       0.25954200       0.84723900       0.15652900 </v>
   <v>       0.51347200       0.99760300       0.66676900 </v>
   <v>       0.72859200       0.49765900       0.16551300 </v>
   <v>       0.76541500       0.15778700       0.48890300 </v>
   <v>       0.50125200       0.66886500       0.00234100 </v>
   <v>       0.50017000       0.66788900       0.67903600 </v>
   <v>       0.24496700       0.51198100       0.51533100 </v>
   <v>       0.00138200       0.67070500       0.69041400 </v>
   <v>       0.00026100       0.34278800       0.32749500 </v>
   <v>       0.48353900       0.66467300       0.32470800 </v>
   <v>       0.23645800       0.15841500       0.49712400 </v>
   <v>       0.00055400       0.66650400       0.00346400 </v>
   <v>       0.76591700       0.51860000       0.50195400 </v>
   <v>       0.76035000       0.82824700       0.50690700 </v>
   <v>       0.26026700       0.49323700       0.83438400 </v>
   <v>       0.25808500       0.16812600       0.16430300 </v>
   <v>       0.24503400       0.82998500       0.50937300 </v>
   <v>       0.74114900       0.16958600       0.17021400 </v>
   <v>       0.71089800       0.16198100       0.83753400 </v>
   <v>       0.26312000       0.83429000       0.83588400 </v>
   <v>       0.52390900       0.33625800       0.00497300 </v>
   <v>       0.73819100       0.51055300       0.83425300 </v>
   <v>       0.50548000       0.99182400       0.00145100 </v>
   <v>       0.27849900       0.16698200       0.83367100 </v>
   <v>       0.98694800       0.00355000       0.99807500 </v>
   <v>       0.98128000       0.32783600       0.67458700 </v>
   <v>       0.98116400       0.00515900       0.68741400 </v>
   <v>       0.01792300       0.66435100       0.31339600 </v>
   <v>       0.51737600       0.99775500       0.33147300 </v>
   <v>       0.51719700       0.33402000       0.64785300 </v>
   <v>       0.97638500       0.33118300       0.99602200 </v>
   <v>       0.73077500       0.82988300       0.83630500 </v>
  </varray>
 </structure>
 <calculation>
  <scstep>
   <time name="dav">    1.21    1.22</time>
   <time name="total">    1.42    1.59</time>
   <energy>
    <i name="alphaZ">   1467.27807363 </i>
    <i name="ewald"> -18446.78465037 </i>
    <i name="hartreedc">  -5721.74484036 </i>
    <i name="XCdc">   -486.75546359 </i>
    <i name="pawpsdc">  19822.61729966 </i>
    <i name="pawaedc"> -18120.26200271 </i>
    <i name="eentropy">     -0.00677831 </i>
    <i name="bandstr">     18.34647589 </i>
    <i name="atom">  23139.02543807 </i>
    <i name="e_fr_energy">   1671.71355192 </i>
    <i name="e_wo_entrp">   1671.72033023 </i>
    <i name="e_0_energy">   1671.71581136 </i>
   </energy>
  </scstep>
  <scstep>
   <time name="dav">    0.97    1.00</time>
   <time name="total">    0.97    1.09</time>
   <energy>
    <i name="e_fr_energy">   -107.95778497 </i>
    <i name="e_wo_entrp">   -107.95816290 </i>
    <i name="e_0_energy">   -107.95791094 </i>
   </energy>
  </scstep>
  <scstep>
   <time name="dav">    1.36    1.36</time>
   <time name="total">    1.36    1.38</time>
   <energy>
    <i name="e_fr_energy">   -349.75309814 </i>
    <i name="e_wo_entrp">   -349.75684152 </i>
    <i name="e_0_energy">   -349.75434594 </i>
   </energy>
  </scstep>
  <scstep>
   <time name="dav">    1.50    1.54</time>
   <time name="total">    1.50    1.55</time>
   <energy>
    <i name="e_fr_energy">   -378.18470951 </i>
    <i name="e_wo_entrp">   -378.19343640 </i>
    <i name="e_0_energy">   -378.18761847 </i>
   </energy>
  </scstep>
  <scstep>
   <time name="dav">    1.54    1.67</time>
   <time name="total">    1.57    1.72</time>
   <energy>
    <i name="e_fr_energy">   -381.01019431 </i>
    <i name="e_wo_entrp">   -381.01831885 </i>
    <i name="e_0_energy">   -381.01290249 </i>
   </energy>
  </scstep>
  <scstep>
   <time name="diag">    0.13    0.14</time>
   <time name="diis">    0.82    0.83</time>
   <time name="orth">    0.01    0.01</time>
   <time name="total">    1.04    1.08</time>
   <energy>
    <i name="e_fr_energy">   -371.22450569 </i>
    <i name="e_wo_entrp">   -371.23606422 </i>
    <i name="e_0_energy">   -371.22835853 </i>
   </energy>
  </scstep>
  <scstep>
   <time name="diag">    0.09    0.09</time>
   <time name="diis">    0.76    0.76</time>
   <time name="orth">    0.01    0.01</time>
   <time name="total">    0.93    0.95</time>
   <energy>
    <i name="e_fr_energy">   -375.27094259 </i>
    <i name="e_wo_entrp">   -375.27109727 </i>
    <i name="e_0_energy">   -375.27099415 </i>
   </energy>
  </scstep>
  <scstep>
   <time name="diag">    0.09    0.09</time>
   <time name="diis">    0.82    0.83</time>
   <time name="orth">    0.01    0.01</time>
   <time name="total">    0.99    1.01</time>
   <energy>
    <i name="e_fr_energy">   -366.48310256 </i>
    <i name="e_wo_entrp">   -366.51246118 </i>
    <i name="e_0_energy">   -366.49288877 </i>
   </energy>
  </scstep>
  <scstep>
   <time name="diag">    0.08    0.08</time>
   <time name="diis">    0.76    0.77</time>
   <time name="orth">    0.01    0.01</time>
   <time name="total">    0.92    0.94</time>
   <energy>
    <i name="e_fr_energy">   -365.92316533 </i>
    <i name="e_wo_entrp">   -365.95355916 </i>
    <i name="e_0_energy">   -365.93329661 </i>
   </energy>
  </scstep>
  <scstep>
   <time name="diag">    0.07    0.07</time>
   <time name="diis">    0.77    0.78</time>
   <time name="orth">    0.01    0.01</time>
   <time name="total">    0.92    0.94</time>
   <energy>
    <i name="e_fr_energy">   -365.92071383 </i>
    <i name="e_wo_entrp">   -365.95208322 </i>
    <i name="e_0_energy">   -365.93117029 </i>
   </energy>
  </scstep>
  <scstep>
   <time name="diag">    0.08    0.08</time>
   <time name="diis">    0.79    0.79</time>
   <time name="orth">    0.01    0.01</time>
   <time name="total">    0.95    0.97</time>
   <energy>
    <i name="e_fr_energy">   -365.90592424 </i>
    <i name="e_wo_entrp">   -365.93731599 </i>
    <i name="e_0_energy">   -365.91638816 </i>
   </energy>
  </scstep>
  <scstep>
   <time name="diag">    0.09    0.09</time>
   <time name="diis">    0.78    0.78</time>
   <time name="orth">    0.01    0.01</time>
   <time name="total">    0.94    0.96</time>
   <energy>
    <i name="e_fr_energy">   -365.89934272 </i>
    <i name="e_wo_entrp">   -365.93123517 </i>
    <i name="e_0_energy">   -365.90997354 </i>
   </energy>
  </scstep>
  <scstep>
   <time name="diag">    0.07    0.07</time>
   <time name="diis">    0.78    0.78</time>
   <time name="orth">    0.01    0.01</time>
   <time name="total">    1.07    1.09</time>
   <energy>
    <i name="e_fr_energy">   -365.89739572 </i>
    <i name="e_wo_entrp">   -365.92946747 </i>
    <i name="e_0_energy">   -365.90808631 </i>
   </energy>
  </scstep>
  <scstep>
   <time name="diag">    0.17    0.18</time>
   <time name="diis">    0.78    0.84</time>
   <time name="orth">    0.01    0.01</time>
   <time name="total">    1.04    1.13</time>
   <energy>
    <i name="e_fr_energy">   -365.89738251 </i>
    <i name="e_wo_entrp">   -365.92944454 </i>
    <i name="e_0_energy">   -365.90806985 </i>
   </energy>
  </scstep>
  <scstep>
   <time name="diag">    0.08    0.08</time>
   <time name="diis">    0.75    0.81</time>
   <time name="orth">    0.01    0.01</time>
   <time name="total">    0.90    0.98</time>
   <energy>
    <i name="e_fr_energy">   -365.89751814 </i>
    <i name="e_wo_entrp">   -365.92952447 </i>
    <i name="e_0_energy">   -365.90818691 </i>
   </energy>
  </scstep>
  <scstep>
   <time name="diag">    0.11    0.11</time>
   <time name="diis">    0.76    0.82</time>
   <time name="orth">    0.01    0.01</time>
   <time name="total">    0.94    1.02</time>
   <energy>
    <i name="e_fr_energy">   -365.89756979 </i>
    <i name="e_wo_entrp">   -365.92958080 </i>
    <i name="e_0_energy">   -365.90824012 </i>
   </energy>
  </scstep>
  <scstep>
   <time name="diag">    0.07    0.07</time>
   <time name="diis">    0.72    0.72</time>
   <time name="orth">    0.01    0.01</time>
   <time name="total">    0.88    0.91</time>
   <energy>
    <i name="e_fr_energy">   -365.89758734 </i>
    <i name="e_wo_entrp">   -365.92965078 </i>
    <i name="e_0_energy">   -365.90827515 </i>
   </energy>
  </scstep>
  <scstep>
   <time name="diag">    0.08    0.08</time>
   <time name="diis">    0.67    0.67</time>
   <time name="orth">    0.01    0.01</time>
   <time name="total">    0.84    0.89</time>
   <energy>
    <i name="e_fr_energy">   -365.89759647 </i>
    <i name="e_wo_entrp">   -365.92965990 </i>
    <i name="e_0_energy">   -365.90828428 </i>
   </energy>
  </scstep>
  <scstep>
   <time name="diag">    0.07    0.07</time>
   <time name="diis">    0.48    0.49</time>
   <time name="orth">    0.01    0.01</time>
   <time name="total">    0.60    0.65</time>
   <energy>
    <i name="alphaZ">   1467.27807363 </i>
    <i name="ewald"> -18446.78465037 </i>
    <i name="hartreedc">  -5502.32148195 </i>
    <i name="XCdc">   -484.50267092 </i>
    <i name="pawpsdc">  32901.65645307 </i>
    <i name="pawaedc"> -31186.32601445 </i>
    <i name="eentropy">      0.03206432 </i>
    <i name="bandstr">  -2253.95481263 </i>
    <i name="atom">  23139.02543807 </i>
    <i name="e_fr_energy">   -365.89760121 </i>
    <i name="e_wo_entrp">   -365.92966554 </i>
    <i name="e_0_energy">   -365.90828932 </i>
   </energy>
  </scstep>
  <structure>
   <crystal>
    <varray name="basis" >
     <v>       6.94018083       0.01157288      -0.01999315 </v>
     <v>       0.01735932      10.19192045       0.01408699 </v>
     <v>      -0.02990492       0.01403710      10.21166418 </v>
    </varray>
    <i name="volume">    722.29998756 </i>
    <varray name="rec_basis" >
     <v>       0.14409009      -0.00024600       0.00042231 </v>
     <v>      -0.00016400       0.09811740      -0.00013535 </v>
     <v>       0.00028234      -0.00013583       0.09792824 </v>
    </varray>
   </crystal>
   <varray name="positions" >
    <v>       0.50865900       0.33480900       0.33769100 </v>
    <v>       0.73896800       0.83342200       0.15611700 </v>
    <v>       0.97952100       0.99451100       0.31394400 </v>
    <v>       0.27728500       0.48174900       0.15459500 </v>
    <v>       0.25954200       0.84723900       0.15652900 </v>
    <v>       0.51347200       0.99760300       0.66676900 </v>
    <v>       0.72859200       0.49765900       0.16551300 </v>
    <v>       0.76541500       0.15778700       0.48890300 </v>
    <v>       0.50125200       0.66886500       0.00234100 </v>
    <v>       0.50017000       0.66788900       0.67903600 </v>
    <v>       0.24496700       0.51198100       0.51533100 </v>
    <v>       0.00138200       0.67070500       0.69041400 </v>
    <v>       0.00026100       0.34278800       0.32749500 </v>
    <v>       0.48353900       0.66467300       0.32470800 </v>
    <v>       0.23645800       0.15841500       0.49712400 </v>
    <v>       0.00055400       0.66650400       0.00346400 </v>
    <v>       0.76591700       0.51860000       0.50195400 </v>
    <v>       0.76035000       0.82824700       0.50690700 </v>
    <v>       0.26026700       0.49323700       0.83438400 </v>
    <v>       0.25808500       0.16812600       0.16430300 </v>
    <v>       0.24503400       0.82998500       0.50937300 </v>
    <v>       0.74114900       0.16958600       0.17021400 </v>
    <v>       0.71089800       0.16198100       0.83753400 </v>
    <v>       0.26312000       0.83429000       0.83588400 </v>
    <v>       0.52390900       0.33625800       0.00497300 </v>
    <v>       0.73819100       0.51055300       0.83425300 </v>
    <v>       0.50548000       0.99182400       0.00145100 </v>
    <v>       0.27849900       0.16698200       0.83367100 </v>
    <v>       0.98694800       0.00355000       0.99807500 </v>
    <v>       0.98128000       0.32783600       0.67458700 </v>
    <v>       0.98116400       0.00515900       0.68741400 </v>
    <v>       0.01792300       0.66435100       0.31339600 </v>
    <v>       0.51737600       0.99775500       0.33147300 </v>
    <v>       0.51719700       0.33402000       0.64785300 </v>
    <v>       0.97638500       0.33118300       0.99602200 </v>
    <v>       0.73077500       0.82988300       0.83630500 </v>
   </varray>
  </structure>
  <varray name="forces" >
   <v>       0.02954207      -0.01822180      -0.01495807 </v>
   <v>      -0.00243890      -0.00302313      -0.01088999 </v>
   <v>       0.03271708       0.03778088       0.01676063 </v>
   <v>      -0.00062995       0.03835988      -0.02180188 </v>
   <v>      -0.01012539       0.03956661       0.00375468 </v>
   <v>      -0.23181808       0.37545487      -0.41884321 </v>
   <v>      -0.00481540       0.02584558       0.01752743 </v>
   <v>       0.00725676       0.03013550       0.01546042 </v>
   <v>      -0.29524815      -0.28210677       0.29561086 </v>
   <v>      -0.41043384      -0.42544107      -0.33020515 </v>
   <v>       0.01445781       0.05354217       0.01576494 </v>
   <v>       0.42421340      -0.35479596      -0.24257555 </v>
   <v>       0.00516937       0.00660851       0.00888196 </v>
   <v>      -0.01791768      -0.00528336       0.00255201 </v>
   <v>      -0.01066452      -0.02912372       0.02093726 </v>
   <v>       0.18343582      -0.16930371       0.16077592 </v>
   <v>      -0.01528107       0.05584776       0.01524807 </v>
   <v>      -0.02701732      -0.01276820      -0.03939271 </v>
   <v>       0.02068697       0.02757994      -0.04418813 </v>
   <v>      -0.00383896      -0.04493051      -0.01724672 </v>
   <v>      -0.00177169      -0.01400603       0.03997333 </v>
   <v>      -0.00235919       0.00303835      -0.00932053 </v>
   <v>       0.04528395      -0.01260208      -0.00965591 </v>
   <v>       0.10709583      -0.02680084      -0.02743665 </v>
   <v>      -0.03429244      -0.01020873       0.02823100 </v>
   <v>       0.00101195       0.07341445       0.00735905 </v>
   <v>      -0.26489906       0.20087778       0.36985897 </v>
   <v>      -0.02359220      -0.00280369       0.00050602 </v>
   <v>       0.21329671       0.21649956       0.23947517 </v>
   <v>       0.01528413       0.00883173      -0.02094809 </v>
   <v>       0.18485283       0.28671811      -0.20211544 </v>
   <v>       0.02659747      -0.02074347       0.00377878 </v>
   <v>      -0.00735476       0.02326430      -0.01406245 </v>
   <v>      -0.02342074       0.00217699       0.01742742 </v>
   <v>       0.03342713      -0.00272918       0.00705795 </v>
   <v>       0.04359007      -0.07065070       0.13669860 </v>
  </varray>
  <varray name="stress" >
   <v>       8.78925795       0.19176440       0.14153877 </v>
   <v>       0.19176433       6.67083674      -0.05870076 </v>
   <v>       0.14153878      -0.05870074       8.07321701 </v>
  </varray>
  <energy>
   <i name="e_fr_energy">   -365.89760121 </i>
   <i name="e_wo_entrp">   -365.90828932 </i>
   <i name="e_0_energy">      0.03206432 </i>
  </energy>
  <time name="totalsc">   21.35   22.44</time>
 </calculation>
 <calculation>
  <scstep>
   <time name="dav">    1.01    1.02</time>
   <time name="total">    1.14    1.22</time>
   <energy>
    <i name="alphaZ">   1461.03764179 </i>
    <i name="ewald"> -18421.18656884 </i>
    <i name="hartreedc">  -5494.01017024 </i>
    <i name="XCdc">   -485.62018793 </i>
    <i name="pawpsdc">  32901.84099830 </i>
    <i name="pawaedc"> -31186.50223753 </i>
    <i name="eentropy">      0.03186841 </i>
    <i name="bandstr">  -2280.58440100 </i>
    <i name="atom">  23139.02543807 </i>
    <i name="e_fr_energy">   -365.96761897 </i>
    <i name="e_wo_entrp">   -365.99948738 </i>
    <i name="e_0_energy">   -365.97824177 </i>
   </energy>
  </scstep>
  <scstep>
   <time name="diag">    0.08    0.08</time>
   <time name="diis">    0.69    0.71</time>
   <time name="orth">    0.01    0.01</time>
   <time name="total">    0.97    1.02</time>
   <energy>
    <i name="e_fr_energy">   -365.94700925 </i>
    <i name="e_wo_entrp">   -365.97958940 </i>
    <i name="e_0_energy">   -365.95786930 </i>
   </energy>
  </scstep>
  <scstep>
   <time name="diag">    0.09    0.09</time>
   <time name="diis">    0.77    0.77</time>
   <time name="orth">    0.01    0.01</time>
   <time name="total">    0.93    0.97</time>
   <energy>
    <i name="e_fr_energy">   -365.94157606 </i>
    <i name="e_wo_entrp">   -365.97363759 </i>
    <i name="e_0_energy">   -365.95226324 </i>
   </energy>
  </scstep>
  <scstep>
   <time name="diag">    0.08    0.08</time>
   <time name="diis">    0.79    0.79</time>
   <time name="orth">    0.01    0.05</time>
   <time name="total">    0.95    1.04</time>
   <energy>
    <i name="e_fr_energy">   -365.93678984 </i>
    <i name="e_wo_entrp">   -365.96897109 </i>
    <i name="e_0_energy">   -365.94751692 </i>
   </energy>
  </scstep>
  <scstep>
   <time name="diag">    0.08    0.12</time>
   <time name="diis">    0.77    0.77</time>
   <time name="orth">    0.01    0.01</time>
   <time name="total">    0.92    1.02</time>
   <energy>
    <i name="e_fr_energy">   -365.93614027 </i>
    <i name="e_wo_entrp">   -365.96829778 </i>
    <i name="e_0_energy">   -365.94685944 </i>
   </energy>
  </scstep>
  <scstep>
   <time name="diag">    0.12    0.12</time>
   <time name="diis">    0.84    0.85</time>
   <time name="orth">    0.01    0.01</time>
   <time name="total">    1.04    1.07</time>
   <energy>
    <i name="e_fr_energy">   -365.93615922 </i>
    <i name="e_wo_entrp">   -365.96836832 </i>
    <i name="e_0_energy">   -365.94689558 </i>
   </energy>
  </scstep>
  <scstep>
   <time name="diag">    0.07    0.07</time>
   <time name="diis">    0.75    0.75</time>
   <time name="orth">    0.01    0.01</time>
   <time name="total">    0.92    0.96</time>
   <energy>
    <i name="e_fr_energy">   -365.93615846 </i>
    <i name="e_wo_entrp">   -365.96826811 </i>
    <i name="e_0_energy">   -365.94686168 </i>
   </energy>
  </scstep>
  <scstep>
   <time name="diag">    0.12    0.12</time>
   <time name="diis">    0.70    0.70</time>
   <time name="orth">    0.01    0.01</time>
   <time name="total">    0.90    0.92</time>
   <energy>
    <i name="e_fr_energy">   -365.93618597 </i>
    <i name="e_wo_entrp">   -365.96835563 </i>
    <i name="e_0_energy">   -365.94690919 </i>
   </energy>
  </scstep>
  <scstep>
   <time name="diag">    0.11    0.12</time>
   <time name="diis">    0.66    0.66</time>
   <time name="orth">    0.01    0.01</time>
   <time name="total">    0.91    0.95</time>
   <energy>
    <i name="e_fr_energy">   -365.93620112 </i>
    <i name="e_wo_entrp">   -365.96833836 </i>
    <i name="e_0_energy">   -365.94691354 </i>
   </energy>
  </scstep>
  <scstep>
   <time name="diag">    0.12    0.12</time>
   <time name="diis">    0.44    0.51</time>
   <time name="orth">    0.01    0.01</time>
   <time name="total">    0.60    0.71</time>
   <energy>
    <i name="alphaZ">   1461.03764179 </i>
    <i name="ewald"> -18421.18656884 </i>
    <i name="hartreedc">  -5509.59650023 </i>
    <i name="XCdc">   -484.96415848 </i>
    <i name="pawpsdc">  32708.08442463 </i>
    <i name="pawaedc"> -30992.78970395 </i>
    <i name="eentropy">      0.03214758 </i>
    <i name="bandstr">  -2265.57892568 </i>
    <i name="atom">  23139.02543807 </i>
    <i name="e_fr_energy">   -365.93620511 </i>
    <i name="e_wo_entrp">   -365.96835268 </i>
    <i name="e_0_energy">   -365.94692097 </i>
   </energy>
  </scstep>
  <structure>
   <crystal>
    <varray name="basis" >
     <v>       6.95123626       0.01182829      -0.01984449 </v>
     <v>       0.01774156      10.20424324       0.01399961 </v>
     <v>      -0.02969011       0.01394439      10.22660497 </v>
    </varray>
    <i name="volume">    725.38509893 </i>
    <varray name="rec_basis" >
     <v>       0.14386092      -0.00025070       0.00041800 </v>
     <v>      -0.00016714       0.09799892      -0.00013411 </v>
     <v>       0.00027939      -0.00013464       0.09778516 </v>
    </varray>
   </crystal>
   <varray name="positions" >
    <v>       0.50872058       0.33478308       0.33766996 </v>
    <v>       0.73896286       0.83341773       0.15610156 </v>
    <v>       0.97958920       0.99456454       0.31396781 </v>
    <v>       0.27728342       0.48180352       0.15456402 </v>
    <v>       0.25952077       0.84729520       0.15653420 </v>
    <v>       0.51298467       0.99813753       0.66617369 </v>
    <v>       0.72858197       0.49769568       0.16553777 </v>
    <v>       0.76543012       0.15782975       0.48892488 </v>
    <v>       0.50063910       0.66846452       0.00275932 </v>
    <v>       0.49931358       0.66728648       0.67856716 </v>
    <v>       0.24499706       0.51205697       0.51535330 </v>
    <v>       0.00226643       0.67020065       0.69007263 </v>
    <v>       0.00027181       0.34279735       0.32750760 </v>
    <v>       0.48350167       0.66466553       0.32471155 </v>
    <v>       0.23643599       0.15837363       0.49715369 </v>
    <v>       0.00093812       0.66626283       0.00369295 </v>
    <v>       0.76588503       0.51867931       0.50197544 </v>
    <v>       0.76029346       0.82822901       0.50685108 </v>
    <v>       0.26030977       0.49327620       0.83432140 </v>
    <v>       0.25807705       0.16806224       0.16427863 </v>
    <v>       0.24503060       0.82996504       0.50942967 </v>
    <v>       0.74114401       0.16959034       0.17020077 </v>
    <v>       0.71099242       0.16196302       0.83752052 </v>
    <v>       0.26334326       0.83425174       0.83584560 </v>
    <v>       0.52383770       0.33624353       0.00501289 </v>
    <v>       0.73819289       0.51065723       0.83426329 </v>
    <v>       0.50492913       0.99210916       0.00197372 </v>
    <v>       0.27844981       0.16697807       0.83367163 </v>
    <v>       0.98739350       0.00385646       0.99841485 </v>
    <v>       0.98131171       0.32784855       0.67455736 </v>
    <v>       0.98154723       0.00556611       0.68712773 </v>
    <v>       0.01797856       0.66432147       0.31340151 </v>
    <v>       0.51736049       0.99778808       0.33145299 </v>
    <v>       0.51714826       0.33402311       0.64787760 </v>
    <v>       0.97645476       0.33117903       0.99603215 </v>
    <v>       0.73086699       0.82978230       0.83649906 </v>
   </varray>
  </structure>
  <varray name="forces" >
   <v>       0.03898478      -0.01379155      -0.03173233 </v>
   <v>      -0.01015381       0.00661995      -0.02526532 </v>
   <v>       0.00800308       0.02945411       0.01066761 </v>
   <v>       0.01465070       0.01838657      -0.01743134 </v>
   <v>      -0.00884605       0.03748138       0.01357032 </v>
   <v>      -0.17722481       0.33460375      -0.35666893 </v>
   <v>      -0.01975180       0.00962348       0.01608854 </v>
   <v>       0.00047387       0.02988078       0.00342044 </v>
   <v>      -0.24638744      -0.23636021       0.26273600 </v>
   <v>      -0.36716048      -0.38333989      -0.28603816 </v>
   <v>       0.01384166       0.04721237       0.01926916 </v>
   <v>       0.38359743      -0.31301513      -0.20870227 </v>
   <v>      -0.00061500       0.01211858       0.00223411 </v>
   <v>      -0.01253421      -0.00057862      -0.00531838 </v>
   <v>      -0.01127054      -0.02204006       0.00851016 </v>
   <v>       0.15690105      -0.14435545       0.14469779 </v>
   <v>      -0.01492828       0.05464568       0.01705043 </v>
   <v>      -0.02208572      -0.00755484      -0.02490979 </v>
   <v>       0.02532010       0.01293657      -0.03525398 </v>
   <v>       0.00247588      -0.02894926      -0.00402392 </v>
   <v>      -0.00493531      -0.01532776       0.03304199 </v>
   <v>      -0.00863873       0.00839019       0.00139498 </v>
   <v>       0.02215308      -0.02409052      -0.00753964 </v>
   <v>       0.10492750      -0.03617307      -0.03626971 </v>
   <v>      -0.01056009      -0.00223357       0.02484281 </v>
   <v>      -0.00829094       0.08077033       0.00480751 </v>
   <v>      -0.22082870       0.15729840       0.31731429 </v>
   <v>      -0.00171748       0.00405610       0.00600513 </v>
   <v>       0.17846484       0.18043990       0.20419550 </v>
   <v>       0.00586781       0.01618212      -0.01275026 </v>
   <v>       0.14744177       0.25237632      -0.16106018 </v>
   <v>       0.02253813      -0.01644022       0.00254448 </v>
   <v>       0.00535227       0.01821413      -0.01568737 </v>
   <v>      -0.01206787       0.00505457       0.01908699 </v>
   <v>       0.01534607       0.00008994       0.00506562 </v>
   <v>       0.01165724      -0.07158503       0.11210776 </v>
  </varray>
  <varray name="stress" >
   <v>       2.65725938       0.12732900       0.14914267 </v>
   <v>       0.12732903       0.74698512      -0.10507344 </v>
   <v>       0.14914268      -0.10507337       2.01782438 </v>
  </varray>
  <energy>
   <i name="e_fr_energy">   -365.93620511 </i>
   <i name="e_wo_entrp">   -365.94692097 </i>
   <i name="e_0_energy">      0.03214758 </i>
  </energy>
  <time name="totalsc">   10.86   11.54</time>
 </calculation>
 <calculation>
  <scstep>
   <time name="dav">    0.95    0.97</time>
   <time name="total">    1.07    1.24</time>
   <energy>
    <i name="alphaZ">   1445.48422849 </i>
    <i name="ewald"> -18356.70793783 </i>
    <i name="hartreedc">  -5488.87767195 </i>
    <i name="XCdc">   -487.77180693 </i>
    <i name="pawpsdc">  32707.68060606 </i>
    <i name="pawaedc"> -30992.50161231 </i>
    <i name="eentropy">      0.03146376 </i>
    <i name="bandstr">  -2332.52450248 </i>
    <i name="atom">  23139.02543807 </i>
    <i name="e_fr_energy">   -366.16179512 </i>
    <i name="e_wo_entrp">   -366.19325887 </i>
    <i name="e_0_energy">   -366.17228303 </i>
   </energy>
  </scstep>
  <scstep>
   <time name="diag">    0.07    0.07</time>
   <time name="diis">    0.70    0.71</time>
   <time name="orth">    0.01    0.01</time>
   <time name="total">    0.86    0.88</time>
   <energy>
    <i name="e_fr_energy">   -366.03286324 </i>
    <i name="e_wo_entrp">   -366.06555208 </i>
    <i name="e_0_energy">   -366.04375952 </i>
   </energy>
  </scstep>
  <scstep>
   <time name="diag">    0.07    0.07</time>
   <time name="diis">    0.80    0.86</time>
   <time name="orth">    0.01    0.01</time>
   <time name="total">    0.95    1.02</time>
   <energy>
    <i name="e_fr_energy">   -365.99711133 </i>
    <i name="e_wo_entrp">   -366.02895076 </i>
    <i name="e_0_energy">   -366.00772448 </i>
   </energy>
  </scstep>
  <scstep>
   <time name="diag">    0.07    0.07</time>
   <time name="diis">    0.92    0.92</time>
   <time name="orth">    0.01    0.01</time>
   <time name="total">    1.07    1.09</time>
   <energy>
    <i name="e_fr_energy">   -365.96636522 </i>
    <i name="e_wo_entrp">   -365.99818274 </i>
    <i name="e_0_energy">   -365.97697106 </i>
   </energy>
  </scstep>
  <scstep>
   <time name="diag">    0.08    0.08</time>
   <time name="diis">    0.79    0.82</time>
   <time name="orth">    0.03    0.03</time>
   <time name="total">    0.97    1.01</time>
   <energy>
    <i name="e_fr_energy">   -365.96199466 </i>
    <i name="e_wo_entrp">   -365.99393756 </i>
    <i name="e_0_energy">   -365.97264230 </i>
   </energy>
  </scstep>
  <scstep>
   <time name="diag">    0.07    0.07</time>
   <time name="diis">    0.90    0.90</time>
   <time name="orth">    0.01    0.01</time>
   <time name="total">    1.04    1.07</time>
   <energy>
    <i name="e_fr_energy">   -365.96231096 </i>
    <i name="e_wo_entrp">   -365.99436078 </i>
    <i name="e_0_energy">   -365.97299423 </i>
   </energy>
  </scstep>
  <scstep>
   <time name="diag">    0.07    0.07</time>
   <time name="diis">    0.80    0.81</time>
   <time name="orth">    0.01    0.01</time>
   <time name="total">    0.98    1.00</time>
   <energy>
    <i name="e_fr_energy">   -365.96246391 </i>
    <i name="e_wo_entrp">   -365.99427255 </i>
    <i name="e_0_energy">   -365.97306679 </i>
   </energy>
  </scstep>
  <scstep>
   <time name="diag">    0.09    0.09</time>
   <time name="diis">    0.80    0.80</time>
   <time name="orth">    0.01    0.01</time>
   <time name="total">    0.96    0.98</time>
   <energy>
    <i name="e_fr_energy">   -365.96272657 </i>
    <i name="e_wo_entrp">   -365.99468366 </i>
    <i name="e_0_energy">   -365.97337893 </i>
   </energy>
  </scstep>
  <scstep>
   <time name="diag">    0.07    0.07</time>
   <time name="diis">    0.84    0.84</time>
   <time name="orth">    0.01    0.01</time>
   <time name="total">    1.00    1.02</time>
   <energy>
    <i name="e_fr_energy">   -365.96285705 </i>
    <i name="e_wo_entrp">   -365.99473608 </i>
    <i name="e_0_energy">   -365.97348339 </i>
   </energy>
  </scstep>
  <scstep>
   <time name="diag">    0.10    0.10</time>
   <time name="diis">    0.67    0.67</time>
   <time name="orth">    0.01    0.01</time>
   <time name="total">    0.84    0.86</time>
   <energy>
    <i name="e_fr_energy">   -365.96292354 </i>
    <i name="e_wo_entrp">   -365.99482248 </i>
    <i name="e_0_energy">   -365.97355652 </i>
   </energy>
  </scstep>
  <scstep>
   <time name="diag">    0.08    0.08</time>
   <time name="diis">    0.64    0.65</time>
   <time name="orth">    0.01    0.01</time>
   <time name="total">    0.80    0.82</time>
   <energy>
    <i name="e_fr_energy">   -365.96295008 </i>
    <i name="e_wo_entrp">   -365.99485276 </i>
    <i name="e_0_energy">   -365.97358431 </i>
   </energy>
  </scstep>
  <scstep>
   <time name="diag">    0.07    0.08</time>
   <time name="diis">    0.58    0.59</time>
   <time name="orth">    0.01    0.01</time>
   <time name="total">    0.74    0.76</time>
   <energy>
    <i name="e_fr_energy">   -365.96295428 </i>
    <i name="e_wo_entrp">   -365.99483365 </i>
    <i name="e_0_energy">   -365.97358074 </i>
   </energy>
  </scstep>
  <scstep>
   <time name="diag">    0.08    0.08</time>
   <time name="diis">    0.48    0.48</time>
   <time name="orth">    0.01    0.01</time>
   <time name="total">    0.61    0.64</time>
   <energy>
    <i name="alphaZ">   1445.48422849 </i>
    <i name="ewald"> -18356.70793783 </i>
    <i name="hartreedc">  -5527.23134172 </i>
    <i name="XCdc">   -486.15734979 </i>
    <i name="pawpsdc">  32229.97452962 </i>
    <i name="pawaedc"> -30515.67566726 </i>
    <i name="eentropy">      0.03188578 </i>
    <i name="bandstr">  -2294.70674035 </i>
    <i name="atom">  23139.02543807 </i>
    <i name="e_fr_energy">   -365.96295497 </i>
    <i name="e_wo_entrp">   -365.99484075 </i>
    <i name="e_0_energy">   -365.97358356 </i>
   </energy>
  </scstep>
  <structure>
   <crystal>
    <varray name="basis" >
     <v>       6.97906747       0.01247128      -0.01947026 </v>
     <v>       0.01870382      10.23526496       0.01377965 </v>
     <v>      -0.02914935       0.01371100      10.26421728 </v>
    </varray>
    <i name="volume">    733.19024410 </i>
    <varray name="rec_basis" >
     <v>       0.14328722      -0.00026239       0.00040727 </v>
     <v>      -0.00017495       0.09770192      -0.00013101 </v>
     <v>       0.00027204      -0.00013166       0.09742679 </v>
    </varray>
   </crystal>
   <varray name="positions" >
    <v>       0.50887536       0.33471792       0.33761706 </v>
    <v>       0.73894994       0.83340701       0.15606275 </v>
    <v>       0.97976059       0.99469916       0.31402768 </v>
    <v>       0.27727943       0.48194059       0.15448615 </v>
    <v>       0.25946739       0.84743652       0.15654728 </v>
    <v>       0.51175980       0.99948155       0.66467727 </v>
    <v>       0.72855676       0.49778790       0.16560004 </v>
    <v>       0.76546812       0.15793723       0.48897989 </v>
    <v>       0.49909865       0.66745761       0.00381087 </v>
    <v>       0.49716117       0.66577155       0.67738864 </v>
    <v>       0.24507259       0.51224797       0.51540935 </v>
    <v>       0.00448947       0.66893245       0.68921446 </v>
    <v>       0.00029898       0.34282088       0.32753926 </v>
    <v>       0.48340784       0.66464677       0.32472049 </v>
    <v>       0.23638068       0.15826960       0.49722832 </v>
    <v>       0.00190359       0.66565643       0.00426845 </v>
    <v>       0.76580465       0.51887874       0.50202933 </v>
    <v>       0.76015137       0.82818378       0.50671053 </v>
    <v>       0.26041728       0.49337477       0.83416405 </v>
    <v>       0.25805707       0.16790192       0.16421737 </v>
    <v>       0.24502205       0.82991484       0.50957214 </v>
    <v>       0.74113148       0.16960125       0.17016753 </v>
    <v>       0.71122974       0.16191779       0.83748665 </v>
    <v>       0.26390443       0.83415553       0.83574908 </v>
    <v>       0.52365848       0.33620715       0.00511317 </v>
    <v>       0.73819764       0.51091932       0.83428916 </v>
    <v>       0.50354447       0.99282620       0.00328774 </v>
    <v>       0.27832619       0.16696820       0.83367320 </v>
    <v>       0.98851315       0.00462701       0.99926915 </v>
    <v>       0.98139143       0.32788009       0.67448284 </v>
    <v>       0.98251043       0.00658970       0.68640813 </v>
    <v>       0.01811822       0.66424723       0.31341534 </v>
    <v>       0.51732152       0.99787126       0.33140270 </v>
    <v>       0.51702574       0.33403094       0.64793944 </v>
    <v>       0.97663010       0.33116905       0.99605764 </v>
    <v>       0.73109819       0.82952911       0.83698687 </v>
   </varray>
  </structure>
  <varray name="forces" >
   <v>       0.06159563      -0.00310433      -0.07499893 </v>
   <v>      -0.02894998       0.03095270      -0.05865165 </v>
   <v>      -0.05305131       0.01190267      -0.00389891 </v>
   <v>       0.05358556      -0.03138405      -0.00609218 </v>
   <v>      -0.00409540       0.03301553       0.03476919 </v>
   <v>      -0.04872453       0.23949725      -0.21012072 </v>
   <v>      -0.05845530      -0.03029467       0.01165527 </v>
   <v>      -0.01750131       0.02850400      -0.02441457 </v>
   <v>      -0.12830797      -0.12723573       0.18549834 </v>
   <v>      -0.26815293      -0.28683252      -0.18363966 </v>
   <v>       0.01185760       0.02930918       0.02586044 </v>
   <v>       0.28923832      -0.21702008      -0.13130986 </v>
   <v>      -0.01487109       0.02339237      -0.01376685 </v>
   <v>       0.00284947       0.00991623      -0.02420837 </v>
   <v>      -0.01367879      -0.00479589      -0.02435869 </v>
   <v>       0.09151060      -0.08398747       0.10522014 </v>
   <v>      -0.01280254       0.05432216       0.02243278 </v>
   <v>      -0.00936510       0.00625920       0.00680433 </v>
   <v>       0.03761877      -0.02036673      -0.01113382 </v>
   <v>       0.01978267       0.01183703       0.02907059 </v>
   <v>      -0.01228600      -0.01724296       0.01608198 </v>
   <v>      -0.02483314       0.02100647       0.02585304 </v>
   <v>      -0.03430802      -0.05037602       0.00046223 </v>
   <v>       0.10121475      -0.05985368      -0.05461718 </v>
   <v>       0.04663499       0.01695868       0.01481164 </v>
   <v>      -0.02953122       0.09850343       0.00185840 </v>
   <v>      -0.11754573       0.05359566       0.19372272 </v>
   <v>       0.05251503       0.01899739       0.01904048 </v>
   <v>       0.09163194       0.09273747       0.11999185 </v>
   <v>      -0.01728805       0.03341659       0.00567488 </v>
   <v>       0.05889503       0.17365906      -0.06369846 </v>
   <v>       0.01126414      -0.00683383      -0.00022746 </v>
   <v>       0.03907446       0.00683845      -0.01944234 </v>
   <v>       0.01617267       0.01074383       0.02568358 </v>
   <v>      -0.02877164       0.00548423       0.00107375 </v>
   <v>      -0.06292158      -0.07152163       0.05901399 </v>
  </varray>
  <varray name="stress" >
   <v>     -12.76565149      -0.03801935       0.17029600 </v>
   <v>      -0.03801933     -14.16443145      -0.23830491 </v>
   <v>       0.17029598      -0.23830493     -13.20370646 </v>
  </varray>
  <energy>
   <i name="e_fr_energy">   -365.96295497 </i>
   <i name="e_wo_entrp">   -365.97358356 </i>
   <i name="e_0_energy">      0.03188578 </i>
  </energy>
  <time name="totalsc">   13.49   14.21</time>
 </calculation>
 <calculation>
  <scstep>
   <time name="dav">    1.01    1.01</time>
   <time name="total">    1.13    1.21</time>
   <energy>
    <i name="alphaZ">   1448.94328161 </i>
    <i name="ewald"> -18371.13334865 </i>
    <i name="hartreedc">  -5531.80950760 </i>
    <i name="XCdc">   -485.53132948 </i>
    <i name="pawpsdc">  32229.29382777 </i>
    <i name="pawaedc"> -30515.01865256 </i>
    <i name="eentropy">      0.03199806 </i>
    <i name="bandstr">  -2279.77730770 </i>
    <i name="atom">  23139.02543807 </i>
    <i name="e_fr_energy">   -365.97560048 </i>
    <i name="e_wo_entrp">   -366.00759853 </i>
    <i name="e_0_energy">   -365.98626650 </i>
   </energy>
  </scstep>
  <scstep>
   <time name="diag">    0.08    0.08</time>
   <time name="diis">    0.77    0.78</time>
   <time name="orth">    0.01    0.01</time>
   <time name="total">    0.95    1.01</time>
   <energy>
    <i name="e_fr_energy">   -365.96888235 </i>
    <i name="e_wo_entrp">   -366.00059890 </i>
    <i name="e_0_energy">   -365.97945453 </i>
   </energy>
  </scstep>
  <scstep>
   <time name="diag">    0.07    0.07</time>
   <time name="diis">    0.76    0.82</time>
   <time name="orth">    0.01    0.01</time>
   <time name="total">    0.91    1.01</time>
   <energy>
    <i name="e_fr_energy">   -365.96715991 </i>
    <i name="e_wo_entrp">   -365.99909660 </i>
    <i name="e_0_energy">   -365.97780547 </i>
   </energy>
  </scstep>
  <scstep>
   <time name="diag">    0.08    0.08</time>
   <time name="diis">    0.76    0.79</time>
   <time name="orth">    0.01    0.01</time>
   <time name="total">    0.91    1.01</time>
   <energy>
    <i name="e_fr_energy">   -365.96563648 </i>
    <i name="e_wo_entrp">   -365.99763300 </i>
    <i name="e_0_energy">   -365.97630198 </i>
   </energy>
  </scstep>
  <scstep>
   <time name="diag">    0.07    0.07</time>
   <time name="diis">    0.76    0.76</time>
   <time name="orth">    0.01    0.01</time>
   <time name="total">    0.91    0.94</time>
   <energy>
    <i name="e_fr_energy">   -365.96544587 </i>
    <i name="e_wo_entrp">   -365.99742909 </i>
    <i name="e_0_energy">   -365.97610695 </i>
   </energy>
  </scstep>
  <scstep>
   <time name="diag">    0.07    0.08</time>
   <time name="diis">    0.74    0.75</time>
   <time name="orth">    0.01    0.01</time>
   <time name="total">    0.89    0.92</time>
   <energy>
    <i name="e_fr_energy">   -365.96548549 </i>
    <i name="e_wo_entrp">   -365.99744808 </i>
    <i name="e_0_energy">   -365.97613969 </i>
   </energy>
  </scstep>
  <scstep>
   <time name="diag">    0.07    0.07</time>
   <time name="diis">    0.67    0.68</time>
   <time name="orth">    0.01    0.01</time>
   <time name="total">    0.82    0.84</time>
   <energy>
    <i name="e_fr_energy">   -365.96551555 </i>
    <i name="e_wo_entrp">   -365.99753280 </i>
    <i name="e_0_energy">   -365.97618796 </i>
   </energy>
  </scstep>
  <scstep>
   <time name="diag">    0.07    0.07</time>
   <time name="diis">    0.53    0.54</time>
   <time name="orth">    0.01    0.01</time>
   <time name="total">    0.69    0.71</time>
   <energy>
    <i name="e_fr_energy">   -365.96553995 </i>
    <i name="e_wo_entrp">   -365.99752497 </i>
    <i name="e_0_energy">   -365.97620162 </i>
   </energy>
  </scstep>
  <scstep>
   <time name="diag">    0.09    0.09</time>
   <time name="diis">    0.43    0.44</time>
   <time name="orth">    0.01    0.01</time>
   <time name="total">    0.60    0.62</time>
   <energy>
    <i name="e_fr_energy">   -365.96555334 </i>
    <i name="e_wo_entrp">   -365.99755352 </i>
    <i name="e_0_energy">   -365.97622006 </i>
   </energy>
  </scstep>
  <scstep>
   <time name="diag">    0.08    0.09</time>
   <time name="diis">    0.33    0.48</time>
   <time name="orth">    0.01    0.01</time>
   <time name="total">    0.48    0.68</time>
   <energy>
    <i name="e_fr_energy">   -365.96556431 </i>
    <i name="e_wo_entrp">   -365.99756114 </i>
    <i name="e_0_energy">   -365.97622992 </i>
   </energy>
  </scstep>
  <scstep>
   <time name="diag">    0.07    0.07</time>
   <time name="diis">    0.35    0.36</time>
   <time name="orth">    0.01    0.01</time>
   <time name="total">    0.47    0.49</time>
   <energy>
    <i name="alphaZ">   1448.94328161 </i>
    <i name="ewald"> -18371.13334865 </i>
    <i name="hartreedc">  -5522.99787955 </i>
    <i name="XCdc">   -485.90176972 </i>
    <i name="pawpsdc">  32331.88436493 </i>
    <i name="pawaedc"> -30617.62044221 </i>
    <i name="eentropy">      0.03199618 </i>
    <i name="bandstr">  -2288.19721126 </i>
    <i name="atom">  23139.02543807 </i>
    <i name="e_fr_energy">   -365.96557060 </i>
    <i name="e_wo_entrp">   -365.99756678 </i>
    <i name="e_0_energy">   -365.97623599 </i>
   </energy>
  </scstep>
  <structure>
   <crystal>
    <varray name="basis" >
     <v>       6.97284333       0.01232748      -0.01955395 </v>
     <v>       0.01848862      10.22832729       0.01382885 </v>
     <v>      -0.02927029       0.01376320      10.25580569 </v>
    </varray>
    <i name="volume">    731.43990368 </i>
    <varray name="rec_basis" >
     <v>       0.14341513      -0.00025979       0.00040966 </v>
     <v>      -0.00017322       0.09776819      -0.00013170 </v>
     <v>       0.00027367      -0.00013233       0.09750671 </v>
    </varray>
   </crystal>
   <varray name="positions" >
    <v>       0.50884088       0.33473245       0.33762884 </v>
    <v>       0.73895281       0.83340940       0.15607140 </v>
    <v>       0.97972242       0.99466914       0.31401434 </v>
    <v>       0.27728032       0.48191003       0.15450350 </v>
    <v>       0.25947928       0.84740501       0.15654437 </v>
    <v>       0.51203265       0.99918188       0.66501068 </v>
    <v>       0.72856238       0.49776734       0.16558616 </v>
    <v>       0.76545966       0.15791326       0.48896763 </v>
    <v>       0.49944178       0.66768209       0.00357656 </v>
    <v>       0.49764055       0.66610930       0.67765123 </v>
    <v>       0.24505577       0.51220539       0.51539686 </v>
    <v>       0.00399424       0.66921524       0.68940571 </v>
    <v>       0.00029293       0.34281563       0.32753221 </v>
    <v>       0.48342874       0.66465095       0.32471850 </v>
    <v>       0.23639300       0.15829280       0.49721169 </v>
    <v>       0.00168852       0.66579164       0.00414023 </v>
    <v>       0.76582256       0.51883427       0.50201732 </v>
    <v>       0.76018302       0.82819386       0.50674184 </v>
    <v>       0.26039333       0.49335279       0.83419911 </v>
    <v>       0.25806152       0.16793767       0.16423102 </v>
    <v>       0.24502396       0.82992603       0.50954040 </v>
    <v>       0.74113427       0.16959881       0.17017494 </v>
    <v>       0.71117688       0.16192788       0.83749420 </v>
    <v>       0.26377943       0.83417699       0.83577059 </v>
    <v>       0.52369840       0.33621526       0.00509083 </v>
    <v>       0.73819659       0.51086088       0.83428339 </v>
    <v>       0.50385295       0.99266630       0.00299494 </v>
    <v>       0.27835373       0.16697040       0.83367285 </v>
    <v>       0.98826379       0.00445521       0.99907880 </v>
    <v>       0.98137367       0.32787306       0.67449944 </v>
    <v>       0.98229590       0.00636149       0.68656847 </v>
    <v>       0.01808711       0.66426378       0.31341226 </v>
    <v>       0.51733020       0.99785271       0.33141391 </v>
    <v>       0.51705304       0.33402920       0.64792566 </v>
    <v>       0.97659104       0.33117128       0.99605196 </v>
    <v>       0.73104669       0.82958556       0.83687818 </v>
   </varray>
  </structure>
  <varray name="forces" >
   <v>       0.05693480      -0.00551200      -0.06534794 </v>
   <v>      -0.02495822       0.02552962      -0.05199947 </v>
   <v>      -0.03970522       0.01585105      -0.00051233 </v>
   <v>       0.04488179      -0.02015147      -0.00896577 </v>
   <v>      -0.00499964       0.03412947       0.02977057 </v>
   <v>      -0.07672111       0.26064602      -0.24233546 </v>
   <v>      -0.04970507      -0.02103530       0.01259221 </v>
   <v>      -0.01360127       0.02880204      -0.01808761 </v>
   <v>      -0.15452921      -0.15160712       0.20265022 </v>
   <v>      -0.28997700      -0.30834584      -0.20657350 </v>
   <v>       0.01243923       0.03368351       0.02488084 </v>
   <v>       0.31031402      -0.23839501      -0.14873218 </v>
   <v>      -0.01183745       0.02097740      -0.01018033 </v>
   <v>      -0.00039192       0.00759197      -0.02032506 </v>
   <v>      -0.01312445      -0.00842724      -0.01731122 </v>
   <v>       0.10576509      -0.09714583       0.11418439 </v>
   <v>      -0.01320136       0.05429006       0.02121458 </v>
   <v>      -0.01221290       0.00276258       0.00093062 </v>
   <v>       0.03507625      -0.01291776      -0.01650336 </v>
   <v>       0.01595158       0.00291266       0.02162776 </v>
   <v>      -0.01070060      -0.01684968       0.02000829 </v>
   <v>      -0.02150798       0.01796465       0.01995586 </v>
   <v>      -0.02229751      -0.04594295      -0.00079697 </v>
   <v>       0.10381571      -0.05485589      -0.05081387 </v>
   <v>       0.03375039       0.01221324       0.01704289 </v>
   <v>      -0.02517616       0.09590140       0.00243508 </v>
   <v>      -0.14061262       0.07704068       0.22146373 </v>
   <v>       0.04050782       0.01547465       0.01592030 </v>
   <v>       0.11070743       0.11229628       0.13882585 </v>
   <v>      -0.01226481       0.02988862       0.00160314 </v>
   <v>       0.07813758       0.19063049      -0.08529134 </v>
   <v>       0.01343384      -0.00888969       0.00051510 </v>
   <v>       0.03169759       0.00916516      -0.01855197 </v>
   <v>       0.00986302       0.00969195       0.02442739 </v>
   <v>      -0.01860680       0.00458666       0.00171321 </v>
   <v>      -0.04714483      -0.07195436       0.07056635 </v>
  </varray>
  <varray name="stress" >
   <v>      -9.57506641      -0.00465167       0.16550797 </v>
   <v>      -0.00465170     -11.08463873      -0.20598691 </v>
   <v>       0.16550795      -0.20598691     -10.05952939 </v>
  </varray>
  <energy>
   <i name="e_fr_energy">   -365.96557060 </i>
   <i name="e_wo_entrp">   -365.97623599 </i>
   <i name="e_0_energy">      0.03199618 </i>
  </energy>
  <time name="totalsc">   10.42   11.17</time>
 </calculation>
 <calculation>
  <scstep>
   <time name="dav">    0.98    0.99</time>
   <time name="total">    1.10    1.21</time>
   <energy>
    <i name="alphaZ">   1451.51048225 </i>
    <i name="ewald"> -18381.90171488 </i>
    <i name="hartreedc">  -5526.38470217 </i>
    <i name="XCdc">   -485.43117478 </i>
    <i name="pawpsdc">  32331.96732102 </i>
    <i name="pawaedc"> -30617.66893191 </i>
    <i name="eentropy">      0.03150333 </i>
    <i name="bandstr">  -2277.14773594 </i>
    <i name="atom">  23139.02543807 </i>
    <i name="e_fr_energy">   -365.99951502 </i>
    <i name="e_wo_entrp">   -366.03101835 </i>
    <i name="e_0_energy">   -366.01001613 </i>
   </energy>
  </scstep>
  <scstep>
   <time name="diag">    0.20    0.20</time>
   <time name="diis">    0.77    0.81</time>
   <time name="orth">    0.01    0.01</time>
   <time name="total">    1.05    1.12</time>
   <energy>
    <i name="e_fr_energy">   -366.00099516 </i>
    <i name="e_wo_entrp">   -366.03321323 </i>
    <i name="e_0_energy">   -366.01173452 </i>
   </energy>
  </scstep>
  <scstep>
   <time name="diag">    0.12    0.12</time>
   <time name="diis">    0.74    0.75</time>
   <time name="orth">    0.01    0.01</time>
   <time name="total">    0.94    1.09</time>
   <energy>
    <i name="e_fr_energy">   -365.99777653 </i>
    <i name="e_wo_entrp">   -366.02949389 </i>
    <i name="e_0_energy">   -366.00834898 </i>
   </energy>
  </scstep>
  <scstep>
   <time name="diag">    0.07    0.07</time>
   <time name="diis">    0.76    0.77</time>
   <time name="orth">    0.01    0.01</time>
   <time name="total">    0.90    0.94</time>
   <energy>
    <i name="e_fr_energy">   -365.99653521 </i>
    <i name="e_wo_entrp">   -366.02842828 </i>
    <i name="e_0_energy">   -366.00716623 </i>
   </energy>
  </scstep>
  <scstep>
   <time name="diag">    0.07    0.08</time>
   <time name="diis">    0.77    0.78</time>
   <time name="orth">    0.01    0.01</time>
   <time name="total">    0.92    0.95</time>
   <energy>
    <i name="e_fr_energy">   -365.99628896 </i>
    <i name="e_wo_entrp">   -366.02828890 </i>
    <i name="e_0_energy">   -366.00695561 </i>
   </energy>
  </scstep>
  <scstep>
   <time name="diag">    0.07    0.07</time>
   <time name="diis">    0.78    0.81</time>
   <time name="orth">    0.01    0.01</time>
   <time name="total">    0.93    0.98</time>
   <energy>
    <i name="e_fr_energy">   -365.99629634 </i>
    <i name="e_wo_entrp">   -366.02823780 </i>
    <i name="e_0_energy">   -366.00694349 </i>
   </energy>
  </scstep>
  <scstep>
   <time name="diag">    0.07    0.07</time>
   <time name="diis">    0.68    0.69</time>
   <time name="orth">    0.01    0.01</time>
   <time name="total">    0.83    0.85</time>
   <energy>
    <i name="e_fr_energy">   -365.99631780 </i>
    <i name="e_wo_entrp">   -366.02827351 </i>
    <i name="e_0_energy">   -366.00696971 </i>
   </energy>
  </scstep>
  <scstep>
   <time name="diag">    0.07    0.15</time>
   <time name="diis">    0.53    0.63</time>
   <time name="orth">    0.01    0.01</time>
   <time name="total">    0.68    0.89</time>
   <energy>
    <i name="e_fr_energy">   -365.99633468 </i>
    <i name="e_wo_entrp">   -366.02831258 </i>
    <i name="e_0_energy">   -366.00699398 </i>
   </energy>
  </scstep>
  <scstep>
   <time name="diag">    0.07    0.08</time>
   <time name="diis">    0.60    0.61</time>
   <time name="orth">    0.01    0.01</time>
   <time name="total">    0.78    0.80</time>
   <energy>
    <i name="e_fr_energy">   -365.99634618 </i>
    <i name="e_wo_entrp">   -366.02830233 </i>
    <i name="e_0_energy">   -366.00699823 </i>
   </energy>
  </scstep>
  <scstep>
   <time name="diag">    0.07    0.07</time>
   <time name="diis">    0.38    0.39</time>
   <time name="orth">    0.01    0.01</time>
   <time name="total">    0.50    0.52</time>
   <energy>
    <i name="alphaZ">   1451.51048225 </i>
    <i name="ewald"> -18381.90171488 </i>
    <i name="hartreedc">  -5520.09660965 </i>
    <i name="XCdc">   -485.69124143 </i>
    <i name="pawpsdc">  32414.82509653 </i>
    <i name="pawaedc"> -30700.42738622 </i>
    <i name="eentropy">      0.03196089 </i>
    <i name="bandstr">  -2283.27237746 </i>
    <i name="atom">  23139.02543807 </i>
    <i name="e_fr_energy">   -365.99635189 </i>
    <i name="e_wo_entrp">   -366.02831279 </i>
    <i name="e_0_energy">   -366.00700552 </i>
   </energy>
  </scstep>
  <structure>
   <crystal>
    <varray name="basis" >
     <v>       6.97039731       0.01249675      -0.01921916 </v>
     <v>       0.01874598      10.21922305       0.01339510 </v>
     <v>      -0.02878170       0.01332175      10.25038040 </v>
    </varray>
    <i name="volume">    730.14624923 </i>
    <varray name="rec_basis" >
     <v>       0.14346543      -0.00026370       0.00040317 </v>
     <v>      -0.00017579       0.09785529      -0.00012767 </v>
     <v>       0.00026922      -0.00012837       0.09755828 </v>
    </varray>
   </crystal>
   <varray name="positions" >
    <v>       0.50899252       0.33470580       0.33753096 </v>
    <v>       0.73890242       0.83343847       0.15599421 </v>
    <v>       0.97970070       0.99472987       0.31403160 </v>
    <v>       0.27736209       0.48192596       0.15446892 </v>
    <v>       0.25945397       0.84749066       0.15658565 </v>
    <v>       0.51151895       0.99991689       0.66425364 </v>
    <v>       0.72846303       0.49776878       0.16562065 </v>
    <v>       0.76544579       0.15798208       0.48896141 </v>
    <v>       0.49869275       0.66718692       0.00414844 </v>
    <v>       0.49645487       0.66526417       0.67703532 </v>
    <v>       0.24510157       0.51230546       0.51544504 </v>
    <v>       0.00523891       0.66853128       0.68896116 </v>
    <v>       0.00027913       0.34284921       0.32752889 </v>
    <v>       0.48339956       0.66465488       0.32469564 </v>
    <v>       0.23635198       0.15825081       0.49721243 </v>
    <v>       0.00217638       0.66548562       0.00445800 </v>
    <v>       0.76577383       0.51896291       0.50206012 </v>
    <v>       0.76011755       0.82818371       0.50670053 </v>
    <v>       0.26049057       0.49336624       0.83413101 </v>
    <v>       0.25808508       0.16789284       0.16423975 </v>
    <v>       0.24500176       0.82988963       0.50960854 </v>
    <v>       0.74109078       0.16962476       0.17018987 </v>
    <v>       0.71120745       0.16185637       0.83748296 </v>
    <v>       0.26414062       0.83407865       0.83567804 </v>
    <v>       0.52370673       0.33621956       0.00514262 </v>
    <v>       0.73815117       0.51106095       0.83429401 </v>
    <v>       0.50317595       0.99297994       0.00366938 </v>
    <v>       0.27839132       0.16698680       0.83369345 </v>
    <v>       0.98880670       0.00482898       0.99951138 </v>
    <v>       0.98137497       0.32792027       0.67447886 </v>
    <v>       0.98272996       0.00691085       0.68624397 </v>
    <v>       0.01815413       0.66423012       0.31341714 </v>
    <v>       0.51737689       0.99788935       0.33137551 </v>
    <v>       0.51703438       0.33404371       0.64797505 </v>
    <v>       0.97660957       0.33117408       0.99606174 </v>
    <v>       0.73102995       0.82941840       0.83711409 </v>
   </varray>
  </structure>
  <varray name="forces" >
   <v>       0.05361957      -0.00568681      -0.06791673 </v>
   <v>      -0.02014210       0.02459290      -0.05091399 </v>
   <v>      -0.04060438       0.00542137       0.00966006 </v>
   <v>       0.02595718      -0.03124565       0.00682546 </v>
   <v>      -0.01543489       0.01939432       0.04877923 </v>
   <v>      -0.03320495       0.20715263      -0.18782129 </v>
   <v>      -0.03012203      -0.02433945       0.01883645 </v>
   <v>      -0.02256709       0.03850839      -0.01664009 </v>
   <v>      -0.11133922      -0.10380521       0.15406655 </v>
   <v>      -0.23760646      -0.25423341      -0.17377221 </v>
   <v>       0.01121259       0.00222698       0.00896997 </v>
   <v>       0.25823919      -0.18748403      -0.11900300 </v>
   <v>      -0.01113065       0.02042970      -0.00936089 </v>
   <v>       0.01546075       0.02177664      -0.00371985 </v>
   <v>      -0.01063071       0.00576334      -0.03268718 </v>
   <v>       0.08030301      -0.07065551       0.09138475 </v>
   <v>      -0.01615713       0.05142294       0.01487848 </v>
   <v>      -0.00756329       0.00312319       0.00084886 </v>
   <v>       0.03004632      -0.03895671       0.00236643 </v>
   <v>       0.01263408       0.02116201       0.03524078 </v>
   <v>      -0.01160417      -0.00563642      -0.00009981 </v>
   <v>      -0.01944423       0.02063660       0.01988874 </v>
   <v>      -0.01939661      -0.04265980      -0.00084489 </v>
   <v>       0.07677962      -0.05543599      -0.05254982 </v>
   <v>       0.03892125       0.00819554      -0.00180229 </v>
   <v>      -0.02238989       0.07944270       0.00341560 </v>
   <v>      -0.09681722       0.04521580       0.15408115 </v>
   <v>       0.04104720       0.02875251       0.02355374 </v>
   <v>       0.07757618       0.07508109       0.08830563 </v>
   <v>      -0.00830668       0.04053726       0.00788430 </v>
   <v>       0.05166313       0.14691201      -0.04598996 </v>
   <v>      -0.00194168       0.00078802       0.01032525 </v>
   <v>       0.02310761       0.00208811      -0.00708254 </v>
   <v>       0.01225106       0.01340988       0.03300057 </v>
   <v>      -0.01758910       0.00282242      -0.00710213 </v>
   <v>      -0.05482629      -0.06471737       0.04499469 </v>
  </varray>
  <varray name="stress" >
   <v>      -7.29164482      -0.07265071       0.19829550 </v>
   <v>      -0.07265068      -8.49044412      -0.24181832 </v>
   <v>       0.19829546      -0.24181831      -7.62114063 </v>
  </varray>
  <energy>
   <i name="e_fr_energy">   -365.99635189 </i>
   <i name="e_wo_entrp">   -366.00700552 </i>
   <i name="e_0_energy">      0.03196089 </i>
  </energy>
  <time name="totalsc">   10.28   11.12</time>
 </calculation>
 <calculation>
  <scstep>
   <time name="dav">    0.87    0.89</time>
   <time name="total">    1.01    1.10</time>
   <energy>
    <i name="alphaZ">   1459.24997614 </i>
    <i name="ewald"> -18413.54148330 </i>
    <i name="hartreedc">  -5530.77215742 </i>
    <i name="XCdc">   -484.28063339 </i>
    <i name="pawpsdc">  32415.42716855 </i>
    <i name="pawaedc"> -30700.98715309 </i>
    <i name="eentropy">      0.03062417 </i>
    <i name="bandstr">  -2250.22095005 </i>
    <i name="atom">  23139.02543807 </i>
    <i name="e_fr_energy">   -366.06917030 </i>
    <i name="e_wo_entrp">   -366.09979448 </i>
    <i name="e_0_energy">   -366.07937836 </i>
   </energy>
  </scstep>
  <scstep>
   <time name="diag">    0.07    0.07</time>
   <time name="diis">    0.74    0.75</time>
   <time name="orth">    0.01    0.01</time>
   <time name="total">    0.93    0.97</time>
   <energy>
    <i name="e_fr_energy">   -366.08572685 </i>
    <i name="e_wo_entrp">   -366.11760679 </i>
    <i name="e_0_energy">   -366.09635350 </i>
   </energy>
  </scstep>
  <scstep>
   <time name="diag">    0.08    0.08</time>
   <time name="diis">    0.75    0.76</time>
   <time name="orth">    0.01    0.01</time>
   <time name="total">    0.91    0.95</time>
   <energy>
    <i name="e_fr_energy">   -366.05271053 </i>
    <i name="e_wo_entrp">   -366.08392439 </i>
    <i name="e_0_energy">   -366.06311515 </i>
   </energy>
  </scstep>
  <scstep>
   <time name="diag">    0.07    0.08</time>
   <time name="diis">    0.77    0.78</time>
   <time name="orth">    0.01    0.01</time>
   <time name="total">    0.92    0.96</time>
   <energy>
    <i name="e_fr_energy">   -366.04186944 </i>
    <i name="e_wo_entrp">   -366.07334968 </i>
    <i name="e_0_energy">   -366.05236285 </i>
   </energy>
  </scstep>
  <scstep>
   <time name="diag">    0.07    0.08</time>
   <time name="diis">    0.78    0.78</time>
   <time name="orth">    0.01    0.01</time>
   <time name="total">    0.93    0.95</time>
   <energy>
    <i name="e_fr_energy">   -366.03954103 </i>
    <i name="e_wo_entrp">   -366.07135386 </i>
    <i name="e_0_energy">   -366.05014530 </i>
   </energy>
  </scstep>
  <scstep>
   <time name="diag">    0.07    0.07</time>
   <time name="diis">    0.79    0.79</time>
   <time name="orth">    0.01    0.01</time>
   <time name="total">    0.94    0.96</time>
   <energy>
    <i name="e_fr_energy">   -366.03957876 </i>
    <i name="e_wo_entrp">   -366.07121861 </i>
    <i name="e_0_energy">   -366.05012538 </i>
   </energy>
  </scstep>
  <scstep>
   <time name="diag">    0.07    0.08</time>
   <time name="diis">    0.72    0.89</time>
   <time name="orth">    0.01    0.01</time>
   <time name="total">    0.87    1.09</time>
   <energy>
    <i name="e_fr_energy">   -366.03969969 </i>
    <i name="e_wo_entrp">   -366.07137201 </i>
    <i name="e_0_energy">   -366.05025713 </i>
   </energy>
  </scstep>
  <scstep>
   <time name="diag">    0.07    0.08</time>
   <time name="diis">    0.85    0.85</time>
   <time name="orth">    0.01    0.02</time>
   <time name="total">    1.00    1.02</time>
   <energy>
    <i name="e_fr_energy">   -366.03981346 </i>
    <i name="e_wo_entrp">   -366.07153184 </i>
    <i name="e_0_energy">   -366.05038626 </i>
   </energy>
  </scstep>
  <scstep>
   <time name="diag">    0.10    0.10</time>
   <time name="diis">    0.72    0.72</time>
   <time name="orth">    0.01    0.01</time>
   <time name="total">    0.90    0.93</time>
   <energy>
    <i name="e_fr_energy">   -366.03987127 </i>
    <i name="e_wo_entrp">   -366.07154801 </i>
    <i name="e_0_energy">   -366.05043018 </i>
   </energy>
  </scstep>
  <scstep>
[...]
       <r>    6.6224    1.0000 </r>
       <r>    6.6803    1.0000 </r>
       <r>    6.7320    1.0000 </r>
       <r>    6.7642    1.0000 </r>
       <r>    6.8066    1.0000 </r>
       <r>    6.8294    1.0000 </r>
       <r>    6.8580    1.0001 </r>
       <r>    6.9238    1.0007 </r>
       <r>    6.9573    1.0018 </r>
       <r>    6.9717    1.0027 </r>
       <r>    7.0147    1.0075 </r>
       <r>    7.0363    1.0118 </r>
       <r>    7.0870    1.0260 </r>
       <r>    7.1025    1.0305 </r>
       <r>    7.1470    1.0341 </r>
       <r>    7.1678    1.0248 </r>
       <r>    7.2169    0.9488 </r>
       <r>    7.2532    0.8279 </r>
       <r>    7.2880    0.6622 </r>
       <r>    7.3215    0.4763 </r>
       <r>    7.3940    0.1240 </r>
       <r>    7.4171    0.0529 </r>
       <r>    7.4540   -0.0133 </r>
       <r>    7.4800   -0.0318 </r>
       <r>    7.5035   -0.0354 </r>
       <r>    7.5348   -0.0298 </r>
       <r>    7.5561   -0.0235 </r>
       <r>    7.5799   -0.0164 </r>
       <r>    7.6377   -0.0050 </r>
       <r>    7.6594   -0.0029 </r>
       <r>    7.7167   -0.0005 </r>
       <r>    7.7437   -0.0002 </r>
       <r>    7.7774   -0.0001 </r>
       <r>    7.8580   -0.0000 </r>
       <r>    7.8793   -0.0000 </r>
       <r>    7.9429   -0.0000 </r>
       <r>    7.9702   -0.0000 </r>
       <r>    8.0916   -0.0000 </r>
       <r>    8.1156   -0.0000 </r>
       <r>    8.1726   -0.0000 </r>
       <r>    8.2242   -0.0000 </r>
       <r>    8.4735   -0.0000 </r>
       <r>    8.5458   -0.0000 </r>
       <r>    8.5867   -0.0000 </r>
       <r>    9.1937   -0.0000 </r>
       <r>    9.2306   -0.0000 </r>
       <r>    9.2774   -0.0000 </r>
       <r>    9.3153   -0.0000 </r>
       <r>    9.3938   -0.0000 </r>
      </set>
     </set>
    </set>
   </array>
  </eigenvalues>
  <separator name="orbital magnetization" >
   <v name="MAGDIPOLOUT">      0.00000000      0.00000000      0.00000000</v>
  </separator>
  <dos>
   <i name="efermi">      7.31732874 </i>
   <total>
    <array>
     <dimension dim="1">gridpoints</dimension>
     <dimension dim="2">spin</dimension>
     <field>energy</field>
     <field>total</field>
     <field>integrated</field>
     <set>
      <set comment="spin 1">
       <r>   -49.7835     0.0000     0.0000 </r>
       <r>   -49.5768     0.0000     0.0000 </r>
       <r>   -49.3700     0.0000     0.0000 </r>
       <r>   -49.1633     0.0000     0.0000 </r>
       <r>   -48.9565     0.0000     0.0000 </r>
       <r>   -48.7498     0.0000     0.0000 </r>
       <r>   -48.5430     0.0000     0.0000 </r>
       <r>   -48.3363    -0.0000    -0.0000 </r>
       <r>   -48.1296    -0.0000    -0.0000 </r>
       <r>   -47.9228    -0.0000    -0.0000 </r>
       <r>   -47.7161    -0.0000    -0.0000 </r>
       <r>   -47.5093    -0.0000    -0.0000 </r>
       <r>   -47.3026    -0.0384    -0.0079 </r>
       <r>   -47.0959    -0.8623    -0.1862 </r>
       <r>   -46.8891    20.6529     4.0836 </r>
       <r>   -46.6824    35.7572    11.4761 </r>
       <r>   -46.4756     2.8465    12.0645 </r>
       <r>   -46.2689    -0.3114    12.0002 </r>
       <r>   -46.0622    -0.0008    12.0000 </r>
       <r>   -45.8554    -0.0000    12.0000 </r>
       <r>   -45.6487    -0.0000    12.0000 </r>
       <r>   -45.4419     0.0000    12.0000 </r>
       <r>   -45.2352     0.0000    12.0000 </r>
       <r>   -45.0285     0.0000    12.0000 </r>
       <r>   -44.8217     0.0000    12.0000 </r>
       <r>   -44.6150     0.0000    12.0000 </r>
       <r>   -44.4082     0.0000    12.0000 </r>
       <r>   -44.2015     0.0000    12.0000 </r>
       <r>   -43.9948     0.0000    12.0000 </r>
       <r>   -43.7880     0.0000    12.0000 </r>
       <r>   -43.5813     0.0000    12.0000 </r>
       <r>   -43.3745     0.0000    12.0000 </r>
       <r>   -43.1678     0.0000    12.0000 </r>
       <r>   -42.9610     0.0000    12.0000 </r>
       <r>   -42.7543     0.0000    12.0000 </r>
       <r>   -42.5476     0.0000    12.0000 </r>
       <r>   -42.3408    -0.0000    12.0000 </r>
       <r>   -42.1341    -0.0000    12.0000 </r>
       <r>   -41.9273    -0.0000    12.0000 </r>
       <r>   -41.7206    -0.0000    12.0000 </r>
       <r>   -41.5139    -0.0000    12.0000 </r>
       <r>   -41.3071    -0.0316    11.9935 </r>
       <r>   -41.1004    -1.3210    11.7204 </r>
       <r>   -40.8936    24.4313    16.7713 </r>
       <r>   -40.6869    59.3860    29.0488 </r>
       <r>   -40.4802     5.1425    30.1120 </r>
       <r>   -40.2734    -0.5401    30.0003 </r>
       <r>   -40.0667    -0.0015    30.0000 </r>
       <r>   -39.8599    -0.0000    30.0000 </r>
       <r>   -39.6532    -0.0000    30.0000 </r>
       <r>   -39.4465     0.0000    30.0000 </r>
       <r>   -39.2397     0.0000    30.0000 </r>
       <r>   -39.0330     0.0000    30.0000 </r>
       <r>   -38.8262     0.0000    30.0000 </r>
       <r>   -38.6195     0.0000    30.0000 </r>
       <r>   -38.4127     0.0000    30.0000 </r>
       <r>   -38.2060     0.0000    30.0000 </r>
       <r>   -37.9993     0.0000    30.0000 </r>
       <r>   -37.7925     0.0000    30.0000 </r>
       <r>   -37.5858     0.0000    30.0000 </r>
       <r>   -37.3790     0.0000    30.0000 </r>
       <r>   -37.1723     0.0000    30.0000 </r>
       <r>   -36.9656     0.0000    30.0000 </r>
       <r>   -36.7588     0.0000    30.0000 </r>
       <r>   -36.5521     0.0000    30.0000 </r>
       <r>   -36.3453     0.0000    30.0000 </r>
       <r>   -36.1386     0.0000    30.0000 </r>
       <r>   -35.9319     0.0000    30.0000 </r>
       <r>   -35.7251     0.0000    30.0000 </r>
       <r>   -35.5184     0.0000    30.0000 </r>
       <r>   -35.3116     0.0000    30.0000 </r>
       <r>   -35.1049     0.0000    30.0000 </r>
       <r>   -34.8982     0.0000    30.0000 </r>
       <r>   -34.6914     0.0000    30.0000 </r>
       <r>   -34.4847     0.0000    30.0000 </r>
       <r>   -34.2779     0.0000    30.0000 </r>
       <r>   -34.0712     0.0000    30.0000 </r>
       <r>   -33.8645     0.0000    30.0000 </r>
       <r>   -33.6577     0.0000    30.0000 </r>
       <r>   -33.4510     0.0000    30.0000 </r>
       <r>   -33.2442     0.0000    30.0000 </r>
       <r>   -33.0375     0.0000    30.0000 </r>
       <r>   -32.8307     0.0000    30.0000 </r>
       <r>   -32.6240     0.0000    30.0000 </r>
       <r>   -32.4173     0.0000    30.0000 </r>
       <r>   -32.2105     0.0000    30.0000 </r>
       <r>   -32.0038     0.0000    30.0000 </r>
       <r>   -31.7970     0.0000    30.0000 </r>
       <r>   -31.5903     0.0000    30.0000 </r>
       <r>   -31.3836     0.0000    30.0000 </r>
       <r>   -31.1768     0.0000    30.0000 </r>
       <r>   -30.9701     0.0000    30.0000 </r>
       <r>   -30.7633     0.0000    30.0000 </r>
       <r>   -30.5566     0.0000    30.0000 </r>
       <r>   -30.3499     0.0000    30.0000 </r>
       <r>   -30.1431     0.0000    30.0000 </r>
       <r>   -29.9364     0.0000    30.0000 </r>
       <r>   -29.7296     0.0000    30.0000 </r>
       <r>   -29.5229     0.0000    30.0000 </r>
       <r>   -29.3162     0.0000    30.0000 </r>
       <r>   -29.1094     0.0000    30.0000 </r>
       <r>   -28.9027     0.0000    30.0000 </r>
       <r>   -28.6959     0.0000    30.0000 </r>
       <r>   -28.4892     0.0000    30.0000 </r>
       <r>   -28.2824     0.0000    30.0000 </r>
       <r>   -28.0757     0.0000    30.0000 </r>
       <r>   -27.8690     0.0000    30.0000 </r>
       <r>   -27.6622     0.0000    30.0000 </r>
       <r>   -27.4555     0.0000    30.0000 </r>
       <r>   -27.2487     0.0000    30.0000 </r>
       <r>   -27.0420     0.0000    30.0000 </r>
       <r>   -26.8353     0.0000    30.0000 </r>
       <r>   -26.6285     0.0000    30.0000 </r>
       <r>   -26.4218     0.0000    30.0000 </r>
       <r>   -26.2150     0.0000    30.0000 </r>
       <r>   -26.0083     0.0000    30.0000 </r>
       <r>   -25.8016     0.0000    30.0000 </r>
       <r>   -25.5948     0.0000    30.0000 </r>
       <r>   -25.3881     0.0000    30.0000 </r>
       <r>   -25.1813     0.0000    30.0000 </r>
       <r>   -24.9746     0.0000    30.0000 </r>
       <r>   -24.7679     0.0000    30.0000 </r>
       <r>   -24.5611    -0.0000    30.0000 </r>
       <r>   -24.3544    -0.0000    30.0000 </r>
       <r>   -24.1476    -0.0000    30.0000 </r>
       <r>   -23.9409    -0.0000    30.0000 </r>
       <r>   -23.7341    -0.0029    29.9994 </r>
       <r>   -23.5274    -0.4520    29.9060 </r>
       <r>   -23.3207     4.8020    30.8987 </r>
       <r>   -23.1139    41.7783    39.5360 </r>
       <r>   -22.9072    70.4036    54.0913 </r>
       <r>   -22.7004    35.1215    61.3523 </r>
       <r>   -22.4937    23.5958    66.2306 </r>
       <r>   -22.2870    -1.0755    66.0082 </r>
       <r>   -22.0802    -0.0397    66.0000 </r>
       <r>   -21.8735    -0.0000    66.0000 </r>
       <r>   -21.6667    -0.0000    66.0000 </r>
       <r>   -21.4600     0.0000    66.0000 </r>
       <r>   -21.2533     0.0000    66.0000 </r>
       <r>   -21.0465     0.0000    66.0000 </r>
       <r>   -20.8398     0.0000    66.0000 </r>
       <r>   -20.6330    -0.0000    66.0000 </r>
       <r>   -20.4263    -0.0000    66.0000 </r>
       <r>   -20.2196    -0.0000    66.0000 </r>
       <r>   -20.0128    -0.0000    66.0000 </r>
       <r>   -19.8061    -0.0001    66.0000 </r>
       <r>   -19.5993    -0.0874    65.9819 </r>
       <r>   -19.3926    -0.6746    65.8424 </r>
       <r>   -19.1859    27.3152    71.4896 </r>
       <r>   -18.9791    83.9743    88.8505 </r>
       <r>   -18.7724   104.5888   110.4733 </r>
       <r>   -18.5656    45.7717   119.9362 </r>
       <r>   -18.3589     0.5446   120.0488 </r>
       <r>   -18.1521    -0.2356   120.0001 </r>
       <r>   -17.9454    -0.0004   120.0000 </r>
       <r>   -17.7387    -0.0000   120.0000 </r>
       <r>   -17.5319    -0.0000   120.0000 </r>
       <r>   -17.3252     0.0000   120.0000 </r>
       <r>   -17.1184     0.0000   120.0000 </r>
       <r>   -16.9117     0.0000   120.0000 </r>
       <r>   -16.7050     0.0000   120.0000 </r>
       <r>   -16.4982     0.0000   120.0000 </r>
       <r>   -16.2915     0.0000   120.0000 </r>
       <r>   -16.0847     0.0000   120.0000 </r>
       <r>   -15.8780     0.0000   120.0000 </r>
       <r>   -15.6713     0.0000   120.0000 </r>
       <r>   -15.4645     0.0000   120.0000 </r>
       <r>   -15.2578     0.0000   120.0000 </r>
       <r>   -15.0510     0.0000   120.0000 </r>
       <r>   -14.8443     0.0000   120.0000 </r>
       <r>   -14.6376     0.0000   120.0000 </r>
       <r>   -14.4308     0.0000   120.0000 </r>
       <r>   -14.2241     0.0000   120.0000 </r>
       <r>   -14.0173     0.0000   120.0000 </r>
       <r>   -13.8106     0.0000   120.0000 </r>
       <r>   -13.6038     0.0000   120.0000 </r>
       <r>   -13.3971     0.0000   120.0000 </r>
       <r>   -13.1904     0.0000   120.0000 </r>
       <r>   -12.9836     0.0000   120.0000 </r>
       <r>   -12.7769     0.0000   120.0000 </r>
       <r>   -12.5701     0.0000   120.0000 </r>
       <r>   -12.3634     0.0000   120.0000 </r>
       <r>   -12.1567     0.0000   120.0000 </r>
       <r>   -11.9499     0.0000   120.0000 </r>
       <r>   -11.7432     0.0000   120.0000 </r>
       <r>   -11.5364     0.0000   120.0000 </r>
       <r>   -11.3297     0.0000   120.0000 </r>
       <r>   -11.1230     0.0000   120.0000 </r>
       <r>   -10.9162     0.0000   120.0000 </r>
       <r>   -10.7095     0.0000   120.0000 </r>
       <r>   -10.5027     0.0000   120.0000 </r>
       <r>   -10.2960     0.0000   120.0000 </r>
       <r>   -10.0893     0.0000   120.0000 </r>
       <r>    -9.8825     0.0000   120.0000 </r>
       <r>    -9.6758     0.0000   120.0000 </r>
       <r>    -9.4690     0.0000   120.0000 </r>
       <r>    -9.2623     0.0000   120.0000 </r>
       <r>    -9.0555     0.0000   120.0000 </r>
       <r>    -8.8488     0.0000   120.0000 </r>
       <r>    -8.6421     0.0000   120.0000 </r>
       <r>    -8.4353     0.0000   120.0000 </r>
       <r>    -8.2286     0.0000   120.0000 </r>
       <r>    -8.0218     0.0000   120.0000 </r>
       <r>    -7.8151     0.0000   120.0000 </r>
       <r>    -7.6084     0.0000   120.0000 </r>
       <r>    -7.4016     0.0000   120.0000 </r>
       <r>    -7.1949     0.0000   120.0000 </r>
       <r>    -6.9881     0.0000   120.0000 </r>
       <r>    -6.7814     0.0000   120.0000 </r>
       <r>    -6.5747     0.0000   120.0000 </r>
       <r>    -6.3679     0.0000   120.0000 </r>
       <r>    -6.1612     0.0000   120.0000 </r>
       <r>    -5.9544     0.0000   120.0000 </r>
       <r>    -5.7477     0.0000   120.0000 </r>
       <r>    -5.5410     0.0000   120.0000 </r>
       <r>    -5.3342     0.0000   120.0000 </r>
       <r>    -5.1275     0.0000   120.0000 </r>
       <r>    -4.9207     0.0000   120.0000 </r>
       <r>    -4.7140     0.0000   120.0000 </r>
       <r>    -4.5073     0.0000   120.0000 </r>
       <r>    -4.3005     0.0000   120.0000 </r>
       <r>    -4.0938     0.0000   120.0000 </r>
       <r>    -3.8870     0.0000   120.0000 </r>
       <r>    -3.6803     0.0000   120.0000 </r>
       <r>    -3.4735     0.0000   120.0000 </r>
       <r>    -3.2668     0.0000   120.0000 </r>
       <r>    -3.0601     0.0000   120.0000 </r>
       <r>    -2.8533     0.0000   120.0000 </r>
       <r>    -2.6466     0.0000   120.0000 </r>
       <r>    -2.4398     0.0000   120.0000 </r>
       <r>    -2.2331     0.0000   120.0000 </r>
       <r>    -2.0264     0.0000   120.0000 </r>
       <r>    -1.8196     0.0000   120.0000 </r>
       <r>    -1.6129     0.0000   120.0000 </r>
       <r>    -1.4061     0.0000   120.0000 </r>
       <r>    -1.1994     0.0000   120.0000 </r>
       <r>    -0.9927     0.0000   120.0000 </r>
       <r>    -0.7859    -0.0000   120.0000 </r>
       <r>    -0.5792    -0.0000   120.0000 </r>
       <r>    -0.3724    -0.0000   120.0000 </r>
       <r>    -0.1657    -0.0000   120.0000 </r>
       <r>     0.0410    -0.0000   120.0000 </r>
       <r>     0.2478    -0.0069   119.9986 </r>
       <r>     0.4545     0.0826   120.0156 </r>
       <r>     0.6613     0.4489   120.1085 </r>
       <r>     0.8680     1.3271   120.3828 </r>
       <r>     1.0748     1.8339   120.7620 </r>
       <r>     1.2815     2.3984   121.2578 </r>
       <r>     1.4882     4.4744   122.1829 </r>
       <r>     1.6950     2.5604   122.7122 </r>
       <r>     1.9017     4.0834   123.5564 </r>
       <r>     2.1085     4.0630   124.3964 </r>
       <r>     2.3152     3.4327   125.1061 </r>
       <r>     2.5219     6.0727   126.3616 </r>
       <r>     2.7287     8.4632   128.1113 </r>
       <r>     2.9354     8.0556   129.7767 </r>
       <r>     3.1422     8.1787   131.4676 </r>
       <r>     3.3489     8.1199   133.1463 </r>
       <r>     3.5556    11.7402   135.5735 </r>
       <r>     3.7624    20.3805   139.7869 </r>
       <r>     3.9691    20.5777   144.0412 </r>
       <r>     4.1759    25.1791   149.2467 </r>
       <r>     4.3826    32.1597   155.8955 </r>
       <r>     4.5893    32.9821   162.7142 </r>
       <r>     4.7961    36.3145   170.2219 </r>
       <r>     5.0028    39.6944   178.4283 </r>
       <r>     5.2096    37.3302   186.1460 </r>
       <r>     5.4163    30.0177   192.3519 </r>
       <r>     5.6231    31.5738   198.8795 </r>
       <r>     5.8298    14.3863   201.8538 </r>
       <r>     6.0365    44.1934   210.9903 </r>
       <r>     6.2433    61.2152   223.6460 </r>
       <r>     6.4500    59.5878   235.9652 </r>
       <r>     6.6568    55.3544   247.4093 </r>
       <r>     6.8635    51.7634   258.1109 </r>
       <r>     7.0702    56.8482   269.8637 </r>
       <r>     7.2770    50.3311   280.2692 </r>
       <r>     7.4837    45.8378   289.7457 </r>
       <r>     7.6905    54.0670   300.9236 </r>
       <r>     7.8972    44.9025   310.2068 </r>
       <r>     8.1039    33.7820   317.1909 </r>
       <r>     8.3107    29.0745   323.2018 </r>
       <r>     8.5174    20.0778   327.3527 </r>
       <r>     8.7242    17.2104   330.9108 </r>
       <r>     8.9309    13.3838   333.6778 </r>
       <r>     9.1376    22.2245   338.2725 </r>
       <r>     9.3444    20.8933   342.5920 </r>
       <r>     9.5511     7.1891   344.0783 </r>
       <r>     9.7579    -0.3666   344.0025 </r>
       <r>     9.9646    -0.0120   344.0000 </r>
       <r>    10.1713    -0.0000   344.0000 </r>
       <r>    10.3781    -0.0000   344.0000 </r>
       <r>    10.5848     0.0000   344.0000 </r>
       <r>    10.7916     0.0000   344.0000 </r>
       <r>    10.9983     0.0000   344.0000 </r>
       <r>    11.2051     0.0000   344.0000 </r>
       <r>    11.4118     0.0000   344.0000 </r>
       <r>    11.6185     0.0000   344.0000 </r>
       <r>    11.8253     0.0000   344.0000 </r>
       <r>    12.0320     0.0000   344.0000 </r>
       <r>    12.2388     0.0000   344.0000 </r>
      </set>
     </set>
    </array>
   </total>
  </dos>
 </calculation>
 <structure name="finalpos" >
  <crystal>
   <varray name="basis" >
    <v>       6.97184645       0.01026652      -0.01175702 </v>
    <v>       0.01555041      10.16682764      -0.00086777 </v>
    <v>      -0.01781191      -0.00105651      10.24533822 </v>
   </varray>
   <i name="volume">    726.20179729 </i>
   <varray name="rec_basis" >
    <v>       0.14343477      -0.00021937       0.00024934 </v>
    <v>      -0.00014482       0.09835932       0.00000989 </v>
    <v>       0.00016459       0.00000808       0.09760565 </v>
   </varray>
  </crystal>
  <varray name="positions" >
   <v>       0.51076766       0.33566553       0.33605273 </v>
   <v>       0.73809477       0.83444250       0.15340886 </v>
   <v>       0.97647998       0.99546192       0.31535021 </v>
   <v>       0.27710805       0.48191934       0.15622956 </v>
   <v>       0.25608265       0.84869455       0.16179255 </v>
   <v>       0.51197594       0.00524047       0.66052760 </v>
   <v>       0.72768918       0.49833824       0.16544204 </v>
   <v>       0.76483749       0.16021619       0.48984721 </v>
   <v>       0.49470096       0.66641640       0.00696050 </v>
   <v>       0.48412149       0.65891109       0.67208659 </v>
   <v>       0.24952842       0.50698363       0.51085596 </v>
   <v>       0.01695114       0.66231967       0.68435755 </v>
   <v>      -0.00291287       0.34384948       0.32708024 </v>
   <v>       0.48578535       0.66774439       0.32512194 </v>
   <v>       0.23743298       0.16329717       0.49628555 </v>
   <v>       0.00361431       0.66448598       0.00578925 </v>
   <v>       0.76088834       0.52138780       0.50265112 </v>
   <v>       0.76100616       0.82846782       0.50861827 </v>
   <v>       0.26245385       0.49038346       0.83905252 </v>
   <v>       0.25665408       0.16765319       0.16559085 </v>
   <v>       0.24264294       0.83212779       0.50651736 </v>
   <v>       0.74013925       0.16903000       0.16966218 </v>
   <v>       0.71404965       0.15982578       0.83769432 </v>
   <v>       0.26515508       0.83158228       0.83207011 </v>
   <v>       0.52622534       0.33526048       0.00544095 </v>
   <v>       0.73861486       0.51323169       0.83478944 </v>
   <v>       0.50065375       0.99251307       0.00454563 </v>
   <v>       0.27998082       0.16778340       0.83620901 </v>
   <v>       0.99069237       0.00305709      -0.00129377 </v>
   <v>       0.98276956       0.33173867       0.67532822 </v>
   <v>       0.98614948       0.00937483       0.68592543 </v>
   <v>       0.01519454       0.66497078       0.31476784 </v>
   <v>       0.51856649       0.99821495       0.33215228 </v>
   <v>       0.52064618       0.33386411       0.65259109 </v>
   <v>       0.97605548       0.33013220       0.99648926 </v>
   <v>       0.72918832       0.82541906       0.83400957 </v>
  </varray>
 </structure>
</modeling>
