       N       E                     dE             d eps       ncg     rms          rms(c)
DAV:   1     0.194769637178E+04    0.19477E+04   -0.11407E+05  5576   0.107E+03
DAV:   2    -0.925412562655E+02   -0.20402E+04   -0.19734E+04  5792   0.399E+02
DAV:   3    -0.350076749019E+03   -0.25754E+03   -0.24465E+03  8656   0.971E+01
DAV:   4    -0.380814731457E+03   -0.30738E+02   -0.29101E+02  8384   0.310E+01
DAV:   5    -0.383908993966E+03   -0.30943E+01   -0.30251E+01  8184   0.984E+00    0.644E+01
RMM:   6    -0.373565384496E+03    0.10344E+02   -0.27263E+01  7150   0.104E+01    0.311E+01
RMM:   7    -0.377585571331E+03   -0.40202E+01   -0.36044E+01  7679   0.979E+00    0.139E+01
RMM:   8    -0.368791800690E+03    0.87938E+01   -0.88299E+00  7199   0.427E+00    0.449E+00
RMM:   9    -0.368566272709E+03    0.22553E+00   -0.37054E+00  7670   0.260E+00    0.300E+00
RMM:  10    -0.368508334010E+03    0.57939E-01   -0.69107E-01  7718   0.125E+00    0.169E+00
RMM:  11    -0.368471510283E+03    0.36824E-01   -0.19931E-01  7601   0.698E-01    0.887E-01
RMM:  12    -0.368467483153E+03    0.40271E-02   -0.80282E-02  7722   0.408E-01    0.543E-01
RMM:  13    -0.368464805433E+03    0.26777E-02   -0.24668E-02  7711   0.240E-01    0.294E-01
RMM:  14    -0.368464637629E+03    0.16780E-03   -0.11058E-02  7762   0.130E-01    0.163E-01
RMM:  15    -0.368464748749E+03   -0.11112E-03   -0.60496E-03  7890   0.855E-02    0.904E-02
RMM:  16    -0.368464774666E+03   -0.25916E-04   -0.21902E-03  7526   0.479E-02    0.578E-02
RMM:  17    -0.368464773837E+03    0.82914E-06   -0.92355E-04  6676   0.312E-02    0.269E-02
RMM:  18    -0.368464800971E+03   -0.27134E-04   -0.42338E-04  6240   0.216E-02    0.158E-02
RMM:  19    -0.368464808574E+03   -0.76031E-05   -0.16737E-04  4706   0.152E-02    0.826E-03
RMM:  20    -0.368464813914E+03   -0.53407E-05   -0.92068E-05  3969   0.117E-02
   1 F= -.36846481E+03 E0= -.36847279E+03  d E =-.368465E+03
       N       E                     dE             d eps       ncg     rms          rms(c)
DAV:   1    -0.368564856232E+03   -0.10005E+00   -0.30458E+00  6536   0.589E+00    0.213E+00
RMM:   2    -0.368558163705E+03    0.66925E-02   -0.39864E-01  7637   0.154E+00    0.987E-01
RMM:   3    -0.368514571556E+03    0.43592E-01   -0.87382E-02  7826   0.474E-01    0.596E-01
RMM:   4    -0.368507237256E+03    0.73343E-02   -0.27918E-02  7739   0.371E-01    0.313E-01
RMM:   5    -0.368505817973E+03    0.14193E-02   -0.64376E-03  7716   0.183E-01    0.226E-01
RMM:   6    -0.368506031196E+03   -0.21322E-03   -0.30001E-03  8048   0.841E-02    0.161E-01
RMM:   7    -0.368506168595E+03   -0.13740E-03   -0.10224E-03  7799   0.626E-02    0.845E-02
RMM:   8    -0.368506300355E+03   -0.13176E-03   -0.76711E-04  7089   0.380E-02    0.579E-02
RMM:   9    -0.368506390323E+03   -0.89968E-04   -0.27010E-04  6616   0.291E-02    0.392E-02
RMM:  10    -0.368506461818E+03   -0.71496E-04   -0.17449E-04  5593   0.210E-02    0.223E-02
RMM:  11    -0.368506486815E+03   -0.24997E-04   -0.80786E-05  4578   0.167E-02    0.115E-02
RMM:  12    -0.368506497830E+03   -0.11015E-04   -0.39693E-05  4115   0.140E-02    0.625E-03
RMM:  13    -0.368506500920E+03   -0.30905E-05   -0.16361E-05  3504   0.126E-02
   2 F= -.36850650E+03 E0= -.36851432E+03  d E =-.416870E-01
       N       E                     dE             d eps       ncg     rms          rms(c)
DAV:   1    -0.368683362313E+03   -0.17686E+00   -0.79013E+00  6352   0.950E+00    0.346E+00
RMM:   2    -0.368663641921E+03    0.19720E-01   -0.10335E+00  7630   0.249E+00    0.157E+00
RMM:   3    -0.368552291116E+03    0.11135E+00   -0.22566E-01  7836   0.758E-01    0.959E-01
RMM:   4    -0.368533219031E+03    0.19072E-01   -0.70487E-02  7704   0.594E-01    0.502E-01
RMM:   5    -0.368529634149E+03    0.35849E-02   -0.16546E-02  7730   0.291E-01    0.365E-01
RMM:   6    -0.368530172970E+03   -0.53882E-03   -0.75783E-03  8135   0.135E-01    0.259E-01
RMM:   7    -0.368530485421E+03   -0.31245E-03   -0.27264E-03  8303   0.986E-02    0.137E-01
RMM:   8    -0.368530798389E+03   -0.31297E-03   -0.19384E-03  8240   0.600E-02    0.947E-02
RMM:   9    -0.368531012972E+03   -0.21458E-03   -0.68709E-04  7209   0.444E-02    0.633E-02
RMM:  10    -0.368531174205E+03   -0.16123E-03   -0.44575E-04  6814   0.317E-02    0.363E-02
RMM:  11    -0.368531227570E+03   -0.53366E-04   -0.19508E-04  5514   0.239E-02    0.206E-02
RMM:  12    -0.368531251323E+03   -0.23753E-04   -0.92389E-05  5300   0.175E-02    0.740E-03
RMM:  13    -0.368531255931E+03   -0.46076E-05   -0.34720E-05  4003   0.138E-02
   3 F= -.36853126E+03 E0= -.36853876E+03  d E =-.664420E-01
       N       E                     dE             d eps       ncg     rms          rms(c)
DAV:   1    -0.368563394980E+03   -0.32144E-01   -0.28909E+00  5256   0.429E+00    0.702E-01
RMM:   2    -0.368567246426E+03   -0.38514E-02   -0.10577E-01  7140   0.839E-01    0.325E-01
RMM:   3    -0.368565497826E+03    0.17486E-02   -0.14535E-02  7571   0.243E-01    0.227E-01
RMM:   4    -0.368564879062E+03    0.61876E-03   -0.36638E-03  7891   0.971E-02    0.133E-01
RMM:   5    -0.368564750758E+03    0.12830E-03   -0.16317E-03  7743   0.664E-02    0.801E-02
RMM:   6    -0.368564711814E+03    0.38944E-04   -0.61248E-04  7809   0.395E-02    0.522E-02
RMM:   7    -0.368564702392E+03    0.94220E-05   -0.24813E-04  6995   0.246E-02    0.321E-02
RMM:   8    -0.368564700427E+03    0.19654E-05   -0.81010E-05  5239   0.154E-02
   4 F= -.36856470E+03 E0= -.36857208E+03  d E =-.334445E-01
       N       E                     dE             d eps       ncg     rms          rms(c)
DAV:   1    -0.368592038535E+03   -0.27336E-01   -0.23741E+01  5152   0.123E+01    0.198E+00
RMM:   2    -0.368624713919E+03   -0.32675E-01   -0.86344E-01  7112   0.238E+00    0.913E-01
RMM:   3    -0.368611669711E+03    0.13044E-01   -0.11775E-01  7527   0.691E-01    0.650E-01
RMM:   4    -0.368606748459E+03    0.49213E-02   -0.29871E-02  7813   0.286E-01    0.381E-01
RMM:   5    -0.368605844455E+03    0.90400E-03   -0.13183E-02  7796   0.183E-01    0.229E-01
RMM:   6    -0.368605561196E+03    0.28326E-03   -0.47244E-03  8264   0.109E-01    0.154E-01
RMM:   7    -0.368605567066E+03   -0.58702E-05   -0.21093E-03  8528   0.645E-02    0.926E-02
RMM:   8    -0.368605615698E+03   -0.48631E-04   -0.83003E-04  7678   0.417E-02    0.523E-02
RMM:   9    -0.368605629583E+03   -0.13885E-04   -0.37057E-04  6891   0.273E-02    0.384E-02
RMM:  10    -0.368605632247E+03   -0.26648E-05   -0.16207E-04  5801   0.210E-02    0.209E-02
RMM:  11    -0.368605630755E+03    0.14924E-05   -0.80053E-05  5413   0.156E-02
   5 F= -.36860563E+03 E0= -.36861237E+03  d E =-.743748E-01
       N       E                     dE             d eps       ncg     rms          rms(c)
DAV:   1    -0.368612226180E+03   -0.65939E-02   -0.61651E-01  5600   0.240E+00    0.482E-01
RMM:   2    -0.368612683260E+03   -0.45708E-03   -0.36731E-02  6216   0.535E-01    0.188E-01
RMM:   3    -0.368611969371E+03    0.71389E-03   -0.47544E-03  7458   0.172E-01    0.136E-01
RMM:   4    -0.368611541422E+03    0.42795E-03   -0.16196E-03  7833   0.771E-02    0.715E-02
RMM:   5    -0.368611485088E+03    0.56334E-04   -0.46444E-04  7798   0.420E-02    0.520E-02
RMM:   6    -0.368611482684E+03    0.24037E-05   -0.20029E-04  6907   0.238E-02    0.335E-02
RMM:   7    -0.368611472642E+03    0.10042E-04   -0.79030E-05  5410   0.169E-02    0.186E-02
RMM:   8    -0.368611471092E+03    0.15507E-05   -0.49169E-05  4310   0.143E-02
   6 F= -.36861147E+03 E0= -.36861825E+03  d E =-.584034E-02
       N       E                     dE             d eps       ncg     rms          rms(c)
DAV:   1    -0.368622153963E+03   -0.10681E-01   -0.39273E+00  5376   0.606E+00    0.121E+00
RMM:   2    -0.368624707669E+03   -0.25537E-02   -0.23296E-01  6256   0.134E+00    0.475E-01
RMM:   3    -0.368620219605E+03    0.44881E-02   -0.30886E-02  7500   0.433E-01    0.342E-01
RMM:   4    -0.368617568938E+03    0.26507E-02   -0.10452E-02  7847   0.195E-01    0.183E-01
RMM:   5    -0.368617238403E+03    0.33053E-03   -0.30496E-03  7993   0.108E-01    0.135E-01
RMM:   6    -0.368617267644E+03   -0.29241E-04   -0.13659E-03  8355   0.605E-02    0.865E-02
RMM:   7    -0.368617247974E+03    0.19670E-04   -0.56496E-04  7876   0.420E-02    0.482E-02
RMM:   8    -0.368617266752E+03   -0.18778E-04   -0.31194E-04  7339   0.271E-02    0.338E-02
RMM:   9    -0.368617273721E+03   -0.69682E-05   -0.11103E-04  5347   0.204E-02    0.249E-02
RMM:  10    -0.368617279244E+03   -0.55238E-05   -0.80000E-05  4884   0.163E-02
   7 F= -.36861728E+03 E0= -.36862412E+03  d E =-.116485E-01
       N       E                     dE             d eps       ncg     rms          rms(c)
DAV:   1    -0.368622145398E+03   -0.48717E-02   -0.36837E-01  5560   0.187E+00    0.421E-01
RMM:   2    -0.368623361781E+03   -0.12164E-02   -0.25954E-02  7418   0.430E-01    0.226E-01
RMM:   3    -0.368621181114E+03    0.21807E-02   -0.46636E-03  7708   0.145E-01    0.129E-01
RMM:   4    -0.368620889098E+03    0.29202E-03   -0.12280E-03  7724   0.715E-02    0.638E-02
RMM:   5    -0.368620857325E+03    0.31773E-04   -0.34286E-04  7586   0.403E-02    0.468E-02
RMM:   6    -0.368620864337E+03   -0.70113E-05   -0.15587E-04  6736   0.202E-02    0.305E-02
RMM:   7    -0.368620872681E+03   -0.83439E-05   -0.50033E-05  4367   0.147E-02
   8 F= -.36862087E+03 E0= -.36862765E+03  d E =-.359344E-02
       N       E                     dE             d eps       ncg     rms          rms(c)
DAV:   1    -0.368636105117E+03   -0.15241E-01   -0.33080E+00  5336   0.561E+00    0.126E+00
RMM:   2    -0.368647022194E+03   -0.10917E-01   -0.22927E-01  7328   0.128E+00    0.665E-01
RMM:   3    -0.368627354172E+03    0.19668E-01   -0.39994E-02  7724   0.429E-01    0.369E-01
RMM:   4    -0.368624908871E+03    0.24453E-02   -0.10477E-02  7780   0.211E-01    0.184E-01
RMM:   5    -0.368624675484E+03    0.23339E-03   -0.28173E-03  7690   0.115E-01    0.139E-01
RMM:   6    -0.368624736095E+03   -0.60612E-04   -0.13530E-03  8218   0.581E-02    0.950E-02
RMM:   7    -0.368624797200E+03   -0.61105E-04   -0.49308E-04  7349   0.412E-02    0.549E-02
RMM:   8    -0.368624863505E+03   -0.66305E-04   -0.30909E-04  6753   0.267E-02    0.331E-02
RMM:   9    -0.368624901784E+03   -0.38279E-04   -0.13401E-04  5647   0.210E-02    0.213E-02
RMM:  10    -0.368624925528E+03   -0.23745E-04   -0.69307E-05  4689   0.158E-02    0.121E-02
RMM:  11    -0.368624935661E+03   -0.10133E-04   -0.31119E-05  3889   0.131E-02    0.637E-03
RMM:  12    -0.368624939124E+03   -0.34630E-05   -0.15055E-05  3320   0.124E-02
   9 F= -.36862494E+03 E0= -.36863149E+03  d E =-.765988E-02
       N       E                     dE             d eps       ncg     rms          rms(c)
DAV:   1    -0.368625149945E+03   -0.21428E-03   -0.39554E-02  5712   0.614E-01    0.139E-01
RMM:   2    -0.368625292334E+03   -0.14239E-03   -0.27857E-03  7422   0.141E-01    0.742E-02
RMM:   3    -0.368625058289E+03    0.23405E-03   -0.50034E-04  7506   0.473E-02    0.431E-02
RMM:   4    -0.368625021328E+03    0.36960E-04   -0.12945E-04  6802   0.237E-02    0.214E-02
RMM:   5    -0.368625012643E+03    0.86860E-05   -0.24290E-05  2978   0.145E-02
  10 F= -.36862501E+03 E0= -.36863160E+03  d E =-.773340E-02
       N       E                     dE             d eps       ncg     rms          rms(c)
DAV:   1    -0.368626133028E+03   -0.11117E-02   -0.72182E-02  5152   0.734E-01    0.569E-02
RMM:   2    -0.368626314463E+03   -0.18143E-03   -0.22215E-03  6188   0.138E-01    0.334E-02
RMM:   3    -0.368626285345E+03    0.29118E-04   -0.28025E-04  6846   0.428E-02    0.258E-02
RMM:   4    -0.368626278272E+03    0.70722E-05   -0.64102E-05  5013   0.129E-02
  11 F= -.36862628E+03 E0= -.36863280E+03  d E =-.126563E-02
       N       E                     dE             d eps       ncg     rms          rms(c)
DAV:   1    -0.368628130956E+03   -0.18456E-02   -0.64937E-01  5080   0.220E+00    0.177E-01
RMM:   2    -0.368629770401E+03   -0.16394E-02   -0.20138E-02  6290   0.414E-01    0.103E-01
RMM:   3    -0.368629563322E+03    0.20708E-03   -0.29262E-03  7488   0.125E-01    0.838E-02
RMM:   4    -0.368629507797E+03    0.55525E-04   -0.65317E-04  7657   0.355E-02    0.538E-02
RMM:   5    -0.368629495360E+03    0.12438E-04   -0.24489E-04  6837   0.255E-02    0.264E-02
RMM:   6    -0.368629496077E+03   -0.71759E-06   -0.96974E-05  6052   0.169E-02
  12 F= -.36862950E+03 E0= -.36863584E+03  d E =-.448343E-02
       N       E                     dE             d eps       ncg     rms          rms(c)
DAV:   1    -0.368627830051E+03    0.16653E-02   -0.25998E+00  5040   0.441E+00    0.349E-01
RMM:   2    -0.368634353495E+03   -0.65234E-02   -0.80248E-02  6213   0.830E-01    0.197E-01
RMM:   3    -0.368633561865E+03    0.79163E-03   -0.11345E-02  7527   0.253E-01    0.161E-01
RMM:   4    -0.368633354555E+03    0.20731E-03   -0.24724E-03  8256   0.686E-02    0.104E-01
RMM:   5    -0.368633308254E+03    0.46301E-04   -0.92056E-04  7753   0.500E-02    0.541E-02
RMM:   6    -0.368633310749E+03   -0.24943E-05   -0.38108E-04  7492   0.338E-02    0.232E-02
RMM:   7    -0.368633308604E+03    0.21443E-05   -0.13218E-04  5586   0.159E-02    0.134E-02
RMM:   8    -0.368633310352E+03   -0.17477E-05   -0.46515E-05  3912   0.128E-02
  13 F= -.36863331E+03 E0= -.36863933E+03  d E =-.829771E-02
       N       E                     dE             d eps       ncg     rms          rms(c)
DAV:   1    -0.368608389007E+03    0.24920E-01   -0.10402E+01  5040   0.883E+00    0.706E-01
RMM:   2    -0.368634093395E+03   -0.25704E-01   -0.31960E-01  6149   0.167E+00    0.388E-01
RMM:   3    -0.368631336988E+03    0.27564E-02   -0.45254E-02  7538   0.508E-01    0.323E-01
RMM:   4    -0.368630430438E+03    0.90655E-03   -0.96632E-03  8382   0.137E-01    0.209E-01
RMM:   5    -0.368630248796E+03    0.18164E-03   -0.35916E-03  7979   0.100E-01    0.111E-01
RMM:   6    -0.368630248489E+03    0.30638E-06   -0.14929E-03  8036   0.677E-02    0.473E-02
RMM:   7    -0.368630242518E+03    0.59710E-05   -0.56152E-04  7736   0.310E-02    0.266E-02
RMM:   8    -0.368630247566E+03   -0.50477E-05   -0.17174E-04  5551   0.185E-02    0.173E-02
RMM:   9    -0.368630253450E+03   -0.58839E-05   -0.10612E-04  5008   0.157E-02    0.860E-03
RMM:  10    -0.368630255888E+03   -0.24383E-05   -0.33120E-05  3801   0.115E-02
  14 F= -.36863026E+03 E0= -.36863571E+03  d E =-.524325E-02
       N       E                     dE             d eps       ncg     rms          rms(c)
DAV:   1    -0.368622051475E+03    0.82020E-02   -0.57683E+00  5040   0.658E+00    0.529E-01
RMM:   2    -0.368636311670E+03   -0.14260E-01   -0.17628E-01  6044   0.124E+00    0.292E-01
RMM:   3    -0.368634563318E+03    0.17484E-02   -0.24298E-02  7519   0.384E-01    0.248E-01
RMM:   4    -0.368634036120E+03    0.52720E-03   -0.50651E-03  8273   0.100E-01    0.160E-01
RMM:   5    -0.368633920351E+03    0.11577E-03   -0.18775E-03  7914   0.731E-02    0.860E-02
RMM:   6    -0.368633905893E+03    0.14458E-04   -0.79770E-04  7845   0.512E-02    0.354E-02
RMM:   7    -0.368633895334E+03    0.10559E-04   -0.28445E-04  6850   0.223E-02    0.205E-02
RMM:   8    -0.368633894854E+03    0.48057E-06   -0.75440E-05  4454   0.154E-02
  15 F= -.36863389E+03 E0= -.36863976E+03  d E =-.888221E-02
       N       E                     dE             d eps       ncg     rms          rms(c)
DAV:   1    -0.368638359467E+03   -0.44641E-02   -0.62246E-01  5448   0.251E+00    0.621E-01
RMM:   2    -0.368638513373E+03   -0.15391E-03   -0.48011E-02  6953   0.599E-01    0.265E-01
RMM:   3    -0.368636130573E+03    0.23828E-02   -0.80646E-03  7667   0.191E-01    0.188E-01
RMM:   4    -0.368635337593E+03    0.79298E-03   -0.24825E-03  7784   0.103E-01    0.977E-02
RMM:   5    -0.368635197428E+03    0.14016E-03   -0.67055E-04  7575   0.575E-02    0.686E-02
RMM:   6    -0.368635190336E+03    0.70926E-05   -0.31428E-04  7210   0.297E-02    0.469E-02
RMM:   7    -0.368635172824E+03    0.17512E-04   -0.11143E-04  6246   0.203E-02    0.256E-02
RMM:   8    -0.368635171682E+03    0.11413E-05   -0.71741E-05  4761   0.144E-02
  16 F= -.36863517E+03 E0= -.36864100E+03  d E =-.127683E-02
       N       E                     dE             d eps       ncg     rms          rms(c)
DAV:   1    -0.368636443868E+03   -0.12710E-02   -0.30963E-01  5492   0.177E+00    0.433E-01
RMM:   2    -0.368636525575E+03   -0.81707E-04   -0.23738E-02  6901   0.421E-01    0.184E-01
RMM:   3    -0.368635356341E+03    0.11692E-02   -0.39605E-03  7653   0.134E-01    0.128E-01
RMM:   4    -0.368634985472E+03    0.37087E-03   -0.12350E-03  7759   0.722E-02    0.678E-02
RMM:   5    -0.368634923999E+03    0.61474E-04   -0.34517E-04  7475   0.402E-02    0.487E-02
RMM:   6    -0.368634921859E+03    0.21400E-05   -0.16067E-04  6610   0.215E-02    0.345E-02
RMM:   7    -0.368634913195E+03    0.86636E-05   -0.58147E-05  4731   0.151E-02
  17 F= -.36863491E+03 E0= -.36864072E+03  d E =-.101834E-02
       N       E                     dE             d eps       ncg     rms          rms(c)
DAV:   1    -0.368635846040E+03   -0.92418E-03   -0.12853E-01  5612   0.114E+00    0.289E-01
RMM:   2    -0.368635841544E+03    0.44956E-05   -0.10077E-02  7149   0.269E-01    0.124E-01
RMM:   3    -0.368635358768E+03    0.48278E-03   -0.17986E-03  7714   0.861E-02    0.892E-02
RMM:   4    -0.368635188307E+03    0.17046E-03   -0.54479E-04  7699   0.483E-02    0.449E-02
RMM:   5    -0.368635159538E+03    0.28770E-04   -0.14959E-04  6811   0.278E-02    0.300E-02
RMM:   6    -0.368635163492E+03   -0.39539E-05   -0.60778E-05  4345   0.143E-02
  18 F= -.36863516E+03 E0= -.36864099E+03  d E =-.126864E-02
       N       E                     dE             d eps       ncg     rms          rms(c)
DAV:   1    -0.368635529201E+03   -0.36966E-03   -0.11614E-01  5088   0.991E-01    0.775E-02
RMM:   2    -0.368635879901E+03   -0.35070E-03   -0.42688E-03  5977   0.193E-01    0.363E-02
RMM:   3    -0.368635852455E+03    0.27446E-04   -0.41314E-04  7199   0.578E-02    0.337E-02
RMM:   4    -0.368635844471E+03    0.79842E-05   -0.91386E-05  5455   0.157E-02
  19 F= -.36863584E+03 E0= -.36864163E+03  d E =-.680980E-03
       N       E                     dE             d eps       ncg     rms          rms(c)
DAV:   1    -0.368634381372E+03    0.14711E-02   -0.10434E+00  5152   0.297E+00    0.242E-01
RMM:   2    -0.368637531213E+03   -0.31498E-02   -0.39036E-02  6530   0.578E-01    0.129E-01
RMM:   3    -0.368637284159E+03    0.24705E-03   -0.41823E-03  7612   0.162E-01    0.112E-01
RMM:   4    -0.368637191956E+03    0.92203E-04   -0.97484E-04  8280   0.483E-02    0.715E-02
RMM:   5    -0.368637194771E+03   -0.28156E-05   -0.39784E-04  7784   0.362E-02    0.396E-02
RMM:   6    -0.368637185710E+03    0.90608E-05   -0.17575E-04  7336   0.242E-02    0.185E-02
RMM:   7    -0.368637188700E+03   -0.29891E-05   -0.46060E-05  4286   0.129E-02
  20 F= -.36863719E+03 E0= -.36864284E+03  d E =-.202521E-02
       N       E                     dE             d eps       ncg     rms          rms(c)
DAV:   1    -0.368625513055E+03    0.11673E-01   -0.41806E+00  5064   0.594E+00    0.486E-01
RMM:   2    -0.368638160283E+03   -0.12647E-01   -0.15624E-01  6484   0.116E+00    0.248E-01
RMM:   3    -0.368637174167E+03    0.98612E-03   -0.16340E-02  7598   0.328E-01    0.216E-01
RMM:   4    -0.368636817514E+03    0.35665E-03   -0.38118E-03  8331   0.944E-02    0.138E-01
RMM:   5    -0.368636811235E+03    0.62794E-05   -0.14721E-03  8047   0.674E-02    0.806E-02
RMM:   6    -0.368636767518E+03    0.43717E-04   -0.67815E-04  8244   0.483E-02    0.356E-02
RMM:   7    -0.368636776866E+03   -0.93479E-05   -0.22660E-04  6628   0.226E-02    0.258E-02
RMM:   8    -0.368636784106E+03   -0.72406E-05   -0.99546E-05  5497   0.181E-02
  21 F= -.36863678E+03 E0= -.36864221E+03  d E =-.162061E-02
       N       E                     dE             d eps       ncg     rms          rms(c)
DAV:   1    -0.368633294395E+03    0.34825E-02   -0.15960E+00  5040   0.367E+00    0.304E-01
RMM:   2    -0.368638208729E+03   -0.49143E-02   -0.59822E-02  6346   0.719E-01    0.151E-01
RMM:   3    -0.368637770771E+03    0.43796E-03   -0.60606E-03  7615   0.209E-01    0.139E-01
RMM:   4    -0.368637609616E+03    0.16115E-03   -0.13242E-03  8203   0.570E-02    0.901E-02
RMM:   5    -0.368637584693E+03    0.24923E-04   -0.50137E-04  7746   0.401E-02    0.529E-02
RMM:   6    -0.368637550500E+03    0.34193E-04   -0.23569E-04  7556   0.311E-02    0.209E-02
RMM:   7    -0.368637547099E+03    0.34018E-05   -0.69365E-05  4995   0.137E-02
  22 F= -.36863755E+03 E0= -.36864312E+03  d E =-.238361E-02
       N       E                     dE             d eps       ncg     rms          rms(c)
DAV:   1    -0.368638832323E+03   -0.12818E-02   -0.53337E-02  6616   0.790E-01    0.270E-01
RMM:   2    -0.368638653405E+03    0.17892E-03   -0.67370E-03  7611   0.215E-01    0.120E-01
RMM:   3    -0.368638131128E+03    0.52228E-03   -0.14149E-03  7829   0.647E-02    0.795E-02
RMM:   4    -0.368637997325E+03    0.13380E-03   -0.45506E-04  7541   0.464E-02    0.402E-02
RMM:   5    -0.368637974038E+03    0.23286E-04   -0.11520E-04  6560   0.243E-02    0.272E-02
RMM:   6    -0.368637979526E+03   -0.54874E-05   -0.43123E-05  3916   0.128E-02
  23 F= -.36863798E+03 E0= -.36864351E+03  d E =-.432427E-03
       N       E                     dE             d eps       ncg     rms          rms(c)
DAV:   1    -0.368638827884E+03   -0.85385E-03   -0.50209E-02  6472   0.770E-01    0.253E-01
RMM:   2    -0.368638642574E+03    0.18531E-03   -0.59504E-03  7589   0.206E-01    0.109E-01
RMM:   3    -0.368638186093E+03    0.45648E-03   -0.11872E-03  7811   0.602E-02    0.717E-02
RMM:   4    -0.368638081310E+03    0.10478E-03   -0.39877E-04  7417   0.439E-02    0.375E-02
RMM:   5    -0.368638067867E+03    0.13443E-04   -0.10272E-04  6235   0.234E-02    0.274E-02
RMM:   6    -0.368638077771E+03   -0.99039E-05   -0.41365E-05  3891   0.125E-02
  24 F= -.36863808E+03 E0= -.36864357E+03  d E =-.530672E-03
       N       E                     dE             d eps       ncg     rms          rms(c)
DAV:   1    -0.368638400406E+03   -0.33254E-03   -0.60935E-02  5096   0.740E-01    0.115E-01
RMM:   2    -0.368638573308E+03   -0.17290E-03   -0.33805E-03  7444   0.159E-01    0.584E-02
RMM:   3    -0.370278808638E+03   -0.16402E+01   -0.16403E+01  7506   0.445E-02    0.166E+01
RMM:   4    -0.368311932922E+03    0.19669E+01   -0.89293E-05  5218   0.160E-02    0.123E-01
RMM:   5    -0.368438593599E+03   -0.12666E+00   -0.89875E-04  7172   0.385E-02    0.925E-02
RMM:   6    -0.368594592379E+03   -0.15600E+00   -0.21423E+00  6601   0.615E-02    0.494E-02
RMM:   7    -0.368632076281E+03   -0.37484E-01   -0.38105E-01  6150   0.320E-02    0.347E-02
RMM:   8    -0.368636055068E+03   -0.39788E-02   -0.45408E-02  3699   0.196E-02    0.297E-02
RMM:   9    -0.368637660833E+03   -0.16058E-02   -0.16814E-02  2846   0.124E-02    0.281E-02
RMM:  10    -0.368638128347E+03   -0.46751E-03   -0.51016E-03  2817   0.118E-02    0.255E-02
RMM:  11    -0.368638339528E+03   -0.21118E-03   -0.22663E-03  2799   0.102E-02    0.197E-02
RMM:  12    -0.368638409662E+03   -0.70134E-04   -0.82470E-04  2869   0.117E-02    0.127E-02
RMM:  13    -0.368638444666E+03   -0.35004E-04   -0.38642E-04  2776   0.115E-02    0.112E-02
RMM:  14    -0.368638458723E+03   -0.14057E-04   -0.15657E-04  2501   0.867E-03    0.112E-02
RMM:  15    -0.368638465421E+03   -0.66982E-05   -0.74048E-05  2141   0.698E-03
  25 F= -.36863847E+03 E0= -.36864393E+03  d E =-.387650E-03
       N       E                     dE             d eps       ncg     rms          rms(c)
DAV:   1    -0.368638509859E+03   -0.51136E-04   -0.18240E-01  5064   0.128E+00    0.188E-01
RMM:   2    -0.368638979768E+03   -0.46991E-03   -0.97048E-03  7232   0.270E-01    0.897E-02
RMM:   3    -0.368638796199E+03    0.18357E-03   -0.10215E-03  7446   0.751E-02    0.656E-02
RMM:   4    -0.368638714641E+03    0.81558E-04   -0.32918E-04  7411   0.335E-02    0.345E-02
RMM:   5    -0.368638700774E+03    0.13867E-04   -0.12133E-04  6587   0.207E-02    0.220E-02
RMM:   6    -0.368638695903E+03    0.48714E-05   -0.41938E-05  4018   0.121E-02
  26 F= -.36863870E+03 E0= -.36864413E+03  d E =-.618132E-03
       N       E                     dE             d eps       ncg     rms          rms(c)
DAV:   1    -0.368638881864E+03   -0.18109E-03   -0.26407E-02  5136   0.493E-01    0.840E-02
RMM:   2    -0.368638924877E+03   -0.43012E-04   -0.15165E-03  6583   0.107E-01    0.355E-02
RMM:   3    -0.368638889637E+03    0.35240E-04   -0.17283E-04  6814   0.322E-02    0.272E-02
RMM:   4    -0.368638872647E+03    0.16990E-04   -0.53587E-05  4392   0.161E-02    0.155E-02
RMM:   5    -0.368638868261E+03    0.43864E-05   -0.16858E-05  2990   0.114E-02
  27 F= -.36863887E+03 E0= -.36864431E+03  d E =-.172358E-03
       N       E                     dE             d eps       ncg     rms          rms(c)
DAV:   1    -0.368639072948E+03   -0.20030E-03   -0.10598E-01  5176   0.988E-01    0.175E-01
RMM:   2    -0.368639243417E+03   -0.17047E-03   -0.62226E-03  6823   0.214E-01    0.758E-02
RMM:   3    -0.368639100495E+03    0.14292E-03   -0.77360E-04  7576   0.640E-02    0.563E-02
RMM:   4    -0.368639035085E+03    0.65410E-04   -0.25614E-04  7362   0.306E-02    0.307E-02
RMM:   5    -0.368639024624E+03    0.10462E-04   -0.88220E-05  6085   0.185E-02    0.219E-02
RMM:   6    -0.368639019967E+03    0.46569E-05   -0.33726E-05  3652   0.114E-02
  28 F= -.36863902E+03 E0= -.36864446E+03  d E =-.324064E-03
       N       E                     dE             d eps       ncg     rms          rms(c)
DAV:   1    -0.368639145949E+03   -0.12133E-03   -0.94441E-03  5632   0.298E-01    0.677E-02
RMM:   2    -0.368639165530E+03   -0.19581E-04   -0.70249E-04  7569   0.693E-02    0.342E-02
RMM:   3    -0.368639131427E+03    0.34102E-04   -0.12527E-04  6295   0.228E-02    0.237E-02
RMM:   4    -0.368639120951E+03    0.10476E-04   -0.34281E-05  3647   0.148E-02    0.119E-02
RMM:   5    -0.368639119320E+03    0.16310E-05   -0.10965E-05  2863   0.107E-02
  29 F= -.36863912E+03 E0= -.36864456E+03  d E =-.993538E-04
       N       E                     dE             d eps       ncg     rms          rms(c)
DAV:   1    -0.368639474169E+03   -0.35322E-03   -0.84192E-02  5192   0.898E-01    0.184E-01
RMM:   2    -0.368639695589E+03   -0.22142E-03   -0.57566E-03  7424   0.203E-01    0.924E-02
RMM:   3    -0.368639368579E+03    0.32701E-03   -0.84902E-04  7576   0.637E-02    0.578E-02
RMM:   4    -0.368639308346E+03    0.60233E-04   -0.24325E-04  7481   0.314E-02    0.299E-02
RMM:   5    -0.368639300915E+03    0.74313E-05   -0.76654E-05  6305   0.181E-02
  30 F= -.36863930E+03 E0= -.36864471E+03  d E =-.280948E-03
       N       E                     dE             d eps       ncg     rms          rms(c)
DAV:   1    -0.368639752873E+03   -0.44453E-03   -0.33665E-01  5168   0.180E+00    0.367E-01
RMM:   2    -0.368640637344E+03   -0.88447E-03   -0.22856E-02  7391   0.405E-01    0.184E-01
RMM:   3    -0.368639315451E+03    0.13219E-02   -0.33034E-03  7648   0.127E-01    0.114E-01
RMM:   4    -0.368639075743E+03    0.23971E-03   -0.95205E-04  7677   0.628E-02    0.597E-02
RMM:   5    -0.368639047490E+03    0.28253E-04   -0.31617E-04  7665   0.354E-02    0.437E-02
RMM:   6    -0.368639058416E+03   -0.10926E-04   -0.14116E-04  6420   0.196E-02    0.286E-02
RMM:   7    -0.368639068004E+03   -0.95878E-05   -0.58954E-05  4503   0.147E-02
  31 F= -.36863907E+03 E0= -.36864444E+03  d E =-.480373E-04
       N       E                     dE             d eps       ncg     rms          rms(c)
DAV:   1    -0.368639721788E+03   -0.66337E-03   -0.16206E-01  5280   0.125E+00    0.264E-01
RMM:   2    -0.368640189546E+03   -0.46776E-03   -0.11238E-02  7358   0.285E-01    0.132E-01
RMM:   3    -0.368639532066E+03    0.65748E-03   -0.16724E-03  7596   0.912E-02    0.844E-02
RMM:   4    -0.368639389589E+03    0.14248E-03   -0.46989E-04  7683   0.446E-02    0.420E-02
RMM:   5    -0.368639359350E+03    0.30239E-04   -0.14051E-04  7163   0.253E-02    0.285E-02
RMM:   6    -0.368639351013E+03    0.83370E-05   -0.49565E-05  4432   0.136E-02
  32 F= -.36863935E+03 E0= -.36864475E+03  d E =-.331046E-03
       N       E                     dE             d eps       ncg     rms          rms(c)
DAV:   1    -0.368639351209E+03    0.81409E-05   -0.24411E-03  5312   0.153E-01    0.284E-02
RMM:   2    -0.368639357204E+03   -0.59958E-05   -0.16953E-04  7003   0.342E-02    0.152E-02
RMM:   3    -0.368639346705E+03    0.10500E-04   -0.19926E-05  3190   0.114E-02    0.102E-02
RMM:   4    -0.368639343907E+03    0.27982E-05   -0.96028E-06  2719   0.108E-02
  33 F= -.36863934E+03 E0= -.36864475E+03  d E =-.323940E-03
       N       E                     dE             d eps       ncg     rms          rms(c)
DAV:   1    -0.368639366522E+03   -0.19817E-04   -0.11329E-02  5244   0.304E-01    0.191E-02
RMM:   2    -0.368639396229E+03   -0.29708E-04   -0.36073E-04  5295   0.575E-02    0.862E-03
RMM:   3    -0.368639392653E+03    0.35758E-05   -0.20667E-05  2932   0.179E-02
  34 F= -.36863939E+03 E0= -.36864479E+03  d E =-.487467E-04
       N       E                     dE             d eps       ncg     rms          rms(c)
DAV:   1    -0.368639385621E+03    0.10608E-04   -0.28373E-02  5184   0.478E-01    0.306E-02
RMM:   2    -0.368639465299E+03   -0.79678E-04   -0.95840E-04  6305   0.891E-02    0.175E-02
RMM:   3    -0.368639459399E+03    0.58992E-05   -0.99300E-05  5285   0.273E-02
  35 F= -.36863946E+03 E0= -.36864484E+03  d E =-.115493E-03
       N       E                     dE             d eps       ncg     rms          rms(c)
DAV:   1    -0.368639237516E+03    0.22778E-03   -0.11298E-01  5168   0.957E-01    0.627E-02
RMM:   2    -0.368639557088E+03   -0.31957E-03   -0.38278E-03  6525   0.183E-01    0.364E-02
RMM:   3    -0.368639549167E+03    0.79210E-05   -0.46835E-04  7051   0.516E-02    0.295E-02
RMM:   4    -0.368639549313E+03   -0.14592E-06   -0.11320E-04  5573   0.152E-02    0.218E-02
RMM:   5    -0.368639547092E+03    0.22208E-05   -0.34676E-05  3739   0.112E-02
  36 F= -.36863955E+03 E0= -.36864491E+03  d E =-.203185E-03
       N       E                     dE             d eps       ncg     rms          rms(c)
DAV:   1    -0.368638315563E+03    0.12338E-02   -0.45077E-01  5152   0.191E+00    0.123E-01
RMM:   2    -0.368639587730E+03   -0.12722E-02   -0.14961E-02  6196   0.365E-01    0.636E-02
RMM:   3    -0.368639558858E+03    0.28872E-04   -0.17566E-03  7458   0.106E-01    0.564E-02
RMM:   4    -0.368639549641E+03    0.92172E-05   -0.38705E-04  7452   0.262E-02    0.413E-02
RMM:   5    -0.368639546353E+03    0.32876E-05   -0.11873E-04  6485   0.183E-02    0.243E-02
RMM:   6    -0.368639539479E+03    0.68747E-05   -0.54863E-05  5184   0.154E-02
  37 F= -.36863954E+03 E0= -.36864486E+03  d E =-.195572E-03
       N       E                     dE             d eps       ncg     rms          rms(c)
DAV:   1    -0.368639202707E+03    0.34365E-03   -0.14514E-01  5160   0.109E+00    0.687E-02
RMM:   2    -0.368639594858E+03   -0.39215E-03   -0.46335E-03  5628   0.205E-01    0.342E-02
RMM:   3    -0.368639577365E+03    0.17492E-04   -0.46866E-04  7049   0.616E-02    0.312E-02
RMM:   4    -0.368639571706E+03    0.56589E-05   -0.99878E-05  5555   0.147E-02
  38 F= -.36863957E+03 E0= -.36864491E+03  d E =-.227800E-03
       N       E                     dE             d eps       ncg     rms          rms(c)
DAV:   1    -0.368639631641E+03   -0.54276E-04   -0.33666E-02  5072   0.532E-01    0.731E-02
RMM:   2    -0.368639689373E+03   -0.57731E-04   -0.14327E-03  7386   0.108E-01    0.353E-02
RMM:   3    -0.368639669107E+03    0.20266E-04   -0.16107E-04  6927   0.294E-02    0.269E-02
RMM:   4    -0.368639656005E+03    0.13102E-04   -0.42249E-05  4715   0.151E-02    0.128E-02
RMM:   5    -0.368639656854E+03   -0.84858E-06   -0.14115E-05  2876   0.974E-03
  39 F= -.36863966E+03 E0= -.36864496E+03  d E =-.851475E-04
       N       E                     dE             d eps       ncg     rms          rms(c)
DAV:   1    -0.368639661738E+03   -0.57321E-05   -0.11159E-02  5160   0.306E-01    0.409E-02
RMM:   2    -0.368639687282E+03   -0.25545E-04   -0.50832E-04  7470   0.620E-02    0.218E-02
RMM:   3    -0.368639678209E+03    0.90731E-05   -0.65316E-05  5246   0.165E-02
  40 F= -.36863968E+03 E0= -.36864495E+03  d E =-.106503E-03
       N       E                     dE             d eps       ncg     rms          rms(c)
DAV:   1    -0.368639606733E+03    0.80549E-04   -0.44583E-02  5072   0.608E-01    0.849E-02
RMM:   2    -0.368639696626E+03   -0.89893E-04   -0.20219E-03  7557   0.124E-01    0.448E-02
RMM:   3    -0.368639658411E+03    0.38215E-04   -0.26872E-04  7248   0.327E-02    0.325E-02
RMM:   4    -0.368639645335E+03    0.13076E-04   -0.82492E-05  6083   0.180E-02    0.173E-02
RMM:   5    -0.368639646230E+03   -0.89437E-06   -0.29924E-05  3488   0.112E-02
  41 F= -.36863965E+03 E0= -.36864488E+03  d E =-.745232E-04
       N       E                     dE             d eps       ncg     rms          rms(c)
DAV:   1    -0.368639667629E+03   -0.22294E-04   -0.23023E-02  5072   0.439E-01    0.627E-02
RMM:   2    -0.368639726739E+03   -0.59110E-04   -0.10309E-03  7238   0.905E-02    0.314E-02
RMM:   3    -0.368639699510E+03    0.27229E-04   -0.11376E-04  6248   0.264E-02    0.234E-02
RMM:   4    -0.368639689171E+03    0.10339E-04   -0.26466E-05  3055   0.146E-02    0.115E-02
RMM:   5    -0.368639687046E+03    0.21244E-05   -0.83235E-06  2653   0.985E-03
  42 F= -.36863969E+03 E0= -.36864496E+03  d E =-.115340E-03
       N       E                     dE             d eps       ncg     rms          rms(c)
DAV:   1    -0.368639793813E+03   -0.10464E-03   -0.21625E-02  5296   0.439E-01    0.905E-02
RMM:   2    -0.368639820105E+03   -0.26292E-04   -0.12670E-03  6713   0.970E-02    0.417E-02
RMM:   3    -0.368639761317E+03    0.58788E-04   -0.17133E-04  6612   0.308E-02    0.287E-02
RMM:   4    -0.368639741951E+03    0.19366E-04   -0.53405E-05  4376   0.179E-02    0.154E-02
RMM:   5    -0.368639736891E+03    0.50604E-05   -0.14502E-05  2860   0.124E-02
  43 F= -.36863974E+03 E0= -.36864499E+03  d E =-.498444E-04
       N       E                     dE             d eps       ncg     rms          rms(c)
DAV:   1    -0.368639747028E+03   -0.50769E-05   -0.29224E-03  5360   0.163E-01    0.309E-02
RMM:   2    -0.368639751804E+03   -0.47763E-05   -0.17643E-04  6833   0.344E-02    0.156E-02
RMM:   3    -0.368639741480E+03    0.10324E-04   -0.16549E-05  3018   0.112E-02    0.102E-02
RMM:   4    -0.368639738525E+03    0.29551E-05   -0.80386E-06  2742   0.107E-02
  44 F= -.36863974E+03 E0= -.36864498E+03  d E =-.514790E-04
       N       E                     dE             d eps       ncg     rms          rms(c)
DAV:   1    -0.368639764161E+03   -0.22680E-04   -0.23293E-03  5216   0.150E-01    0.300E-02
RMM:   2    -0.368639765452E+03   -0.12909E-05   -0.14762E-04  7180   0.336E-02    0.136E-02
RMM:   3    -0.368639757778E+03    0.76739E-05   -0.13812E-05  2763   0.103E-02
  45 F= -.36863976E+03 E0= -.36864502E+03  d E =-.192524E-04
