 vasp.5.4.1 05Feb16 (build Jan 29 2020 16:04:39) complex                        
  
 executed on           IFC91_ompi date 2020.06.15  05:14:57
 running on  160 total cores
 distrk:  each k-point on   20 cores,    8 groups
 distr:  one band on NCORES_PER_BAND=   5 cores,    4 groups


--------------------------------------------------------------------------------------------------------


 INCAR:
 POTCAR:    PAW_PBE Ta 17Jan2003                  
 POTCAR:    PAW_PBE Nb_sv 25May2007               
 POTCAR:    PAW_PBE Zr_sv 04Jan2005               
 POTCAR:    PAW_PBE Hf 20Jan2003                  

 ----------------------------------------------------------------------------- 
|                                                                             |
|           W    W    AA    RRRRR   N    N  II  N    N   GGGG   !!!           |
|           W    W   A  A   R    R  NN   N  II  NN   N  G    G  !!!           |
|           W    W  A    A  R    R  N N  N  II  N N  N  G       !!!           |
|           W WW W  AAAAAA  RRRRR   N  N N  II  N  N N  G  GGG   !            |
|           WW  WW  A    A  R   R   N   NN  II  N   NN  G    G                |
|           W    W  A    A  R    R  N    N  II  N    N   GGGG   !!!           |
|                                                                             |
|      For optimal performance we recommend to set                            |
|        NCORE= 4 - approx SQRT( number of cores)                             |
|      NCORE specifies how many cores store one orbital (NPAR=cpu/NCORE).     |
|      This setting can  greatly improve the performance of VASP for DFT.     |
|      The default, NPAR=number of cores might be grossly inefficient         |
|      on modern multi-core architectures or massively parallel machines.     |
|      Do your own testing !!!!                                               |
|      Unfortunately you need to use the default for GW and RPA calculations. |
|      (for HF NCORE is supported but not extensively tested yet)             |
|                                                                             |
 ----------------------------------------------------------------------------- 


 ----------------------------------------------------------------------------- 
|                                                                             |
|           W    W    AA    RRRRR   N    N  II  N    N   GGGG   !!!           |
|           W    W   A  A   R    R  NN   N  II  NN   N  G    G  !!!           |
|           W    W  A    A  R    R  N N  N  II  N N  N  G       !!!           |
|           W WW W  AAAAAA  RRRRR   N  N N  II  N  N N  G  GGG   !            |
|           WW  WW  A    A  R   R   N   NN  II  N   NN  G    G                |
|           W    W  A    A  R    R  N    N  II  N    N   GGGG   !!!           |
|                                                                             |
|      You have enabled k-point parallelism (KPAR>1).                         |
|      This developmental code was originally  written by Paul Kent at ORNL,  |
|      and carefully double checked in Vienna.                                |
|      GW as well as linear response parallelism added by Martijn Marsman     |
|      and Georg Kresse.                                                      |
|      Carefully verify results versus KPAR=1.                                |
|      Report problems to Paul Kent and Vienna.                               |
|                                                                             |
 ----------------------------------------------------------------------------- 

 POTCAR:    PAW_PBE Ta 17Jan2003                  
   VRHFIN =Ta:  6s5d                                                            
   LEXCH  = PE                                                                  
   EATOM  =   130.6506 eV,    9.6025 Ry                                         
                                                                                
   TITEL  = PAW_PBE Ta 17Jan2003                                                
   LULTRA =        F    use ultrasoft PP ?                                      
   IUNSCR =        1    unscreen: 0-lin 1-nonlin 2-no                           
   RPACOR =    2.330    partial core radius                                     
   POMASS =  180.948; ZVAL   =    5.000    mass and valenz                      
   RCORE  =    2.900    outmost cutoff radius                                   
   RWIGS  =    2.840; RWIGS  =    1.503    wigner-seitz radius (au A)           
   ENMAX  =  223.667; ENMIN  =  167.750 eV                                      
   RCLOC  =    2.205    cutoff for local pot                                    
   LCOR   =        T    correct aug charges                                     
   LPAW   =        T    paw PP                                                  
   EAUG   =  332.075                                                            
   DEXC   =    0.000                                                            
   RMAX   =    2.970    core radius for proj-oper                               
   RAUG   =    1.300    factor for augmentation sphere                          
   RDEP   =    3.060    radius for radial grids                                 
   RDEPT  =    2.354    core radius for aug-charge                              
                                                                                
   Atomic configuration                                                         
   16 entries                                                                   
     n  l   j            E        occ.                                          
     1  0  0.50    -67341.2807   2.0000                                         
     2  0  0.50    -11566.9376   2.0000                                         
     2  1  1.50    -10134.1182   6.0000                                         
     3  0  0.50     -2648.5620   2.0000                                         
     3  1  1.50     -2222.6012   6.0000                                         
     3  2  2.50     -1726.3120  10.0000                                         
     4  0  0.50      -538.6961   2.0000                                         
     4  1  1.50      -399.0129   6.0000                                         
     4  2  2.50      -220.3959  10.0000                                         
     4  3  3.50       -23.0374  14.0000                                         
     5  0  0.50       -71.2901   2.0000                                         
     5  1  1.50       -37.8225   6.0000                                         
     5  2  2.50        -2.6455   4.0000                                         
     6  0  0.50        -4.9623   1.0000                                         
     6  1  1.50        -1.3606   0.0000                                         
     5  3  2.50        -1.3606   0.0000                                         
   Description                                                                  
     l       E           TYP  RCUT    TYP  RCUT                                 
     2     -2.6455043     23  2.500                                             
     2     -0.6258895     23  2.500                                             
     0     -4.9622780     23  2.500                                             
     0      4.7531321     23  2.500                                             
     1     -1.3605826     23  2.900                                             
     1     27.2116520     23  2.900                                             
  local pseudopotential read in
  partial core-charges read in
  partial kinetic energy density read in
  atomic valenz-charges read in
  non local Contribution for L=           2  read in
    real space projection operators read in
  non local Contribution for L=           2  read in
    real space projection operators read in
  non local Contribution for L=           0  read in
    real space projection operators read in
  non local Contribution for L=           0  read in
    real space projection operators read in
  non local Contribution for L=           1  read in
    real space projection operators read in
  non local Contribution for L=           1  read in
    real space projection operators read in
    PAW grid and wavefunctions read in
 
   number of l-projection  operators is LMAX  =           6
   number of lm-projection operators is LMMAX =          18
 
 POTCAR:    PAW_PBE Nb_sv 25May2007               
   VRHFIN =Nb: 4p5s4d                                                           
   LEXCH  = PE                                                                  
   EATOM  =  1555.1913 eV,  114.3033 Ry                                         
                                                                                
   TITEL  = PAW_PBE Nb_sv 25May2007                                             
   LULTRA =        F    use ultrasoft PP ?                                      
   IUNSCR =        1    unscreen: 0-lin 1-nonlin 2-no                           
   RPACOR =    1.800    partial core radius                                     
   POMASS =   92.910; ZVAL   =   13.000    mass and valenz                      
   RCORE  =    2.400    outmost cutoff radius                                   
   RWIGS  =    2.400; RWIGS  =    1.270    wigner-seitz radius (au A)           
   ENMAX  =  293.235; ENMIN  =  219.927 eV                                      
   ICORE  =        3    local potential                                         
   LCOR   =        T    correct aug charges                                     
   LPAW   =        T    paw PP                                                  
   EAUG   =  455.659                                                            
   DEXC   =    0.000                                                            
   RMAX   =    2.456    core radius for proj-oper                               
   RAUG   =    1.300    factor for augmentation sphere                          
   RDEP   =    2.451    radius for radial grids                                 
   RDEPT  =    1.956    core radius for aug-charge                              
                                                                                
   Atomic configuration                                                         
   11 entries                                                                   
     n  l   j            E        occ.                                          
     1  0  0.50    -18805.2457   2.0000                                         
     2  0  0.50     -2630.2869   2.0000                                         
     2  1  1.50     -2348.4046   6.0000                                         
     3  0  0.50      -438.8757   2.0000                                         
     3  1  1.50      -346.7588   6.0000                                         
     3  2  2.50      -196.2560  10.0000                                         
     4  0  0.50       -58.3859   2.0000                                         
     5  0  0.50        -3.9816   1.0000                                         
     4  1  1.50       -34.5141   6.0000                                         
     4  2  2.50        -3.0408   4.0000                                         
     4  3  2.50        -1.3606   0.0000                                         
   Description                                                                  
     l       E           TYP  RCUT    TYP  RCUT                                 
     0    -58.3859094     23  2.200                                             
     0     -3.9816262     23  2.200                                             
     1    -34.5140738     23  2.200                                             
     1     13.6058260     23  2.200                                             
     2     -3.0408010     23  2.200                                             
     2     -0.1283038     23  2.200                                             
     3     -1.3605826     23  2.400                                             
  local pseudopotential read in
  partial core-charges read in
  partial kinetic energy density read in
  atomic valenz-charges read in
  non local Contribution for L=           0  read in
    real space projection operators read in
  non local Contribution for L=           0  read in
    real space projection operators read in
  non local Contribution for L=           1  read in
    real space projection operators read in
  non local Contribution for L=           1  read in
    real space projection operators read in
  non local Contribution for L=           2  read in
    real space projection operators read in
  non local Contribution for L=           2  read in
    real space projection operators read in
    PAW grid and wavefunctions read in
 
   number of l-projection  operators is LMAX  =           6
   number of lm-projection operators is LMMAX =          18
 
 POTCAR:    PAW_PBE Zr_sv 04Jan2005               
   VRHFIN =Zr: 4s4p5s4d                                                         
   LEXCH  = PE                                                                  
   EATOM  =  1284.2219 eV,   94.3876 Ry                                         
                                                                                
   TITEL  = PAW_PBE Zr_sv 04Jan2005                                             
   LULTRA =        F    use ultrasoft PP ?                                      
   IUNSCR =        1    unscreen: 0-lin 1-nonlin 2-no                           
   RPACOR =    2.200    partial core radius                                     
   POMASS =   91.224; ZVAL   =   12.000    mass and valenz                      
   RCORE  =    2.500    outmost cutoff radius                                   
   RWIGS  =    3.070; RWIGS  =    1.625    wigner-seitz radius (au A)           
   ENMAX  =  229.898; ENMIN  =  172.424 eV                                      
   ICORE  =        3    local potential                                         
   LCOR   =        T    correct aug charges                                     
   LPAW   =        T    paw PP                                                  
   EAUG   =  461.257                                                            
   DEXC   =    0.000                                                            
   RMAX   =    2.561    core radius for proj-oper                               
   RAUG   =    1.300    factor for augmentation sphere                          
   RDEP   =    2.597    radius for radial grids                                 
   RDEPT  =    2.007    core radius for aug-charge                              
                                                                                
   Atomic configuration                                                         
   11 entries                                                                   
     n  l   j            E        occ.                                          
     1  0  0.50    -17820.0161   2.0000                                         
     2  0  0.50     -2467.0882   2.0000                                         
     2  1  1.50     -2199.6095   6.0000                                         
     3  0  0.50      -402.4863   2.0000                                         
     3  1  1.50      -315.3675   6.0000                                         
     3  2  2.50      -172.4472  10.0000                                         
     4  0  0.50       -52.4146   2.0000                                         
     5  0  0.50        -3.8421   1.0000                                         
     4  1  1.50       -30.5054   6.0000                                         
     4  2  2.50        -2.3341   3.0000                                         
     4  3  2.50        -1.3606   0.0000                                         
   Description                                                                  
     l       E           TYP  RCUT    TYP  RCUT                                 
     0    -52.4145962     23  2.200                                             
     0     -3.8421270     23  2.500                                             
     1    -30.5053914     23  2.200                                             
     1     20.4087390     23  2.200                                             
     2     -2.3340816     23  2.500                                             
     2     -0.6120942     23  2.500                                             
     3     -4.0817478     23  2.500                                             
  local pseudopotential read in
  partial core-charges read in
  partial kinetic energy density read in
  atomic valenz-charges read in
  non local Contribution for L=           0  read in
    real space projection operators read in
  non local Contribution for L=           0  read in
    real space projection operators read in
  non local Contribution for L=           1  read in
    real space projection operators read in
  non local Contribution for L=           1  read in
    real space projection operators read in
  non local Contribution for L=           2  read in
    real space projection operators read in
  non local Contribution for L=           2  read in
    real space projection operators read in
    PAW grid and wavefunctions read in
 
   number of l-projection  operators is LMAX  =           6
   number of lm-projection operators is LMMAX =          18
 
 POTCAR:    PAW_PBE Hf 20Jan2003                  
   VRHFIN =Hf: 6s5d                                                             
   LEXCH  = PE                                                                  
   EATOM  =    75.9011 eV,    5.5786 Ry                                         
                                                                                
   TITEL  = PAW_PBE Hf 20Jan2003                                                
   LULTRA =        F    use ultrasoft PP ?                                      
   IUNSCR =        1    unscreen: 0-lin 1-nonlin 2-no                           
   RPACOR =    2.500    partial core radius                                     
   POMASS =  178.490; ZVAL   =    4.000    mass and valenz                      
   RCORE  =    3.000    outmost cutoff radius                                   
   RWIGS  =    3.050; RWIGS  =    1.614    wigner-seitz radius (au A)           
   ENMAX  =  220.334; ENMIN  =  165.250 eV                                      
   RCLOC  =    2.212    cutoff for local pot                                    
   LCOR   =        T    correct aug charges                                     
   LPAW   =        T    paw PP                                                  
   EAUG   =  335.116                                                            
   DEXC   =    0.000                                                            
   RMAX   =    3.077    core radius for proj-oper                               
   RAUG   =    1.300    factor for augmentation sphere                          
   RDEP   =    3.047    radius for radial grids                                 
   RDEPT  =    2.344    core radius for aug-charge                              
                                                                                
   Atomic configuration                                                         
   16 entries                                                                   
     n  l   j            E        occ.                                          
     1  0  0.50    -65259.4397   2.0000                                         
     2  0  0.50    -11157.9882   2.0000                                         
     2  1  1.50     -9795.2113   6.0000                                         
     3  0  0.50     -2541.4058   2.0000                                         
     3  1  1.50     -2134.4770   6.0000                                         
     3  2  2.50     -1653.5418  10.0000                                         
     4  0  0.50      -510.9575   2.0000                                         
     4  1  1.50      -377.5023   6.0000                                         
     4  2  2.50      -205.2085  10.0000                                         
     4  3  3.50       -15.4905  14.0000                                         
     5  0  0.50       -65.6020   2.0000                                         
     5  1  1.50       -34.2798   6.0000                                         
     5  2  2.50        -1.9877   3.0000                                         
     6  0  0.50        -4.7357   1.0000                                         
     6  1  1.50        -1.3606   0.0000                                         
     5  3  2.50        -1.3606   0.0000                                         
   Description                                                                  
     l       E           TYP  RCUT    TYP  RCUT                                 
     2     -1.9876627     23  2.500                                             
     2      0.0744703     23  2.500                                             
     0     -4.7356889     23  2.600                                             
     0      3.2364747     23  2.600                                             
     1     -1.3605826     23  3.000                                             
     1     27.2116520     23  3.000                                             
  local pseudopotential read in
  partial core-charges read in
  partial kinetic energy density read in
  atomic valenz-charges read in
  non local Contribution for L=           2  read in
    real space projection operators read in
  non local Contribution for L=           2  read in
    real space projection operators read in
  non local Contribution for L=           0  read in
    real space projection operators read in
  non local Contribution for L=           0  read in
    real space projection operators read in
  non local Contribution for L=           1  read in
    real space projection operators read in
  non local Contribution for L=           1  read in
    real space projection operators read in
    PAW grid and wavefunctions read in
 
   number of l-projection  operators is LMAX  =           6
   number of lm-projection operators is LMMAX =          18
 
 Optimization of the real space projectors (new method)

 maximal supplied QI-value         = 12.85
 optimisation between [QCUT,QGAM] = [  8.87, 17.73] = [ 22.01, 88.06] Ry 
 Optimized for a Real-space Cutoff    1.90 Angstroem

   l    n(q)    QCUT    max X(q) W(low)/X(q) W(high)/X(q)  e(spline) 
   2      9     8.867    62.315    0.23E-03    0.62E-04    0.11E-05
   2      9     8.867    52.185    0.23E-03    0.62E-04    0.11E-05
   0     10     8.867   103.837    0.15E-04    0.23E-04    0.98E-07
   0     10     8.867    59.728    0.12E-04    0.21E-04    0.89E-07
   1     10     8.867    13.958    0.50E-04    0.22E-04    0.14E-06
   1     10     8.867     8.441    0.36E-04    0.19E-04    0.98E-07
 Optimization of the real space projectors (new method)

 maximal supplied QI-value         = 15.68
 optimisation between [QCUT,QGAM] = [  8.78, 17.72] = [ 21.60, 87.97] Ry 
 Optimized for a Real-space Cutoff    1.96 Angstroem

   l    n(q)    QCUT    max X(q) W(low)/X(q) W(high)/X(q)  e(spline) 
   0     10     8.783    10.201    0.29E-04    0.25E-05    0.69E-07
   0     10     8.783     8.174    0.45E-04    0.57E-05    0.14E-06
   1     10     8.783     3.488    0.76E-05    0.24E-04    0.95E-07
   1     10     8.783     4.917    0.78E-04    0.14E-03    0.46E-06
   2      9     8.783   153.744    0.22E-03    0.34E-04    0.15E-05
   2      9     8.783   126.342    0.22E-03    0.35E-04    0.15E-05
 Optimization of the real space projectors (new method)

 maximal supplied QI-value         = 15.12
 optimisation between [QCUT,QGAM] = [  8.77, 17.69] = [ 21.53, 87.61] Ry 
 Optimized for a Real-space Cutoff    1.74 Angstroem

   l    n(q)    QCUT    max X(q) W(low)/X(q) W(high)/X(q)  e(spline) 
   0      9     8.768    12.107    0.28E-04    0.53E-06    0.29E-07
   0      9     8.768     9.948    0.36E-04    0.50E-05    0.64E-07
   1      9     8.768     3.563    0.14E-04    0.16E-04    0.88E-07
   1      9     8.768     4.524    0.21E-03    0.33E-03    0.19E-06
   2      8     8.768    87.261    0.19E-03    0.25E-03    0.24E-06
   2      8     8.768    70.950    0.19E-03    0.24E-03    0.24E-06
 Optimization of the real space projectors (new method)

 maximal supplied QI-value         = 12.47
 optimisation between [QCUT,QGAM] = [  8.86, 17.71] = [ 21.96, 87.83] Ry 
 Optimized for a Real-space Cutoff    1.90 Angstroem

   l    n(q)    QCUT    max X(q) W(low)/X(q) W(high)/X(q)  e(spline) 
   2      9     8.855    48.111    0.22E-03    0.80E-04    0.10E-05
   2      9     8.855    40.545    0.21E-03    0.76E-04    0.95E-06
   0     10     8.855   121.658    0.27E-04    0.12E-04    0.11E-06
   0     10     8.855    71.177    0.22E-04    0.11E-04    0.99E-07
   1     10     8.855    14.183    0.65E-04    0.10E-03    0.98E-07
   1     10     8.855     8.257    0.43E-04    0.73E-04    0.72E-07
  PAW_PBE Ta 17Jan2003                  :
 energy of atom  1       EATOM= -130.6506
 kinetic energy error for atom=    0.0121 (will be added to EATOM!!)
  PAW_PBE Nb_sv 25May2007               :
 energy of atom  2       EATOM=-1555.1913
 kinetic energy error for atom=    0.0655 (will be added to EATOM!!)
  PAW_PBE Zr_sv 04Jan2005               :
 energy of atom  3       EATOM=-1284.2219
 kinetic energy error for atom=    0.0483 (will be added to EATOM!!)
  PAW_PBE Hf 20Jan2003                  :
 energy of atom  4       EATOM=  -75.9011
 kinetic energy error for atom=    0.0071 (will be added to EATOM!!)
 
 
 POSCAR: generated by pypospack                  
  positions in direct lattice
  No initial velocities read in
 exchange correlation table for  LEXCH =        8
   RHO(1)=    0.500       N(1)  =     2000
   RHO(2)=  100.500       N(2)  =     4000
 


--------------------------------------------------------------------------------------------------------


 ion  position               nearest neighbor table
   1  0.768  0.839  0.501-  18 2.80  14 2.85  16 2.85  17 2.92  11 2.92  13 3.01  36 3.02  23 3.04
                            34 3.19  29 3.30  30 3.35   7 3.37   6 3.48  34 3.67
   2  0.241  0.492  0.174-  19 2.84  20 2.90  11 2.92   4 2.97  25 2.98  31 2.99  23 3.03  28 3.04
                            32 3.24  12 3.27  22 3.34   3 3.48   5 3.52  22 3.53
   3  0.226  0.527  0.836-  17 2.73   4 2.74  28 2.89  25 2.94  36 2.95  33 3.03  31 3.07  27 3.07
                            21 3.10  10 3.11   2 3.48
   4  0.007  0.673  0.007-   3 2.74   5 2.86  10 2.86   7 2.87  21 2.91  30 2.96   2 2.97  22 3.05
                             8 3.28  11 3.32  28 3.34  25 3.47  28 3.52
   5  0.231  0.839  0.176-  14 2.78   8 2.82  11 2.85   4 2.86  13 2.90  26 2.94  23 3.03  28 3.07
                             7 3.16  34 3.30  32 3.39   2 3.52  21 3.56
   6  0.760  0.496  0.493-  19 2.77  11 2.88  20 2.90  17 2.93  33 2.94  23 2.96  27 2.99  36 3.03
                            22 3.27  12 3.27  29 3.37   1 3.48  10 3.51
   7  0.770  0.837  0.172-   8 2.76  14 2.77  11 2.85   4 2.87  13 2.89  26 2.90  23 3.03  28 3.10
                             5 3.16   9 3.35   1 3.37  30 3.51  22 3.53
   8  0.995  0.996  0.012-   7 2.76   5 2.82  30 2.95   9 2.95  24 2.99  35 3.01  21 3.01  32 3.01
                            14 3.24   4 3.28  26 3.37  25 3.41  26 3.49
   9  0.754  0.167  0.180-  14 2.82  13 2.85   8 2.95  19 2.97  26 2.99  20 3.00  25 3.08  31 3.18
                            29 3.22  22 3.27   7 3.35  32 3.37  32 3.49  35 3.65
  10  0.773  0.518  0.835-  17 2.76   4 2.86  25 2.94  36 2.97  28 2.99  33 3.01  31 3.05  27 3.06
                             3 3.11  30 3.21  22 3.48   6 3.51
  11  0.997  0.666  0.332-   7 2.85   5 2.85  12 2.86   6 2.88   2 2.92   1 2.92  34 2.94  22 2.94
                             4 3.32  23 3.41  23 3.46
  12  0.237  0.503  0.493-  19 2.78  11 2.86  20 2.87  17 2.87  33 2.91  23 2.93  27 3.00  36 3.02
                             2 3.27   6 3.27  34 3.41
  13  0.505  0.995  0.325-   9 2.85   7 2.89   5 2.90  29 2.93  15 2.94  32 2.95   1 3.01  34 3.01
                            26 3.18  23 3.33
  14  0.995  0.999  0.328-   7 2.77   5 2.78   9 2.82   1 2.85  34 2.89  32 2.90  15 2.94  29 2.95
                             8 3.24
  15  0.254  0.161  0.491-  20 2.84  16 2.87  19 2.90  14 2.94  13 2.94  33 3.02  27 3.14  32 3.20
                            34 3.28  29 3.35  24 3.44
  16  0.005  0.007  0.657-  24 2.80  34 2.83  35 2.85   1 2.85  15 2.87  29 2.93  30 2.96  21 2.97
                            33 3.33
  17  0.000  0.662  0.662-   3 2.73  10 2.76  12 2.87  30 2.91   1 2.92  21 2.92  34 2.93   6 2.93
                            33 3.32  36 3.42  36 3.44
  18  0.502  0.976  0.658-   1 2.80  34 2.83  21 2.89  30 2.91  24 2.91  35 2.96  29 3.02  36 3.14

  19  0.004  0.338  0.344-   6 2.77  12 2.78   2 2.84  22 2.89  32 2.90  15 2.90  29 2.95   9 2.97
                            33 3.28
  20  0.491  0.337  0.343-  15 2.84  12 2.87   6 2.90   2 2.90  29 2.91  32 2.92  22 2.94   9 3.00
                            23 3.35  27 3.38
  21  0.239  0.832  0.828-  18 2.89   4 2.91  17 2.92  16 2.97  36 2.99  28 3.01   8 3.01   3 3.10
                            26 3.11  24 3.11  30 3.23  34 3.38   5 3.56  30 3.63
  22  0.754  0.489  0.173-  19 2.89  20 2.94  11 2.94  31 3.00  25 3.01  23 3.01   4 3.05  28 3.09
                             6 3.27   9 3.27   2 3.34  10 3.48   2 3.53   7 3.53
  23  0.501  0.668  0.336-  12 2.93   6 2.96  22 3.01  34 3.02   2 3.03   7 3.03   5 3.03   1 3.04
                            13 3.33  36 3.35  20 3.35  11 3.41  28 3.42  11 3.46
  24  0.259  0.139  0.826-  16 2.80  18 2.91  26 2.97   8 2.99  27 3.09  25 3.11  21 3.11  33 3.12
                            31 3.12  35 3.33  15 3.44  35 3.53  32 3.62
  25  0.004  0.331  0.989-  10 2.94   3 2.94   2 2.98  22 3.01  32 3.01   9 3.08  35 3.09  24 3.11
                            33 3.32  31 3.37   8 3.41   4 3.47  31 3.49
  26  0.505  0.992  0.015-   7 2.90   5 2.94  24 2.97  35 2.99   9 2.99  32 3.06  30 3.07  21 3.11
                            13 3.18  28 3.30   8 3.37   8 3.49  31 3.56
  27  0.494  0.349  0.673-   6 2.99  12 3.00  10 3.06   3 3.07  35 3.08  24 3.09  29 3.12  15 3.14
                            36 3.23  31 3.23  33 3.35  20 3.38  33 3.52
  28  0.494  0.668  0.003-   3 2.89  10 2.99  21 3.01   2 3.04   5 3.07  30 3.08  22 3.09   7 3.10
                            26 3.30  31 3.31   4 3.34  23 3.42  36 3.47   4 3.52
  29  0.742  0.164  0.494-  20 2.91  16 2.93  13 2.93  14 2.95  19 2.95  18 3.02  33 3.06  27 3.12
                             9 3.22   1 3.30  15 3.35   6 3.37  35 3.37
  30  0.767  0.834  0.828-  18 2.91  17 2.91   8 2.95  16 2.96   4 2.96  36 3.01  26 3.07  28 3.08
                            35 3.18  10 3.21  21 3.23   1 3.35   7 3.51  21 3.63
  31  0.495  0.342  0.989-   2 2.99  22 3.00  10 3.05   3 3.07  32 3.09  35 3.11  24 3.12   9 3.18
                            27 3.23  28 3.31  25 3.37  25 3.49  26 3.56
  32  0.245  0.173  0.178-  14 2.90  19 2.90  20 2.92  13 2.95  25 3.01   8 3.01  26 3.06  31 3.09
                            15 3.20   2 3.24   9 3.37   5 3.39   9 3.49  24 3.62
  33  0.006  0.335  0.664-  12 2.91   6 2.94  10 3.01  15 3.02   3 3.03  29 3.06  35 3.07  24 3.12
                            19 3.28  25 3.32  17 3.32  16 3.33  27 3.35  27 3.52
  34  0.234  0.839  0.498-  18 2.83  16 2.83  14 2.89  17 2.93  11 2.94  13 3.01  23 3.02  36 3.05
                             1 3.19  15 3.28   5 3.30  21 3.38  12 3.41   1 3.67
  35  0.744  0.148  0.824-  16 2.85  18 2.96  26 2.99   8 3.01  33 3.07  27 3.08  25 3.09  31 3.11
                            30 3.18  24 3.33  29 3.37  24 3.53   9 3.65
  36  0.502  0.667  0.663-   3 2.95  10 2.97  21 2.99  30 3.01   1 3.02  12 3.02   6 3.03  34 3.05
                            18 3.14  27 3.23  23 3.35  17 3.42  17 3.44  28 3.47
 
  LATTYP: Found a triclinic cell.
 ALAT       =     6.8610159933
 B/A-ratio  =     1.7865671990
 C/A-ratio  =     1.4913224504
 COS(alpha) =     0.0004607268
 COS(beta)  =     0.0045984545
 COS(gamma) =     0.5607942553
  
  Lattice vectors:
  
 A1 = (  -6.8609963987,   0.0045343738,  -0.0157580713)
 A2 = (  -6.8673315524,  10.1533308817,  -0.0028632899)
 A3 = (  -0.0235597881,  -0.0131292319, -10.2319516357)


Analysis of symmetry for initial positions (statically):
=====================================================================
 Subroutine PRICEL returns:
 Original cell was already a primitive cell.
 

 Routine SETGRP: Setting up the symmetry group for a 
 triclinic supercell.


 Subroutine GETGRP returns: Found  1 space group operations
 (whereof  1 operations were pure point group operations)
 out of a pool of  2 trial point group operations.


The static configuration has the point symmetry C_1 .


Analysis of symmetry for dynamics (positions and initial velocities):
=====================================================================
 Subroutine PRICEL returns:
 Original cell was already a primitive cell.
 

 Routine SETGRP: Setting up the symmetry group for a 
 triclinic supercell.


 Subroutine GETGRP returns: Found  1 space group operations
 (whereof  1 operations were pure point group operations)
 out of a pool of  2 trial point group operations.


The dynamic configuration has the point symmetry C_1 .


 Subroutine INISYM returns: Found  1 space group operations
 (whereof  1 operations are pure point group operations),
 and found     1 'primitive' translations

 
 
 KPOINTS: k-points                                

Automatic generation of k-mesh.
Space group operators:
 irot       det(A)        alpha          n_x          n_y          n_z        tau_x        tau_y        tau_z
    1     1.000000     0.000001     1.000000     0.000000     0.000000     0.000000     0.000000     0.000000
 
 Subroutine IBZKPT returns following result:
 ===========================================
 
 Found     14 irreducible k-points:
 
 Following reciprocal coordinates:
            Coordinates               Weight
  0.000000  0.000000  0.000000      1.000000
  0.333333 -0.000000  0.000000      2.000000
 -0.000000  0.333333  0.000000      2.000000
  0.333333  0.333333  0.000000      2.000000
 -0.333333  0.333333 -0.000000      2.000000
  0.000000 -0.000000  0.333333      2.000000
  0.333333 -0.000000  0.333333      2.000000
 -0.333333  0.000000  0.333333      2.000000
  0.000000  0.333333  0.333333      2.000000
  0.333333  0.333333  0.333333      2.000000
 -0.333333  0.333333  0.333333      2.000000
  0.000000 -0.333333  0.333333      2.000000
  0.333333 -0.333333  0.333333      2.000000
 -0.333333 -0.333333  0.333333      2.000000
 
 Following cartesian coordinates:
            Coordinates               Weight
  0.000000  0.000000  0.000000      1.000000
  0.242352  0.000152 -0.000558      2.000000
  0.000109  0.163839 -0.000210      2.000000
  0.242461  0.163991 -0.000769      2.000000
 -0.242244  0.163687  0.000348      2.000000
 -0.000373 -0.000207  0.162509      2.000000
  0.241979 -0.000055  0.161951      2.000000
 -0.242726 -0.000359  0.163067      2.000000
 -0.000265  0.163633  0.162298      2.000000
  0.242088  0.163785  0.161740      2.000000
 -0.242617  0.163481  0.162856      2.000000
 -0.000482 -0.164046  0.162719      2.000000
  0.241870 -0.163894  0.162161      2.000000
 -0.242835 -0.164198  0.163277      2.000000
 


--------------------------------------------------------------------------------------------------------




 Dimension of arrays:
   k-points           NKPTS =     14   k-points in BZ     NKDIM =     14   number of bands    NBANDS=    180
   number of dos      NEDOS =    301   number of ions     NIONS =     36
   non local maximal  LDIM  =      6   non local SUM 2l+1 LMDIM =     18
   total plane-waves  NPLWV = 144000
   max r-space proj   IRMAX =   6430   max aug-charges    IRDMAX=  13956
   dimension x,y,z NGX =    40 NGY =   60 NGZ =   60
   dimension x,y,z NGXF=    80 NGYF=  120 NGZF=  120
   support grid    NGXF=    80 NGYF=  120 NGZF=  120
   ions per type =              11   9   8   8
 NGX,Y,Z   is equivalent  to a cutoff of   9.69,  9.83,  9.75 a.u.
 NGXF,Y,Z  is equivalent  to a cutoff of  19.38, 19.66, 19.50 a.u.


 I would recommend the setting:
   dimension x,y,z NGX =    39 NGY =   57 NGZ =   58
 SYSTEM =  automatically generated by mexm         
 POSCAR =  generated by pypospack                  

 Startparameter for this run:
   NWRITE =      2    write-flag & timer
   PREC   = accura    normal or accurate (medium, high low for compatibility)
   ISTART =      0    job   : 0-new  1-cont  2-samecut
   ICHARG =      2    charge: 1-file 2-atom 10-const
   ISPIN  =      1    spin polarized calculation?
   LNONCOLLINEAR =      F non collinear calculations
   LSORBIT =      F    spin-orbit coupling
   INIWAV =      1    electr: 0-lowe 1-rand  2-diag
   LASPH  =      F    aspherical Exc in radial PAW
   METAGGA=      F    non-selfconsistent MetaGGA calc.

 Electronic Relaxation 1
   ENCUT  =  300.0 eV  22.05 Ry    4.70 a.u.   9.69 14.33 14.45*2*pi/ulx,y,z
   ENINI  =  300.0     initial cutoff
   ENAUG  =  461.3 eV  augmentation charge cutoff
   NELM   =     70;   NELMIN=  2; NELMDL= -5     # of ELM steps 
   EDIFF  = 0.1E-04   stopping-criterion for ELM
   LREAL  =      T    real-space projection
   NLSPLINE    = F    spline interpolate recip. space projectors
   LCOMPAT=      F    compatible to vasp.4.4
   GGA_COMPAT  = T    GGA compatible to vasp.4.4-vasp.4.6
   LMAXPAW     = -100 max onsite density
   LMAXMIX     =    2 max onsite mixed and CHGCAR
   VOSKOWN=      0    Vosko Wilk Nusair interpolation
   ROPT   =   -0.00025  -0.00025  -0.00025  -0.00025
 Ionic relaxation
   EDIFFG = -.1E-01   stopping-criterion for IOM
   NSW    =    300    number of steps for IOM
   NBLOCK =      1;   KBLOCK =    300    inner block; outer block 
   IBRION =      2    ionic relax: 0-MD 1-quasi-New 2-CG
   NFREE  =      1    steps in history (QN), initial steepest desc. (CG)
   ISIF   =      3    stress and relaxation
   IWAVPR =     11    prediction:  0-non 1-charg 2-wave 3-comb
   ISYM   =      1    0-nonsym 1-usesym 2-fastsym
   LCORR  =      T    Harris-Foulkes like correction to forces

   POTIM  = 0.1500    time-step for ionic-motion
   TEIN   =    0.0    initial temperature
   TEBEG  =    0.0;   TEEND  =   0.0 temperature during run
   SMASS  =  -3.00    Nose mass-parameter (am)
   estimated Nose-frequenzy (Omega)   =  0.10E-29 period in steps =****** mass=  -0.108E-26a.u.
   SCALEE = 1.0000    scale energy and forces
   NPACO  =    256;   APACO  = 16.0  distance and # of slots for P.C.
   PSTRESS=    0.0 pullay stress

  Mass of Ions in am
   POMASS = 180.95 92.91 91.22178.49
  Ionic Valenz
   ZVAL   =   5.00 13.00 12.00  4.00
  Atomic Wigner-Seitz radii
   RWIGS  =  -1.00 -1.00 -1.00 -1.00
  virtual crystal weights 
   VCA    =   1.00  1.00  1.00  1.00
   NELECT =     300.0000    total number of electrons
   NUPDOWN=      -1.0000    fix difference up-down

 DOS related values:
   EMIN   =  10.00;   EMAX   =-10.00  energy-range for DOS
   EFERMI =   0.00
   ISMEAR =     1;   SIGMA  =   0.15  broadening in eV -4-tet -1-fermi 0-gaus

 Electronic relaxation 2 (details)
   IALGO  =     68    algorithm
   LDIAG  =      T    sub-space diagonalisation (order eigenvalues)
   LSUBROT=      F    optimize rotation matrix (better conditioning)
   TURBO    =      0    0=normal 1=particle mesh
   IRESTART =      0    0=no restart 2=restart with 2 vectors
   NREBOOT  =      0    no. of reboots
   NMIN     =      0    reboot dimension
   EREF     =   0.00    reference energy to select bands
   IMIX   =      4    mixing-type and parameters
     AMIX     =   0.40;   BMIX     =  1.00
     AMIX_MAG =   1.60;   BMIX_MAG =  1.00
     AMIN     =   0.10
     WC   =   100.;   INIMIX=   1;  MIXPRE=   1;  MAXMIX= -45

 Intra band minimization:
   WEIMIN = 0.0010     energy-eigenvalue tresh-hold
   EBREAK =  0.14E-07  absolut break condition
   DEPER  =   0.30     relativ break condition  

   TIME   =   0.40     timestep for ELM

  volume/ion in A,a.u.               =      19.79       133.55
  Fermi-wavevector in a.u.,A,eV,Ry     =   1.227052  2.318792 20.485696  1.505656
  Thomas-Fermi vector in A             =   2.362030
 
 Write flags
   LWAVE  =      F    write WAVECAR
   LCHARG =      F    write CHGCAR
   LVTOT  =      F    write LOCPOT, total local potential
   LVHAR  =      F    write LOCPOT, Hartree potential only
   LELF   =      F    write electronic localiz. function (ELF)
   LORBIT =      0    0 simple, 1 ext, 2 COOP (PROOUT)


 Dipole corrections
   LMONO  =      F    monopole corrections only (constant potential shift)
   LDIPOL =      F    correct potential (dipole corrections)
   IDIPOL =      0    1-x, 2-y, 3-z, 4-all directions 
   EPSILON=  1.0000000 bulk dielectric constant

 Exchange correlation treatment:
   GGA     =    --    GGA type
   LEXCH   =     8    internal setting for exchange type
   VOSKOWN=      0    Vosko Wilk Nusair interpolation
   LHFCALC =     F    Hartree Fock is set to
   LHFONE  =     F    Hartree Fock one center treatment
   AEXX    =    0.0000 exact exchange contribution

 Linear response parameters
   LEPSILON=     F    determine dielectric tensor
   LRPA    =     F    only Hartree local field effects (RPA)
   LNABLA  =     F    use nabla operator in PAW spheres
   LVEL    =     F    velocity operator in full k-point grid
   LINTERFAST=   F  fast interpolation
   KINTER  =     0    interpolate to denser k-point grid
   CSHIFT  =0.1000    complex shift for real part using Kramers Kronig
   OMEGAMAX=  -1.0    maximum frequency
   DEG_THRESHOLD= 0.2000000E-02 threshold for treating states as degnerate
   RTIME   =    0.100 relaxation time in fs

 Orbital magnetization related:
   ORBITALMAG=     F  switch on orbital magnetization
   LCHIMAG   =     F  perturbation theory with respect to B field
   DQ        =  0.001000  dq finite difference perturbation B field



--------------------------------------------------------------------------------------------------------


 conjugate gradient relaxation of ions
 charge density and potential will be updated during run
 non-spin polarized calculation
 RMM-DIIS sequential band-by-band and
  variant of blocked Davidson during initial phase
 perform sub-space diagonalisation
    before iterative eigenvector-optimisation
 modified Broyden-mixing scheme, WC =      100.0
 initial mixing is a Kerker type mixing with AMIX =  0.4000 and BMIX =      1.0000
 Hartree-type preconditioning will be used
 using additional bands           30
 real space projection scheme for non local part
 use partial core corrections
 calculate Harris-corrections to forces 
   (improved forces if not selfconsistent)
 use gradient corrections 
 use of overlap-Matrix (Vanderbilt PP)
 Methfessel and Paxton  Order N= 1 SIGMA  =   0.15


--------------------------------------------------------------------------------------------------------


  energy-cutoff  :      300.00
  volume of cell :      712.45
      direct lattice vectors                 reciprocal lattice vectors
     6.860996399 -0.004534374  0.015758071     0.145752256  0.000091409 -0.000335722
    -0.006335154 10.148796508  0.012894781     0.000065411  0.098534052 -0.000126586
     0.023559788  0.013129232 10.231951636    -0.000224553 -0.000124318  0.097733742

  length of vectors
     6.861015993 10.148806677 10.231987183     0.145752672  0.098534155  0.097734079


 
 k-points in units of 2pi/SCALE and weight: k-points                                
   0.00000000  0.00000000  0.00000000       0.037
   0.24235248  0.00015199 -0.00055823       0.074
   0.00010876  0.16383947 -0.00021048       0.074
   0.24246124  0.16399146 -0.00076871       0.074
  -0.24224372  0.16368747  0.00034775       0.074
  -0.00037338 -0.00020671  0.16250873       0.074
   0.24197910 -0.00005472  0.16195051       0.074
  -0.24272586 -0.00035870  0.16306696       0.074
  -0.00026462  0.16363275  0.16229825       0.074
   0.24208786  0.16378475  0.16174002       0.074
  -0.24261710  0.16348076  0.16285648       0.074
  -0.00048214 -0.16404618  0.16271922       0.074
   0.24187034 -0.16389419  0.16216099       0.074
  -0.24283462 -0.16419817  0.16327745       0.074
 
 k-points in reciprocal lattice and weights: k-points                                
   0.00000000  0.00000000  0.00000000       0.037
   0.33333333 -0.00000000  0.00000000       0.074
  -0.00000000  0.33333333  0.00000000       0.074
   0.33333333  0.33333333  0.00000000       0.074
  -0.33333333  0.33333333 -0.00000000       0.074
   0.00000000 -0.00000000  0.33333333       0.074
   0.33333333 -0.00000000  0.33333333       0.074
  -0.33333333  0.00000000  0.33333333       0.074
   0.00000000  0.33333333  0.33333333       0.074
   0.33333333  0.33333333  0.33333333       0.074
  -0.33333333  0.33333333  0.33333333       0.074
   0.00000000 -0.33333333  0.33333333       0.074
   0.33333333 -0.33333333  0.33333333       0.074
  -0.33333333 -0.33333333  0.33333333       0.074
 
 position of ions in fractional coordinates (direct lattice) 
   0.76809600  0.83922900  0.50067600
   0.24058500  0.49212300  0.17379300
   0.22600200  0.52660000  0.83584100
   0.00733200  0.67260800  0.00749700
   0.23055600  0.83895800  0.17565500
   0.76025100  0.49612300  0.49252700
   0.77026300  0.83720900  0.17160800
   0.99548600  0.99598100  0.01191800
   0.75361900  0.16719700  0.17965600
   0.77315700  0.51828400  0.83472000
   0.99709800  0.66646900  0.33151400
   0.23689200  0.50332000  0.49290200
   0.50468700  0.99549200  0.32504400
   0.99467100  0.99918000  0.32849700
   0.25390400  0.16141800  0.49078300
   0.00468200  0.00696400  0.65718000
   0.00045100  0.66209000  0.66249200
   0.50183400  0.97572800  0.65754300
   0.00423400  0.33814000  0.34409900
   0.49089000  0.33725700  0.34296800
   0.23864700  0.83221100  0.82806100
   0.75435800  0.48934600  0.17327100
   0.50082400  0.66762500  0.33640700
   0.25872600  0.13883400  0.82607800
   0.00400700  0.33142600  0.98908100
   0.50471600  0.99221700  0.01461200
   0.49400100  0.34881900  0.67318200
   0.49391600  0.66783200  0.00254200
   0.74183800  0.16392300  0.49448000
   0.76746800  0.83423300  0.82821100
   0.49538100  0.34216200  0.98913000
   0.24495900  0.17324300  0.17790900
   0.00592800  0.33468900  0.66448700
   0.23377000  0.83885100  0.49829000
   0.74435400  0.14756400  0.82387400
   0.50241000  0.66665500  0.66346500
 
 position of ions in cartesian coordinates  (Angst):
   5.27638307  8.52025500  5.14581800
   1.65162967  4.99564705  1.78837854
   1.56695505  5.35430541  8.56263643
   0.04622038  6.82622691  0.08549761
   1.58066735  8.51567481  1.81174476
   5.22454019  5.03807061  5.05788993
   5.28351087  8.49542420  1.77881824
   6.82399695 10.10365106  0.15047430
   5.17375068  1.69578988  1.85226305
   5.32100981  5.26741230  8.55968129
   6.84467400  6.76368957  3.41634153
   1.63373922  5.11348953  5.05357259
   3.46400706 10.10502487  3.34662403
   6.82584351 10.14027720  3.38972372
   1.75257457  1.64349074  5.02775041
   0.04756209  0.07928326  6.72439755
   0.01450804  6.72811265  6.78713072
   3.45239145  9.90882245  6.74843791
   0.03501419  3.43621261  3.52523129
   3.37393820  3.42502969  3.52131632
   1.65159296  8.45572978  8.48717190
   5.17662967  4.96512735  1.79109773
   3.43984783  6.77773611  3.45860105
   1.79370084  1.41867062  8.45825740
   0.04869492  3.37654274 10.12456576
   3.45691307 10.06771170  0.17025705
   3.40298929  3.54669143  6.90024811
   3.38458497  6.77548484  0.04240433
   5.10035921  1.66674954  5.07329913
   5.27982267  8.47385474  8.49706596
   3.41994330  3.48327279 10.13294867
   1.68375679  1.75943303  1.82645030
   0.05420685  3.40538788  6.80340800
   1.61032048  8.51881026  5.11297975
   5.12548557  1.50503866  8.44347131
   3.45844093  6.77217861  6.80505518
 


--------------------------------------------------------------------------------------------------------


 k-point  1 :   0.0000 0.0000 0.0000  plane waves:    8465
 k-point  2 :   0.3333-0.0000 0.0000  plane waves:    8403
 k-point  3 :  -0.0000 0.3333 0.0000  plane waves:    8415
 k-point  4 :   0.3333 0.3333 0.0000  plane waves:    8393
 k-point  5 :  -0.3333 0.3333-0.0000  plane waves:    8389
 k-point  6 :   0.0000-0.0000 0.3333  plane waves:    8404
 k-point  7 :   0.3333-0.0000 0.3333  plane waves:    8398
 k-point  8 :  -0.3333 0.0000 0.3333  plane waves:    8404
 k-point  9 :   0.0000 0.3333 0.3333  plane waves:    8404
 k-point 10 :   0.3333 0.3333 0.3333  plane waves:    8405
 k-point 11 :  -0.3333 0.3333 0.3333  plane waves:    8405
 k-point 12 :   0.0000-0.3333 0.3333  plane waves:    8396
 k-point 13 :   0.3333-0.3333 0.3333  plane waves:    8408
 k-point 14 :  -0.3333-0.3333 0.3333  plane waves:    8398

 maximum and minimum number of plane-waves per node :      1712     1655

 maximum number of plane-waves:      8465
 maximum index in each direction: 
   IXMAX=   10   IYMAX=   14   IZMAX=   14
   IXMIN=  -10   IYMIN=  -14   IZMIN=  -14

 WARNING: aliasing errors must be expected set NGX to  42 to avoid them
 NGY is ok and might be reduce to  58
 NGZ is ok and might be reduce to  58
 aliasing errors are usually negligible using standard VASP settings
 and one can safely disregard these warnings

 real space projection operators:
  total allocation   :      27854.16 KBytes
  max/ min on nodes  :       5615.58       5522.06


 parallel 3D FFT for wavefunctions:
    minimum data exchange during FFTs selected (reduces bandwidth)
 parallel 3D FFT for charge:
    minimum data exchange during FFTs selected (reduces bandwidth)


 total amount of memory used by VASP on root node    67721. kBytes
========================================================================

   base      :      30000. kBytes
   nonlr-proj:      10715. kBytes
   fftplans  :       2814. kBytes
   grid      :       5360. kBytes
   one-center:        124. kBytes
   wavefun   :      18708. kBytes
 
     INWAV:  cpu time    0.0000: real time    0.0000
 Broyden mixing: mesh for mixing (old mesh)
   NGX = 19   NGY = 29   NGZ = 29
  (NGX  = 80   NGY  =120   NGZ  =120)
  gives a total of  15979 points

 initial charge density was supplied:
 charge density of overlapping atoms calculated
 number of electron     300.0000000 magnetization 
 keeping initial charge density in first step


--------------------------------------------------------------------------------------------------------


 Maximum index for non-local projection operator         1251
 Maximum index for augmentation-charges          687 (set IRDMAX)


--------------------------------------------------------------------------------------------------------


 First call to EWALD:  gamma=   0.198
 Maximum number of real-space cells 3x 2x 2
 Maximum number of reciprocal cells 2x 3x 3

 FEWALD executed in parallel
    FEWALD:  cpu time    0.0616: real time    0.0624


----------------------------------------- Iteration    1(   1)  ---------------------------------------


    POTLOK:  cpu time    0.0465: real time    0.0602
    SETDIJ:  cpu time    0.0122: real time    0.0122
     EDDAV:  cpu time    1.0679: real time    1.0750
       DOS:  cpu time    0.0015: real time    0.0015
    --------------------------------------------
      LOOP:  cpu time    1.1365: real time    1.5658

 eigenvalue-minimisations  :  5560
 total energy-change (2. order) : 0.1933842E+04  (-0.1137238E+05)
 number of electron     300.0000000 magnetization 
 augmentation part      300.0000000 magnetization 

 Free energy of the ion-electron system (eV)
  ---------------------------------------------------
  alpha Z        PSCENC =      1599.26579642
  Ewald energy   TEWEN  =    -20626.49178063
  -Hartree energ DENC   =     -6645.16444753
  -exchange      EXHF   =         0.00000000
  -V(xc)+E(xc)   XCENC  =      -245.92838177
  PAW double counting   =     22207.11356525   -20599.22609212
  entropy T*S    EENTRO =        -0.00275569
  eigenvalues    EBANDS =       -69.42097459
  atomic energy  EATOM  =     26313.69662656
  Solvation  Ediel_sol  =         0.00000000
  ---------------------------------------------------
  free energy    TOTEN  =      1933.84155589 eV

  energy without entropy =     1933.84431159  energy(sigma->0) =     1933.84247446


--------------------------------------------------------------------------------------------------------




----------------------------------------- Iteration    1(   2)  ---------------------------------------


     EDDAV:  cpu time    1.0482: real time    1.0578
       DOS:  cpu time    0.0015: real time    0.0015
    --------------------------------------------
      LOOP:  cpu time    1.0506: real time    1.2703

 eigenvalue-minimisations  :  5696
 total energy-change (2. order) :-0.2017553E+04  (-0.1947414E+04)
 number of electron     300.0000000 magnetization 
 augmentation part      300.0000000 magnetization 

 Free energy of the ion-electron system (eV)
  ---------------------------------------------------
  alpha Z        PSCENC =      1599.26579642
  Ewald energy   TEWEN  =    -20626.49178063
  -Hartree energ DENC   =     -6645.16444753
  -exchange      EXHF   =         0.00000000
  -V(xc)+E(xc)   XCENC  =      -245.92838177
  PAW double counting   =     22207.11356525   -20599.22609212
  entropy T*S    EENTRO =        -0.00077452
  eigenvalues    EBANDS =     -2086.97571624
  atomic energy  EATOM  =     26313.69662656
  Solvation  Ediel_sol  =         0.00000000
  ---------------------------------------------------
  free energy    TOTEN  =       -83.71120458 eV

  energy without entropy =      -83.71043006  energy(sigma->0) =      -83.71094641


--------------------------------------------------------------------------------------------------------




----------------------------------------- Iteration    1(   3)  ---------------------------------------


     EDDAV:  cpu time    1.5247: real time    1.5355
       DOS:  cpu time    0.0008: real time    0.0008
    --------------------------------------------
      LOOP:  cpu time    1.5259: real time    1.5803

 eigenvalue-minimisations  :  8712
 total energy-change (2. order) :-0.2637591E+03  (-0.2504857E+03)
 number of electron     300.0000000 magnetization 
 augmentation part      300.0000000 magnetization 

 Free energy of the ion-electron system (eV)
  ---------------------------------------------------
  alpha Z        PSCENC =      1599.26579642
  Ewald energy   TEWEN  =    -20626.49178063
  -Hartree energ DENC   =     -6645.16444753
  -exchange      EXHF   =         0.00000000
  -V(xc)+E(xc)   XCENC  =      -245.92838177
  PAW double counting   =     22207.11356525   -20599.22609212
  entropy T*S    EENTRO =        -0.00671527
  eigenvalues    EBANDS =     -2350.72888018
  atomic energy  EATOM  =     26313.69662656
  Solvation  Ediel_sol  =         0.00000000
  ---------------------------------------------------
  free energy    TOTEN  =      -347.47030927 eV

  energy without entropy =     -347.46359400  energy(sigma->0) =     -347.46807085


--------------------------------------------------------------------------------------------------------




----------------------------------------- Iteration    1(   4)  ---------------------------------------


     EDDAV:  cpu time    1.5843: real time    1.6005
       DOS:  cpu time    0.0011: real time    0.0011
    --------------------------------------------
      LOOP:  cpu time    1.5856: real time    1.6451

 eigenvalue-minimisations  :  8384
 total energy-change (2. order) :-0.3119014E+02  (-0.2956921E+02)
 number of electron     300.0000000 magnetization 
 augmentation part      300.0000000 magnetization 

 Free energy of the ion-electron system (eV)
  ---------------------------------------------------
  alpha Z        PSCENC =      1599.26579642
  Ewald energy   TEWEN  =    -20626.49178063
  -Hartree energ DENC   =     -6645.16444753
  -exchange      EXHF   =         0.00000000
  -V(xc)+E(xc)   XCENC  =      -245.92838177
  PAW double counting   =     22207.11356525   -20599.22609212
  entropy T*S    EENTRO =         0.01368099
  eigenvalues    EBANDS =     -2381.93941506
  atomic energy  EATOM  =     26313.69662656
  Solvation  Ediel_sol  =         0.00000000
  ---------------------------------------------------
  free energy    TOTEN  =      -378.66044790 eV

  energy without entropy =     -378.67412889  energy(sigma->0) =     -378.66500823


--------------------------------------------------------------------------------------------------------




----------------------------------------- Iteration    1(   5)  ---------------------------------------


     EDDAV:  cpu time    1.3927: real time    1.4029
       DOS:  cpu time    0.0253: real time    0.0254
    CHARGE:  cpu time    0.0518: real time    0.0520
    MIXING:  cpu time    0.0013: real time    0.0013
    --------------------------------------------
      LOOP:  cpu time    1.4715: real time    1.5274

 eigenvalue-minimisations  :  8032
 total energy-change (2. order) :-0.3078790E+01  (-0.3010876E+01)
 number of electron     300.0000005 magnetization 
 augmentation part       17.7697569 magnetization 

 Broyden mixing:
  rms(total) = 0.66237E+01    rms(broyden)= 0.66232E+01
  rms(prec ) = 0.69118E+01
  weight for this iteration     100.00

 Free energy of the ion-electron system (eV)
  ---------------------------------------------------
  alpha Z        PSCENC =      1599.26579642
  Ewald energy   TEWEN  =    -20626.49178063
  -Hartree energ DENC   =     -6645.16444753
  -exchange      EXHF   =         0.00000000
  -V(xc)+E(xc)   XCENC  =      -245.92838177
  PAW double counting   =     22207.11356525   -20599.22609212
  entropy T*S    EENTRO =         0.01500566
  eigenvalues    EBANDS =     -2385.01952982
  atomic energy  EATOM  =     26313.69662656
  Solvation  Ediel_sol  =         0.00000000
  ---------------------------------------------------
  free energy    TOTEN  =      -381.73923798 eV

  energy without entropy =     -381.75424364  energy(sigma->0) =     -381.74423987


--------------------------------------------------------------------------------------------------------




----------------------------------------- Iteration    1(   6)  ---------------------------------------


    POTLOK:  cpu time    0.0300: real time    0.0301
    SETDIJ:  cpu time    0.0037: real time    0.0037
    EDDIAG:  cpu time    0.1325: real time    0.1371
  RMM-DIIS:  cpu time    0.8298: real time    0.8334
    ORTHCH:  cpu time    0.0127: real time    0.0128
       DOS:  cpu time    0.0020: real time    0.0020
    CHARGE:  cpu time    0.0319: real time    0.0320
    MIXING:  cpu time    0.0014: real time    0.0022
    --------------------------------------------
      LOOP:  cpu time    1.0445: real time    1.0973

 eigenvalue-minimisations  :  7233
 total energy-change (2. order) : 0.1011795E+02  (-0.2651419E+01)
 number of electron     300.0000006 magnetization 
 augmentation part       18.5084989 magnetization 

 Broyden mixing:
  rms(total) = 0.31889E+01    rms(broyden)= 0.31888E+01
  rms(prec ) = 0.35709E+01
  weight for this iteration     100.00

 eigenvalues of (default mixing * dielectric matrix)
  average eigenvalue GAMMA=   1.8145
  1.8145

 Free energy of the ion-electron system (eV)
  ---------------------------------------------------
  alpha Z        PSCENC =      1599.26579642
  Ewald energy   TEWEN  =    -20626.49178063
  -Hartree energ DENC   =     -6477.70348852
  -exchange      EXHF   =         0.00000000
  -V(xc)+E(xc)   XCENC  =      -249.52371598
  PAW double counting   =     27852.81898509   -26252.93519876
  entropy T*S    EENTRO =         0.01810228
  eigenvalues    EBANDS =     -2530.76661368
  atomic energy  EATOM  =     26313.69662656
  Solvation  Ediel_sol  =         0.00000000
  ---------------------------------------------------
  free energy    TOTEN  =      -371.62128722 eV

  energy without entropy =     -371.63938950  energy(sigma->0) =     -371.62732131


--------------------------------------------------------------------------------------------------------




----------------------------------------- Iteration    1(   7)  ---------------------------------------


    POTLOK:  cpu time    0.0358: real time    0.0360
    SETDIJ:  cpu time    0.0147: real time    0.0147
    EDDIAG:  cpu time    0.1342: real time    0.1348
  RMM-DIIS:  cpu time    0.7124: real time    0.8634
    ORTHCH:  cpu time    0.0128: real time    0.0128
       DOS:  cpu time    0.0019: real time    0.0019
    CHARGE:  cpu time    0.0320: real time    0.0321
    MIXING:  cpu time    0.0013: real time    0.0013
    --------------------------------------------
      LOOP:  cpu time    0.9461: real time    1.1679

 eigenvalue-minimisations  :  7687
 total energy-change (2. order) :-0.3816643E+01  (-0.3667231E+01)
 number of electron     300.0000006 magnetization 
 augmentation part       18.8611541 magnetization 

 Broyden mixing:
  rms(total) = 0.13875E+01    rms(broyden)= 0.13870E+01
  rms(prec ) = 0.37553E+01
  weight for this iteration     100.00

 eigenvalues of (default mixing * dielectric matrix)
  average eigenvalue GAMMA=   1.1549
  1.8278  0.4820

 Free energy of the ion-electron system (eV)
  ---------------------------------------------------
  alpha Z        PSCENC =      1599.26579642
  Ewald energy   TEWEN  =    -20626.49178063
  -Hartree energ DENC   =     -6383.33235683
  -exchange      EXHF   =         0.00000000
  -V(xc)+E(xc)   XCENC  =      -249.32324260
  PAW double counting   =     32727.89139499   -31122.40901803
  entropy T*S    EENTRO =        -0.00587512
  eigenvalues    EBANDS =     -2634.72947502
  atomic energy  EATOM  =     26313.69662656
  Solvation  Ediel_sol  =         0.00000000
  ---------------------------------------------------
  free energy    TOTEN  =      -375.43793026 eV

  energy without entropy =     -375.43205515  energy(sigma->0) =     -375.43597189


--------------------------------------------------------------------------------------------------------




----------------------------------------- Iteration    1(   8)  ---------------------------------------


    POTLOK:  cpu time    0.0286: real time    0.0287
    SETDIJ:  cpu time    0.0036: real time    0.0037
    EDDIAG:  cpu time    0.0818: real time    0.0823
  RMM-DIIS:  cpu time    0.7732: real time    0.7791
    ORTHCH:  cpu time    0.0167: real time    0.0174
       DOS:  cpu time    0.0009: real time    0.0009
    CHARGE:  cpu time    0.0334: real time    0.0338
    MIXING:  cpu time    0.0019: real time    0.0020
    --------------------------------------------
      LOOP:  cpu time    0.9408: real time    0.9899

 eigenvalue-minimisations  :  7385
 total energy-change (2. order) : 0.8186257E+01  (-0.8662133E+00)
 number of electron     300.0000006 magnetization 
 augmentation part       18.6960874 magnetization 

 Broyden mixing:
  rms(total) = 0.49273E+00    rms(broyden)= 0.49220E+00
  rms(prec ) = 0.91815E+00
  weight for this iteration     100.00

 eigenvalues of (default mixing * dielectric matrix)
  average eigenvalue GAMMA=   1.0776
  1.8624  0.9352  0.4352

 Free energy of the ion-electron system (eV)
  ---------------------------------------------------
  alpha Z        PSCENC =      1599.26579642
  Ewald energy   TEWEN  =    -20626.49178063
  -Hartree energ DENC   =     -6386.81549376
  -exchange      EXHF   =         0.00000000
  -V(xc)+E(xc)   XCENC  =      -248.24497013
  PAW double counting   =     34231.57846421   -32622.23491920
  entropy T*S    EENTRO =         0.01712197
  eigenvalues    EBANDS =     -2628.02251837
  atomic energy  EATOM  =     26313.69662656
  Solvation  Ediel_sol  =         0.00000000
  ---------------------------------------------------
  free energy    TOTEN  =      -367.25167292 eV

  energy without entropy =     -367.26879489  energy(sigma->0) =     -367.25738024


--------------------------------------------------------------------------------------------------------




----------------------------------------- Iteration    1(   9)  ---------------------------------------


    POTLOK:  cpu time    0.0293: real time    0.0306
    SETDIJ:  cpu time    0.0037: real time    0.0038
    EDDIAG:  cpu time    0.0782: real time    0.0813
  RMM-DIIS:  cpu time    0.7820: real time    0.8015
    ORTHCH:  cpu time    0.0123: real time    0.0124
       DOS:  cpu time    0.0011: real time    0.0011
    CHARGE:  cpu time    0.0320: real time    0.0321
    MIXING:  cpu time    0.0016: real time    0.0016
    --------------------------------------------
      LOOP:  cpu time    0.9409: real time    1.0090

 eigenvalue-minimisations  :  7677
 total energy-change (2. order) : 0.4960181E+00  (-0.3754998E+00)
 number of electron     300.0000006 magnetization 
 augmentation part       18.5823269 magnetization 

 Broyden mixing:
  rms(total) = 0.30384E+00    rms(broyden)= 0.30355E+00
  rms(prec ) = 0.41931E+00
  weight for this iteration     100.00

 eigenvalues of (default mixing * dielectric matrix)
  average eigenvalue GAMMA=   1.0136
  1.8435  1.3963  0.4073  0.4073

 Free energy of the ion-electron system (eV)
  ---------------------------------------------------
  alpha Z        PSCENC =      1599.26579642
  Ewald energy   TEWEN  =    -20626.49178063
  -Hartree energ DENC   =     -6389.39804655
  -exchange      EXHF   =         0.00000000
  -V(xc)+E(xc)   XCENC  =      -247.76604279
  PAW double counting   =     34501.13840981   -32888.39712882
  entropy T*S    EENTRO =         0.01466133
  eigenvalues    EBANDS =     -2628.81815017
  atomic energy  EATOM  =     26313.69662656
  Solvation  Ediel_sol  =         0.00000000
  ---------------------------------------------------
  free energy    TOTEN  =      -366.75565484 eV

  energy without entropy =     -366.77031617  energy(sigma->0) =     -366.76054195


--------------------------------------------------------------------------------------------------------




----------------------------------------- Iteration    1(  10)  ---------------------------------------


    POTLOK:  cpu time    0.0288: real time    0.0290
    SETDIJ:  cpu time    0.0036: real time    0.0036
    EDDIAG:  cpu time    0.0780: real time    0.0796
  RMM-DIIS:  cpu time    0.8028: real time    0.8179
    ORTHCH:  cpu time    0.0123: real time    0.0124
       DOS:  cpu time    0.0123: real time    0.0124
    CHARGE:  cpu time    0.0516: real time    0.0518
    MIXING:  cpu time    0.0014: real time    0.0014
    --------------------------------------------
      LOOP:  cpu time    0.9914: real time    1.0550

 eigenvalue-minimisations  :  7726
 total energy-change (2. order) : 0.1410206E-01  (-0.7683687E-01)
 number of electron     300.0000006 magnetization 
 augmentation part       18.4943870 magnetization 

 Broyden mixing:
  rms(total) = 0.17572E+00    rms(broyden)= 0.17568E+00
  rms(prec ) = 0.28872E+00
  weight for this iteration     100.00

 eigenvalues of (default mixing * dielectric matrix)
  average eigenvalue GAMMA=   1.0742
  1.8826  1.8826  0.7538  0.4259  0.4259

 Free energy of the ion-electron system (eV)
  ---------------------------------------------------
  alpha Z        PSCENC =      1599.26579642
  Ewald energy   TEWEN  =    -20626.49178063
  -Hartree energ DENC   =     -6396.36951537
  -exchange      EXHF   =         0.00000000
  -V(xc)+E(xc)   XCENC  =      -247.10028006
  PAW double counting   =     34788.41510035   -33169.48587932
  entropy T*S    EENTRO =         0.01650079
  eigenvalues    EBANDS =     -2628.68812153
  atomic energy  EATOM  =     26313.69662656
  Solvation  Ediel_sol  =         0.00000000
  ---------------------------------------------------
  free energy    TOTEN  =      -366.74155278 eV

  energy without entropy =     -366.75805357  energy(sigma->0) =     -366.74705304


--------------------------------------------------------------------------------------------------------




----------------------------------------- Iteration    1(  11)  ---------------------------------------


    POTLOK:  cpu time    0.0284: real time    0.0286
    SETDIJ:  cpu time    0.0037: real time    0.0037
    EDDIAG:  cpu time    0.1093: real time    0.1096
  RMM-DIIS:  cpu time    0.7908: real time    0.8185
    ORTHCH:  cpu time    0.0129: real time    0.0129
       DOS:  cpu time    0.0009: real time    0.0009
    CHARGE:  cpu time    0.0321: real time    0.0322
    MIXING:  cpu time    0.0015: real time    0.0015
    --------------------------------------------
      LOOP:  cpu time    0.9803: real time    1.0618

 eigenvalue-minimisations  :  7576
 total energy-change (2. order) : 0.2837528E-01  (-0.2024664E-01)
 number of electron     300.0000006 magnetization 
 augmentation part       18.4576545 magnetization 

 Broyden mixing:
  rms(total) = 0.10272E+00    rms(broyden)= 0.10269E+00
  rms(prec ) = 0.20369E+00
  weight for this iteration     100.00

 eigenvalues of (default mixing * dielectric matrix)
  average eigenvalue GAMMA=   1.0470
  2.0723  1.9622  0.9264  0.4607  0.4607  0.3993

 Free energy of the ion-electron system (eV)
  ---------------------------------------------------
  alpha Z        PSCENC =      1599.26579642
  Ewald energy   TEWEN  =    -20626.49178063
  -Hartree energ DENC   =     -6402.45073298
  -exchange      EXHF   =         0.00000000
  -V(xc)+E(xc)   XCENC  =      -246.64003865
  PAW double counting   =     34961.11321889   -33337.99663927
  entropy T*S    EENTRO =         0.01462857
  eigenvalues    EBANDS =     -2627.22425641
  atomic energy  EATOM  =     26313.69662656
  Solvation  Ediel_sol  =         0.00000000
  ---------------------------------------------------
  free energy    TOTEN  =      -366.71317750 eV

  energy without entropy =     -366.72780607  energy(sigma->0) =     -366.71805369


--------------------------------------------------------------------------------------------------------




----------------------------------------- Iteration    1(  12)  ---------------------------------------


    POTLOK:  cpu time    0.0293: real time    0.0294
    SETDIJ:  cpu time    0.0036: real time    0.0036
    EDDIAG:  cpu time    0.0760: real time    0.0774
  RMM-DIIS:  cpu time    0.7992: real time    0.8075
    ORTHCH:  cpu time    0.0123: real time    0.0123
       DOS:  cpu time    0.0009: real time    0.0009
    CHARGE:  cpu time    0.0299: real time    0.0300
    MIXING:  cpu time    0.0014: real time    0.0015
    --------------------------------------------
      LOOP:  cpu time    0.9531: real time    1.0076

 eigenvalue-minimisations  :  7745
 total energy-change (2. order) : 0.1224718E-01  (-0.8347661E-02)
 number of electron     300.0000006 magnetization 
 augmentation part       18.4432931 magnetization 

 Broyden mixing:
  rms(total) = 0.49525E-01    rms(broyden)= 0.49473E-01
  rms(prec ) = 0.81585E-01
  weight for this iteration     100.00

 eigenvalues of (default mixing * dielectric matrix)
  average eigenvalue GAMMA=   1.0096
  2.2400  1.8714  1.0058  0.7052  0.4919  0.3765  0.3765

 Free energy of the ion-electron system (eV)
  ---------------------------------------------------
  alpha Z        PSCENC =      1599.26579642
  Ewald energy   TEWEN  =    -20626.49178063
  -Hartree energ DENC   =     -6406.77083937
  -exchange      EXHF   =         0.00000000
  -V(xc)+E(xc)   XCENC  =      -246.35759623
  PAW double counting   =     35098.09431327   -33471.99904422
  entropy T*S    EENTRO =         0.01494063
  eigenvalues    EBANDS =     -2626.15334675
  atomic energy  EATOM  =     26313.69662656
  Solvation  Ediel_sol  =         0.00000000
  ---------------------------------------------------
  free energy    TOTEN  =      -366.70093032 eV

  energy without entropy =     -366.71587095  energy(sigma->0) =     -366.70591053


--------------------------------------------------------------------------------------------------------




----------------------------------------- Iteration    1(  13)  ---------------------------------------


    POTLOK:  cpu time    0.0284: real time    0.0285
    SETDIJ:  cpu time    0.0038: real time    0.0066
    EDDIAG:  cpu time    0.0762: real time    0.0768
  RMM-DIIS:  cpu time    0.7188: real time    0.8721
    ORTHCH:  cpu time    0.0131: real time    0.0132
       DOS:  cpu time    0.0010: real time    0.0010
    CHARGE:  cpu time    0.0320: real time    0.0321
    MIXING:  cpu time    0.0016: real time    0.0016
    --------------------------------------------
      LOOP:  cpu time    0.8754: real time    1.0709

 eigenvalue-minimisations  :  7701
 total energy-change (2. order) : 0.2054465E-02  (-0.2586801E-02)
 number of electron     300.0000006 magnetization 
 augmentation part       18.4412085 magnetization 

 Broyden mixing:
  rms(total) = 0.29106E-01    rms(broyden)= 0.29092E-01
  rms(prec ) = 0.46517E-01
  weight for this iteration     100.00

 eigenvalues of (default mixing * dielectric matrix)
  average eigenvalue GAMMA=   1.0235
  2.3481  1.8846  1.1820  1.0070  0.5665  0.4418  0.3978  0.3605

 Free energy of the ion-electron system (eV)
  ---------------------------------------------------
  alpha Z        PSCENC =      1599.26579642
  Ewald energy   TEWEN  =    -20626.49178063
  -Hartree energ DENC   =     -6406.67154240
  -exchange      EXHF   =         0.00000000
  -V(xc)+E(xc)   XCENC  =      -246.30973583
  PAW double counting   =     35175.92936231   -33548.53142503
  entropy T*S    EENTRO =         0.01513171
  eigenvalues    EBANDS =     -2627.60130897
  atomic energy  EATOM  =     26313.69662656
  Solvation  Ediel_sol  =         0.00000000
  ---------------------------------------------------
  free energy    TOTEN  =      -366.69887585 eV

  energy without entropy =     -366.71400756  energy(sigma->0) =     -366.70391976


--------------------------------------------------------------------------------------------------------




----------------------------------------- Iteration    1(  14)  ---------------------------------------


    POTLOK:  cpu time    0.0279: real time    0.0299
    SETDIJ:  cpu time    0.0037: real time    0.0040
    EDDIAG:  cpu time    0.0804: real time    0.1181
  RMM-DIIS:  cpu time    0.7724: real time    0.8234
    ORTHCH:  cpu time    0.0125: real time    0.0125
       DOS:  cpu time    0.0009: real time    0.0009
    CHARGE:  cpu time    0.0312: real time    0.0313
    MIXING:  cpu time    0.0015: real time    0.0016
    --------------------------------------------
      LOOP:  cpu time    0.9312: real time    1.0652

 eigenvalue-minimisations  :  7826
 total energy-change (2. order) : 0.3583756E-03  (-0.9700338E-03)
 number of electron     300.0000006 magnetization 
 augmentation part       18.4400662 magnetization 

 Broyden mixing:
  rms(total) = 0.16739E-01    rms(broyden)= 0.16733E-01
  rms(prec ) = 0.27835E-01
  weight for this iteration     100.00

 eigenvalues of (default mixing * dielectric matrix)
  average eigenvalue GAMMA=   1.0235
  2.4099  1.8974  1.4894  1.0578  0.5901  0.5901  0.4120  0.4120  0.3530

 Free energy of the ion-electron system (eV)
  ---------------------------------------------------
  alpha Z        PSCENC =      1599.26579642
  Ewald energy   TEWEN  =    -20626.49178063
  -Hartree energ DENC   =     -6407.25850301
  -exchange      EXHF   =         0.00000000
  -V(xc)+E(xc)   XCENC  =      -246.28796750
  PAW double counting   =     35209.93371349   -33582.01750553
  entropy T*S    EENTRO =         0.01495974
  eigenvalues    EBANDS =     -2627.55385702
  atomic energy  EATOM  =     26313.69662656
  Solvation  Ediel_sol  =         0.00000000
  ---------------------------------------------------
  free energy    TOTEN  =      -366.69851748 eV

  energy without entropy =     -366.71347722  energy(sigma->0) =     -366.70350406


--------------------------------------------------------------------------------------------------------




----------------------------------------- Iteration    1(  15)  ---------------------------------------


    POTLOK:  cpu time    0.0284: real time    0.0287
    SETDIJ:  cpu time    0.0036: real time    0.0036
    EDDIAG:  cpu time    0.0774: real time    0.0786
  RMM-DIIS:  cpu time    0.8865: real time    0.8953
    ORTHCH:  cpu time    0.0126: real time    0.0126
       DOS:  cpu time    0.0019: real time    0.0019
    CHARGE:  cpu time    0.0317: real time    0.0318
    MIXING:  cpu time    0.0016: real time    0.0016
    --------------------------------------------
      LOOP:  cpu time    1.0443: real time    1.1024

 eigenvalue-minimisations  :  7761
 total energy-change (2. order) :-0.1716290E-03  (-0.5264654E-03)
 number of electron     300.0000006 magnetization 
 augmentation part       18.4393661 magnetization 

 Broyden mixing:
  rms(total) = 0.99783E-02    rms(broyden)= 0.99726E-02
  rms(prec ) = 0.19482E-01
  weight for this iteration     100.00

 eigenvalues of (default mixing * dielectric matrix)
  average eigenvalue GAMMA=   1.0145
  2.4953  2.0074  1.5206  1.1595  0.6875  0.6875  0.4262  0.4262  0.3855  0.3496

 Free energy of the ion-electron system (eV)
  ---------------------------------------------------
  alpha Z        PSCENC =      1599.26579642
  Ewald energy   TEWEN  =    -20626.49178063
  -Hartree energ DENC   =     -6407.58298942
  -exchange      EXHF   =         0.00000000
  -V(xc)+E(xc)   XCENC  =      -246.27540859
  PAW double counting   =     35234.28533399   -33606.01332093
  entropy T*S    EENTRO =         0.01500123
  eigenvalues    EBANDS =     -2627.59794773
  atomic energy  EATOM  =     26313.69662656
  Solvation  Ediel_sol  =         0.00000000
  ---------------------------------------------------
  free energy    TOTEN  =      -366.69868911 eV

  energy without entropy =     -366.71369034  energy(sigma->0) =     -366.70368952


--------------------------------------------------------------------------------------------------------




----------------------------------------- Iteration    1(  16)  ---------------------------------------


    POTLOK:  cpu time    0.0282: real time    0.0284
    SETDIJ:  cpu time    0.0037: real time    0.0037
    EDDIAG:  cpu time    0.0784: real time    0.0789
  RMM-DIIS:  cpu time    0.7783: real time    0.7893
    ORTHCH:  cpu time    0.0124: real time    0.0124
       DOS:  cpu time    0.0026: real time    0.0026
    CHARGE:  cpu time    0.0323: real time    0.0324
    MIXING:  cpu time    0.0017: real time    0.0017
    --------------------------------------------
      LOOP:  cpu time    0.9381: real time    1.0159

 eigenvalue-minimisations  :  7496
 total energy-change (2. order) :-0.9014631E-05  (-0.1960598E-03)
 number of electron     300.0000006 magnetization 
 augmentation part       18.4388759 magnetization 

 Broyden mixing:
  rms(total) = 0.62594E-02    rms(broyden)= 0.62576E-02
  rms(prec ) = 0.11661E-01
  weight for this iteration     100.00

 eigenvalues of (default mixing * dielectric matrix)
  average eigenvalue GAMMA=   0.9996
  2.5601  2.0914  1.6587  1.1557  0.7400  0.7400  0.4730  0.4730  0.3823  0.3823
  0.3387

 Free energy of the ion-electron system (eV)
  ---------------------------------------------------
  alpha Z        PSCENC =      1599.26579642
  Ewald energy   TEWEN  =    -20626.49178063
  -Hartree energ DENC   =     -6407.75441365
  -exchange      EXHF   =         0.00000000
[...]
     90       5.0155      2.00000
     91       5.0698      2.00000
     92       5.1095      2.00000
     93       5.1718      2.00000
     94       5.2082      2.00000
     95       5.2437      2.00000
     96       5.2907      2.00000
     97       5.3616      2.00000
     98       5.4165      2.00000
     99       5.4240      2.00000
    100       5.4684      2.00000
    101       5.4869      2.00000
    102       5.5550      2.00000
    103       5.6209      2.00000
    104       5.6662      2.00000
    105       5.7029      2.00000
    106       5.7952      2.00000
    107       5.8436      2.00000
    108       5.8805      2.00000
    109       5.9424      2.00000
    110       6.1639      2.00000
    111       6.2091      2.00000
    112       6.2335      2.00000
    113       6.2627      2.00000
    114       6.2942      2.00000
    115       6.3133      2.00000
    116       6.3600      2.00000
    117       6.3854      2.00000
    118       6.4182      2.00000
    119       6.4439      2.00000
    120       6.4949      2.00000
    121       6.5025      2.00000
    122       6.5403      2.00000
    123       6.5775      2.00000
    124       6.6049      2.00000
    125       6.6362      2.00000
    126       6.6616      2.00000
    127       6.7009      2.00000
    128       6.7532      2.00000
    129       6.7634      2.00000
    130       6.7931      2.00000
    131       6.8585      2.00000
    132       6.9147      2.00000
    133       6.9718      2.00000
    134       7.0105      2.00000
    135       7.0723      2.00000
    136       7.1001      2.00000
    137       7.1453      2.00002
    138       7.1772      2.00007
    139       7.2040      2.00019
    140       7.2451      2.00081
    141       7.3121      2.00596
    142       7.3385      2.01145
    143       7.3739      2.02426
    144       7.4040      2.04044
    145       7.4308      2.05672
    146       7.4687      2.07090
    147       7.4843      2.06758
    148       7.5145      2.03117
    149       7.5790      1.73538
    150       7.6002      1.56062
    151       7.6121      1.44670
    152       7.6696      0.81770
    153       7.7056      0.44820
    154       7.7246      0.28816
    155       7.7631      0.05923
    156       7.7997     -0.04483
    157       7.8399     -0.07081
    158       7.8610     -0.06469
    159       7.8901     -0.04813
    160       7.9407     -0.02082
    161       8.0070     -0.00428
    162       8.0409     -0.00158
    163       8.0706     -0.00060
    164       8.1057     -0.00017
    165       8.1268     -0.00008
    166       8.1787     -0.00001
    167       8.1994     -0.00000
    168       8.2847     -0.00000
    169       8.3239     -0.00000
    170       8.4240     -0.00000
    171       8.4623     -0.00000
    172       8.5264     -0.00000
    173       8.7590     -0.00000
    174       8.8987     -0.00000
    175       8.9586     -0.00000
    176       9.5634     -0.00000
    177       9.6089     -0.00000
    178       9.6542     -0.00000
    179       9.7243     -0.00000
    180       9.7851     -0.00000


--------------------------------------------------------------------------------------------------------


 soft charge-density along one line, spin component           1
         0         1         2         3         4         5         6         7         8         9
 total charge-density along one line
 
 pseudopotential strength for first ion, spin component:           1
 -6.369  -0.004   0.000  -0.001  -0.001  -7.563  -0.004   0.001
 -0.004  -6.364  -0.000  -0.002   0.001  -0.004  -7.558  -0.001
  0.000  -0.000  -6.374  -0.002   0.001   0.001  -0.001  -7.569
 -0.001  -0.002  -0.002  -6.367  -0.003  -0.001  -0.002  -0.002
 -0.001   0.001   0.001  -0.003  -6.376  -0.001   0.001   0.001
 -7.563  -0.004   0.001  -0.001  -0.001  -8.960  -0.005   0.001
 -0.004  -7.558  -0.001  -0.002   0.001  -0.005  -8.954  -0.001
  0.001  -0.001  -7.569  -0.002   0.001   0.001  -0.001  -8.967
 -0.001  -0.002  -0.002  -7.561  -0.004  -0.001  -0.003  -0.002
 -0.001   0.001   0.001  -0.004  -7.573  -0.001   0.001   0.001
  0.001   0.000  -0.001   0.003   0.001   0.002   0.000  -0.001
  0.002   0.000  -0.002   0.005   0.001   0.003   0.000  -0.002
 -0.006   0.001   0.002  -0.003   0.004  -0.008   0.001   0.003
 -0.003  -0.003  -0.000  -0.005   0.001  -0.003  -0.004  -0.000
 -0.003  -0.003   0.004   0.002  -0.006  -0.004  -0.003   0.005
  0.008  -0.002  -0.002   0.004  -0.003   0.010  -0.002  -0.002
  0.004   0.003  -0.000   0.005  -0.001   0.004   0.003  -0.001
  0.003   0.004  -0.005  -0.003   0.007   0.003   0.004  -0.007
 total augmentation occupancy for first ion, spin component:           1
  5.055  -0.222  -0.005   0.079  -0.042  -2.626   0.123  -0.009  -0.047   0.014  -0.070   0.026   0.076   0.005   0.069   0.006
 -0.222   5.029  -0.001  -0.153  -0.046   0.123  -2.588  -0.002   0.087   0.035   0.053   0.001   0.007   0.055   0.010  -0.001
 -0.005  -0.001   4.673  -0.123  -0.027  -0.009  -0.002  -2.573   0.078   0.009   0.021  -0.016  -0.025   0.004  -0.045  -0.002
  0.079  -0.153  -0.123   5.099  -0.208  -0.046   0.087   0.079  -2.650   0.130  -0.236   0.057   0.020   0.007   0.014   0.002
 -0.042  -0.046  -0.027  -0.208   4.649   0.013   0.035   0.009   0.129  -2.551   0.034   0.004  -0.028  -0.005   0.032  -0.003
 -2.626   0.123  -0.009  -0.046   0.013   1.390  -0.071   0.011   0.029  -0.004   0.042  -0.014  -0.039  -0.006  -0.036  -0.003
  0.123  -2.588  -0.002   0.087   0.035  -0.071   1.360   0.002  -0.049  -0.023  -0.030   0.001  -0.003  -0.027  -0.008   0.000
 -0.009  -0.002  -2.573   0.079   0.009   0.011   0.002   1.430  -0.048  -0.003  -0.012   0.009   0.015  -0.000   0.021   0.001
 -0.047   0.087   0.078  -2.650   0.129   0.029  -0.049  -0.048   1.405  -0.079   0.135  -0.031  -0.012  -0.008  -0.006  -0.001
  0.014   0.035   0.009   0.130  -2.551  -0.004  -0.023  -0.003  -0.079   1.413  -0.019  -0.002   0.017   0.002  -0.017   0.002
 -0.070   0.053   0.021  -0.236   0.034   0.042  -0.030  -0.012   0.135  -0.019   2.235  -0.238   0.028   0.008   0.025   0.001
  0.026   0.001  -0.016   0.057   0.004  -0.014   0.001   0.009  -0.031  -0.002  -0.238   0.027   0.002   0.001   0.001  -0.000
  0.076   0.007  -0.025   0.020  -0.028  -0.039  -0.003   0.015  -0.012   0.017   0.028   0.002   0.299  -0.005  -0.004   0.008
  0.005   0.055   0.004   0.007  -0.005  -0.006  -0.027  -0.000  -0.008   0.002   0.008   0.001  -0.005   0.308  -0.008  -0.000
  0.069   0.010  -0.045   0.014   0.032  -0.036  -0.008   0.021  -0.006  -0.017   0.025   0.001  -0.004  -0.008   0.293   0.000
  0.006  -0.001  -0.002   0.002  -0.003  -0.003   0.000   0.001  -0.001   0.002   0.001  -0.000   0.008  -0.000   0.000   0.000
  0.002   0.003   0.000   0.003  -0.001  -0.001  -0.002   0.000  -0.002   0.000  -0.001   0.000  -0.000   0.008   0.000   0.000
  0.004   0.002  -0.003  -0.001   0.004  -0.002  -0.001   0.002   0.001  -0.002   0.002  -0.000  -0.000   0.000   0.007  -0.000


------------------------ aborting loop because EDIFF is reached ----------------------------------------


    CHARGE:  cpu time    0.0564: real time    0.0592
    FORLOC:  cpu time    0.0124: real time    0.0130
    FORNL :  cpu time    0.3666: real time    0.3759
    STRESS:  cpu time    0.9404: real time    0.9946
    FORCOR:  cpu time    0.0419: real time    0.0420
    FORHAR:  cpu time    0.0181: real time    0.0182
    MIXING:  cpu time    0.0013: real time    0.0013
    OFIELD:  cpu time    0.0000: real time    0.0000

  FORCE on cell =-STRESS in cart. coord.  units (eV):
  Direction    XX          YY          ZZ          XY          YZ          ZX
  --------------------------------------------------------------------------------------
  Alpha Z  1587.74116  1587.74116  1587.74116
  Ewald   -6688.29568 -6614.85158 -7268.21903   -92.20321  -202.05861    37.07212
  Hartree  2305.16414  2377.52628  1743.92326   -87.00082  -179.03522    47.08160
  E(xc)   -1314.59139 -1315.53043 -1315.15789     0.07946    -0.12388     0.06938
  Local    -890.74227 -1035.56723   250.49956   177.97032   381.68536   -82.82489
  n-local  -301.12854  -307.17243  -307.98538    -1.05516     2.40520     1.68015
  augment   227.66671   228.20607   228.34563     0.09240    -0.38805    -0.30696
  Kinetic  5074.25100  5079.74419  5080.93397     2.11553    -2.49737    -2.78257
  Fock        0.00000     0.00000     0.00000     0.00000     0.00000     0.00000
  -------------------------------------------------------------------------------------
  Total       0.06513     0.09603     0.08129    -0.00148    -0.01257    -0.01117
  in kB       0.14542     0.21440     0.18148    -0.00331    -0.02806    -0.02493
  external pressure =        0.18 kB  Pullay stress =        0.00 kB


 VOLUME and BASIS-vectors are now :
 -----------------------------------------------------------------------------
  energy-cutoff  :      300.00
  volume of cell :      717.63
      direct lattice vectors                 reciprocal lattice vectors
     6.878933942 -0.008849297  0.016277236     0.145372411  0.000182551 -0.000344020
    -0.012721698 10.147048152  0.008634952     0.000126979  0.098551059 -0.000084477
     0.024319015  0.008781576 10.281123229    -0.000230263 -0.000083060  0.097266253

  length of vectors
     6.878958892 10.147059801 10.281155741     0.145372933  0.098551177  0.097266561


 FORCES acting on ions
    electron-ion (+dipol)            ewald-force                    non-local-force                 convergence-correction
 -----------------------------------------------------------------------------------------------
   0.831E+01 0.856E+02 -.699E+01   -.768E+01 -.851E+02 0.701E+01   -.626E+00 -.529E+00 -.269E-01   -.692E-03 0.151E-01 0.107E-01
   0.450E+01 -.441E+02 0.125E+03   -.499E+01 0.437E+02 -.124E+03   0.492E+00 0.399E+00 -.433E+00   -.140E-02 -.123E-01 0.132E-01
   -.190E+02 0.256E+02 -.530E+02   0.181E+02 -.248E+02 0.531E+02   0.847E+00 -.796E+00 -.810E-01   -.906E-03 -.535E-02 -.183E-01
   0.129E+02 -.131E+02 0.606E+01   -.127E+02 0.127E+02 -.564E+01   -.173E+00 0.324E+00 -.414E+00   -.103E-02 0.646E-02 -.716E-02
   0.442E+02 0.513E+02 0.629E+02   -.453E+02 -.510E+02 -.625E+02   0.118E+01 -.308E+00 -.419E+00   -.395E-02 0.164E-01 0.107E-01
   0.680E+01 -.479E+02 -.832E+02   -.617E+01 0.477E+02 0.826E+02   -.629E+00 0.191E+00 0.632E+00   -.140E-02 -.104E-01 0.638E-02
   -.452E+02 0.461E+02 0.754E+02   0.465E+02 -.460E+02 -.751E+02   -.126E+01 -.382E-01 -.286E+00   0.366E-02 0.164E-01 0.114E-01
   0.277E+02 0.125E+02 0.110E+02   -.282E+02 -.125E+02 -.995E+01   0.498E+00 0.572E-01 -.105E+01   -.269E-02 0.958E-02 -.479E-02
   0.152E+01 -.436E+01 0.124E+03   -.117E+01 0.417E+01 -.123E+03   -.354E+00 0.191E+00 -.607E+00   0.574E-04 -.445E-02 0.134E-01
   0.278E+02 0.160E+02 -.219E+02   -.269E+02 -.152E+02 0.221E+02   -.921E+00 -.798E+00 -.190E+00   0.325E-03 -.577E-02 -.206E-01
   0.837E+01 -.557E+02 0.513E+02   -.833E+01 0.556E+02 -.514E+02   -.301E-01 0.763E-01 0.627E-01   -.326E-02 0.474E-02 0.188E-01
   0.925E+01 -.201E+03 -.153E+03   -.102E+02 0.201E+03 0.152E+03   0.911E+00 -.261E+00 0.659E+00   -.144E-02 -.217E-01 0.204E-01
   -.561E+02 0.118E+03 0.147E+03   0.565E+02 -.119E+03 -.147E+03   -.375E+00 0.138E+00 0.627E+00   0.706E-02 0.344E-01 0.513E-01
   0.591E+02 0.154E+03 0.206E+03   -.595E+02 -.155E+03 -.206E+03   0.479E+00 0.394E+00 0.544E+00   -.473E-02 0.261E-01 0.471E-01
   0.101E+02 -.106E+02 -.766E+02   -.103E+02 0.101E+02 0.761E+02   0.199E+00 0.459E+00 0.548E+00   0.175E-02 -.122E-01 0.156E-01
   0.218E+03 0.568E+02 -.174E+03   -.218E+03 -.565E+02 0.173E+03   0.332E+00 -.338E+00 0.107E+01   -.886E-02 0.106E-01 -.203E-01
   0.137E+03 0.124E+02 -.138E+03   -.137E+03 -.134E+02 0.138E+03   0.378E+00 0.983E+00 0.183E+00   -.112E-01 0.214E-01 -.297E-01
   -.183E+03 0.129E+03 -.125E+03   0.184E+03 -.130E+03 0.125E+03   -.517E+00 0.561E+00 0.258E+00   0.884E-02 0.236E-01 -.240E-01
   0.129E+03 -.138E+02 0.135E+03   -.129E+03 0.145E+02 -.134E+03   -.432E+00 -.645E+00 -.458E+00   -.111E-01 -.380E-01 0.456E-01
   -.130E+03 -.288E+01 0.201E+03   0.129E+03 0.361E+01 -.200E+03   0.504E+00 -.690E+00 -.333E+00   0.842E-02 -.418E-01 0.490E-01
   0.375E+02 0.149E+03 -.158E+03   -.381E+02 -.150E+03 0.157E+03   0.599E+00 0.361E+00 0.353E+00   -.370E-02 0.373E-01 -.498E-01
   -.195E+02 -.907E+02 0.239E+03   0.201E+02 0.906E+02 -.238E+03   -.661E+00 0.196E+00 -.673E+00   0.339E-02 -.333E-01 0.393E-01
   -.251E+02 -.116E+03 0.329E+02   0.251E+02 0.116E+03 -.328E+02   -.276E-01 0.347E+00 -.222E+00   0.883E-02 0.914E-02 0.524E-01
   0.129E+02 -.168E+03 -.246E+03   -.128E+02 0.167E+03 0.246E+03   -.924E-01 0.562E+00 0.558E-01   0.356E-02 -.136E-01 -.450E-01
   0.199E+02 -.350E+01 0.109E+03   -.198E+02 0.406E+01 -.109E+03   -.144E+00 -.515E+00 0.997E-01   -.619E-02 -.386E-01 -.137E-01
   -.853E+02 -.383E+02 0.434E+02   0.861E+02 0.382E+02 -.421E+02   -.843E+00 0.512E-01 -.129E+01   0.760E-02 0.304E-01 -.129E-01
   -.175E+03 -.120E+03 -.285E+03   0.175E+03 0.121E+03 0.285E+03   0.385E-01 -.900E+00 0.266E-01   0.137E-01 -.349E-01 -.322E-01
   -.278E+02 0.576E+02 0.874E+02   0.275E+02 -.581E+02 -.875E+02   0.304E+00 0.485E+00 0.115E+00   0.176E-02 0.130E-01 -.220E-01
   -.110E+02 -.261E+02 -.453E+02   0.111E+02 0.257E+02 0.450E+02   -.964E-01 0.322E+00 0.235E+00   -.115E-02 -.379E-02 0.531E-02
   0.722E+00 0.304E+02 -.513E+02   -.254E+00 -.305E+02 0.511E+02   -.469E+00 0.743E-02 0.222E+00   0.863E-03 0.126E-01 -.160E-01
   -.623E+01 -.871E+00 0.253E+02   0.597E+01 0.127E+01 -.254E+02   0.255E+00 -.387E+00 0.938E-01   0.198E-02 -.123E-01 -.519E-02
   -.391E+01 -.250E+01 0.115E+03   0.360E+01 0.248E+01 -.114E+03   0.318E+00 0.227E-01 -.540E+00   -.409E-03 -.396E-02 0.100E-01
   0.649E+02 -.253E+02 -.878E+02   -.649E+02 0.257E+02 0.873E+02   -.178E-01 -.425E+00 0.478E+00   -.413E-02 -.107E-01 -.920E-02
   -.266E+01 0.735E+02 0.133E+02   0.193E+01 -.732E+02 -.134E+02   0.734E+00 -.293E+00 0.143E+00   -.249E-03 0.121E-01 0.791E-02
   -.136E+02 -.454E+02 -.600E+02   0.138E+02 0.446E+02 0.594E+02   -.223E+00 0.836E+00 0.613E+00   -.665E-03 -.527E-02 -.146E-01
   -.375E+02 0.109E+02 -.428E+02   0.378E+02 -.111E+02 0.427E+02   -.360E+00 0.146E+00 0.106E+00   0.307E-02 0.528E-02 -.849E-02
 -----------------------------------------------------------------------------------------------
   0.184E+00 -.183E+00 -.174E+00   0.142E-13 -.391E-13 -.497E-13   -.190E+00 0.187E+00 0.102E+00   0.582E-02 -.399E-02 0.748E-01
 
 
 POSITION                                       TOTAL-FORCE (eV/Angst)
 -----------------------------------------------------------------------------------
      5.29639      8.51327      5.14961        -0.001553      0.000313     -0.003013
      1.64947      4.98958      1.80196         0.001370      0.001244     -0.001884
      1.57080      5.30854      8.59659         0.003803     -0.002773     -0.002576
      0.02431      6.77339      0.12150         0.000202      0.000556      0.003216
      1.57317      8.50297      1.80756         0.000904      0.000735     -0.002594
      5.23486      5.03008      5.08511        -0.002561     -0.000718     -0.004646
      5.30504      8.46662      1.79621        -0.003403      0.000322     -0.003778
      6.77562     -0.01365      0.18093         0.000988      0.003128      0.001493
      5.19228      1.70439      1.89114        -0.003557      0.003102     -0.006637
      5.33239      5.28603      8.58009        -0.006130      0.000242     -0.001245
      6.86396      6.75362      3.42654         0.003727      0.000590      0.002526
      1.64065      5.10916      5.08191         0.002716     -0.004719     -0.004649
      3.46507     10.09076      3.35671        -0.002663     -0.005366      0.004133
      6.84582     10.13066      3.40861         0.003574     -0.000772      0.006578
      1.75146      1.64346      5.04565         0.000223      0.002060     -0.001028
      0.02936      0.15194      6.71020         0.002805      0.003817      0.003349
     -0.00631      6.67478      6.77407         0.004667      0.004292     -0.002860
      3.48717      9.93181      6.68624        -0.002233     -0.001659      0.005135
      0.05069      3.43390      3.54579         0.004561     -0.005741     -0.002418
      3.36259      3.43282      3.54928        -0.000090     -0.003674     -0.000220
      1.68579      8.47132      8.55120         0.000012      0.001012     -0.000732
      5.19399      4.94247      1.82483        -0.000297      0.002737      0.001141
      3.44562      6.77307      3.45939        -0.002782      0.003394      0.000803
      1.78982      1.44823      8.53158         0.000496      0.003094     -0.000431
      0.01527      3.38105     10.17167        -0.000964      0.001575      0.001527
      3.52321     10.09253      0.24171        -0.002323     -0.006229     -0.000546
      3.40351      3.53386      6.93894        -0.000061     -0.003625      0.000480
      3.40661      6.72956      0.05196        -0.001295      0.002322      0.000498
      5.11297      1.68292      5.08071        -0.004506      0.000726     -0.004192
      5.28965      8.45758      8.52047        -0.000742     -0.002825      0.004698
      3.43580      3.47624     10.19038         0.002778      0.002575     -0.001592
      1.67707      1.75561      1.82378         0.003318      0.001315     -0.005217
      0.04946      3.39553      6.84461         0.001570     -0.003512      0.001270
      1.61122      8.51588      5.11170         0.000939      0.000305      0.005646
      5.10347      1.47288      8.46274        -0.001130      0.001772      0.007022
      3.48581      6.75434      6.81030        -0.002360      0.000387      0.000740
 -----------------------------------------------------------------------------------
    total drift:                               -0.000315      0.000001      0.002948


--------------------------------------------------------------------------------------------------------



  FREE ENERGIE OF THE ION-ELECTRON SYSTEM (eV)
  ---------------------------------------------------
  free  energy   TOTEN  =      -366.86781076 eV

  energy  without entropy=     -366.88193422  energy(sigma->0) =     -366.87251858
 
 d Force = 0.6416800E-04[ 0.452E-05, 0.124E-03]  d Energy = 0.7791241E-04-0.137E-04
 d Force = 0.2461197E+00[ 0.243E+00, 0.249E+00]  d Ewald  = 0.1651132E+01-0.141E+01


--------------------------------------------------------------------------------------------------------


    POTLOK:  cpu time    0.0646: real time    0.0651


--------------------------------------------------------------------------------------------------------




--------------------------------------------------------------------------------------------------------


  
 reached required accuracy - stopping structural energy minimisation
     LOOP+:  cpu time    5.8081: real time    7.1360
    4ORBIT:  cpu time    0.0000: real time    0.0000

 total amount of memory used by VASP on root node    67721. kBytes
========================================================================

   base      :      30000. kBytes
   nonlr-proj:      10715. kBytes
   fftplans  :       2814. kBytes
   grid      :       5360. kBytes
   one-center:        124. kBytes
   wavefun   :      18708. kBytes
 
  
  
 General timing and accounting informations for this job:
 ========================================================
  
                  Total CPU time used (sec):      273.166
                            User time (sec):      272.046
                          System time (sec):        1.120
                         Elapsed time (sec):      315.929
  
                   Maximum memory used (kb):      288916.
                   Average memory used (kb):           0.
  
                          Minor page faults:       169734
                          Major page faults:           34
                 Voluntary context switches:        10401
