<?xml version="1.0" encoding="ISO-8859-1"?>
<modeling>
 <generator>
  <i name="program" type="string">vasp </i>
  <i name="version" type="string">5.4.1  </i>
  <i name="subversion" type="string">05Feb16 (build Jan 29 2020 16:04:39) complex                          parallel </i>
  <i name="platform" type="string">IFC91_ompi </i>
  <i name="date" type="string">2020 06 15 </i>
  <i name="time" type="string">02:44:29 </i>
 </generator>
 <incar>
  <i type="string" name="SYSTEM"> automatically generated by mexm</i>
  <i type="int" name="ISTART">     0</i>
  <i type="string" name="PREC">accurate               ! avoid wrap aro</i>
  <i type="string" name="ALGO"> Fast                   ! blocked Davids</i>
  <i type="int" name="ISPIN">     1</i>
  <i type="int" name="ICHARG">     2</i>
  <i type="int" name="NELM">    70</i>
  <i type="int" name="IBRION">     2</i>
  <i name="EDIFF">      0.00001000</i>
  <i name="EDIFFG">     -0.01000000</i>
  <i type="int" name="NSW">   300</i>
  <i type="int" name="ISIF">     3</i>
  <i type="int" name="ISYM">     1</i>
  <i name="ENCUT">    300.00000000</i>
  <i name="POTIM">      0.15000000</i>
  <i type="string" name="LREAL"> Auto                  ! unpublished met</i>
  <i type="int" name="ISMEAR">     1</i>
  <i name="SIGMA">      0.15000000</i>
  <i type="logical" name="LWAVE"> F  </i>
  <i type="logical" name="LCHARG"> F  </i>
  <i type="logical" name="LVTOT"> F  </i>
  <v type="int" name="KPOINT_BSE">    -1     0     0     0</v>
  <i type="int" name="NELM">    70</i>
 </incar>
 <kpoints>
  <generation param="Gamma">
   <v type="int" name="divisions">       3        3        3 </v>
   <v name="usershift">      0.00000000       0.00000000       0.00000000 </v>
   <v name="genvec1">      0.33333333      -0.00000000       0.00000000 </v>
   <v name="genvec2">      0.00000000       0.33333333       0.00000000 </v>
   <v name="genvec3">      0.00000000       0.00000000       0.33333333 </v>
   <v name="shift">      0.00000000       0.00000000       0.00000000 </v>
  </generation>
  <varray name="kpointlist" >
   <v>       0.00000000       0.00000000       0.00000000 </v>
   <v>       0.33333333       0.00000000       0.00000000 </v>
   <v>       0.00000000       0.33333333       0.00000000 </v>
   <v>       0.33333333       0.33333333       0.00000000 </v>
   <v>      -0.33333333       0.33333333       0.00000000 </v>
   <v>      -0.00000000       0.00000000       0.33333333 </v>
   <v>       0.33333333       0.00000000       0.33333333 </v>
   <v>      -0.33333333       0.00000000       0.33333333 </v>
   <v>      -0.00000000       0.33333333       0.33333333 </v>
   <v>       0.33333333       0.33333333       0.33333333 </v>
   <v>      -0.33333333       0.33333333       0.33333333 </v>
   <v>      -0.00000000      -0.33333333       0.33333333 </v>
   <v>       0.33333333      -0.33333333       0.33333333 </v>
   <v>      -0.33333333      -0.33333333       0.33333333 </v>
  </varray>
  <varray name="weights" >
   <v>       0.03703704 </v>
   <v>       0.07407407 </v>
   <v>       0.07407407 </v>
   <v>       0.07407407 </v>
   <v>       0.07407407 </v>
   <v>       0.07407407 </v>
   <v>       0.07407407 </v>
   <v>       0.07407407 </v>
   <v>       0.07407407 </v>
   <v>       0.07407407 </v>
   <v>       0.07407407 </v>
   <v>       0.07407407 </v>
   <v>       0.07407407 </v>
   <v>       0.07407407 </v>
  </varray>
 </kpoints>
 <parameters>
  <separator name="general" >
   <i type="string" name="SYSTEM">automatically generated by mexm</i>
   <i type="logical" name="LCOMPAT"> F  </i>
  </separator>
  <separator name="electronic" >
   <i type="string" name="PREC">accura</i>
   <i name="ENMAX">    300.00000000</i>
   <i name="ENAUG">    461.25700000</i>
   <i name="EDIFF">      0.00001000</i>
   <i type="int" name="IALGO">    68</i>
   <i type="int" name="IWAVPR">    11</i>
   <i type="int" name="NBANDS">   180</i>
   <i name="NELECT">    301.00000000</i>
   <i type="int" name="TURBO">     0</i>
   <i type="int" name="IRESTART">     0</i>
   <i type="int" name="NREBOOT">     0</i>
   <i type="int" name="NMIN">     0</i>
   <i name="EREF">      0.00000000</i>
   <separator name="electronic smearing" >
    <i type="int" name="ISMEAR">     1</i>
    <i name="SIGMA">      0.15000000</i>
    <i name="KSPACING">      0.50000000</i>
    <i type="logical" name="KGAMMA"> T  </i>
   </separator>
   <separator name="electronic projectors" >
    <i type="logical" name="LREAL"> T  </i>
    <v name="ROPT">     -0.00025000     -0.00025000     -0.00025000     -0.00025000</v>
    <i type="int" name="LMAXPAW">  -100</i>
    <i type="int" name="LMAXMIX">     2</i>
    <i type="logical" name="NLSPLINE"> F  </i>
   </separator>
   <separator name="electronic startup" >
    <i type="int" name="ISTART">     0</i>
    <i type="int" name="ICHARG">     2</i>
    <i type="int" name="INIWAV">     1</i>
   </separator>
   <separator name="electronic spin" >
    <i type="int" name="ISPIN">     1</i>
    <i type="logical" name="LNONCOLLINEAR"> F  </i>
    <v name="MAGMOM">      1.00000000      1.00000000      1.00000000      1.00000000      1.00000000      1.00000000      1.00000000      1.00000000      1.00000000      1.00000000      1.00000000      1.00000000      1.00000000      1.00000000      1.00000000      1.00000000      1.00000000      1.00000000      1.00000000      1.00000000
      1.00000000      1.00000000      1.00000000      1.00000000      1.00000000      1.00000000      1.00000000      1.00000000      1.00000000      1.00000000      1.00000000      1.00000000      1.00000000      1.00000000      1.00000000      1.00000000</v>
    <i name="NUPDOWN">     -1.00000000</i>
    <i type="logical" name="LSORBIT"> F  </i>
    <v name="SAXIS">      0.00000000      0.00000000      1.00000000</v>
    <i type="logical" name="LSPIRAL"> F  </i>
    <v name="QSPIRAL">      0.00000000      0.00000000      0.00000000</v>
    <i type="logical" name="LZEROZ"> F  </i>
   </separator>
   <separator name="electronic exchange-correlation" >
    <i type="logical" name="LASPH"> F  </i>
    <i type="logical" name="LMETAGGA"> F  </i>
   </separator>
   <separator name="electronic convergence" >
    <i type="int" name="NELM">    70</i>
    <i type="int" name="NELMDL">    -5</i>
    <i type="int" name="NELMIN">     2</i>
    <i name="ENINI">    300.00000000</i>
    <separator name="electronic convergence detail" >
     <i type="logical" name="LDIAG"> T  </i>
     <i type="logical" name="LSUBROT"> F  </i>
     <i name="WEIMIN">      0.00100000</i>
     <i name="EBREAK">      0.00000001</i>
     <i name="DEPER">      0.30000000</i>
     <i type="int" name="NRMM">     4</i>
     <i name="TIME">      0.40000000</i>
    </separator>
   </separator>
   <separator name="electronic mixer" >
    <i name="AMIX">      0.40000000</i>
    <i name="BMIX">      1.00000000</i>
    <i name="AMIN">      0.10000000</i>
    <i name="AMIX_MAG">      1.60000000</i>
    <i name="BMIX_MAG">      1.00000000</i>
    <separator name="electronic mixer details" >
     <i type="int" name="IMIX">     4</i>
     <i type="logical" name="MIXFIRST"> F  </i>
     <i type="int" name="MAXMIX">   -45</i>
     <i name="WC">    100.00000000</i>
     <i type="int" name="INIMIX">     1</i>
     <i type="int" name="MIXPRE">     1</i>
     <i type="int" name="MREMOVE">     5</i>
    </separator>
   </separator>
   <separator name="electronic dipolcorrection" >
    <i type="logical" name="LDIPOL"> F  </i>
    <i type="logical" name="LMONO"> F  </i>
    <i type="int" name="IDIPOL">     0</i>
    <i name="EPSILON">      1.00000000</i>
    <v name="DIPOL">   -100.00000000   -100.00000000   -100.00000000</v>
    <i name="EFIELD">      0.00000000</i>
   </separator>
  </separator>
  <separator name="grids" >
   <i type="int" name="NGX">    40</i>
   <i type="int" name="NGY">    60</i>
   <i type="int" name="NGZ">    60</i>
   <i type="int" name="NGXF">    80</i>
   <i type="int" name="NGYF">   120</i>
   <i type="int" name="NGZF">   120</i>
   <i type="logical" name="ADDGRID"> F  </i>
  </separator>
  <separator name="ionic" >
   <i type="int" name="NSW">   300</i>
   <i type="int" name="IBRION">     2</i>
   <i type="int" name="ISIF">     3</i>
   <i name="PSTRESS">      0.00000000</i>
   <i name="EDIFFG">     -0.01000000</i>
   <i type="int" name="NFREE">     1</i>
   <i name="POTIM">      0.15000000</i>
   <i name="SMASS">     -3.00000000</i>
   <i name="SCALEE">      1.00000000</i>
  </separator>
  <separator name="ionic md" >
   <i name="TEBEG">      0.00010000</i>
   <i name="TEEND">      0.00010000</i>
   <i type="int" name="NBLOCK">     1</i>
   <i type="int" name="KBLOCK">   300</i>
   <i type="int" name="NPACO">   256</i>
   <i name="APACO">     16.00000000</i>
  </separator>
  <separator name="symmetry" >
   <i type="int" name="ISYM">     1</i>
   <i name="SYMPREC">      0.00001000</i>
  </separator>
  <separator name="dos" >
   <i type="logical" name="LORBIT"> F  </i>
   <v name="RWIGS">     -1.00000000     -1.00000000     -1.00000000     -1.00000000</v>
   <i type="int" name="NEDOS">   301</i>
   <i name="EMIN">     10.00000000</i>
   <i name="EMAX">    -10.00000000</i>
   <i name="EFERMI">      0.00000000</i>
  </separator>
  <separator name="writing" >
   <i type="int" name="NWRITE">     2</i>
   <i type="logical" name="LWAVE"> F  </i>
   <i type="logical" name="LCHARG"> F  </i>
   <i type="logical" name="LPARD"> F  </i>
   <i type="logical" name="LVTOT"> F  </i>
   <i type="logical" name="LVHAR"> F  </i>
   <i type="logical" name="LELF"> F  </i>
   <i type="logical" name="LOPTICS"> F  </i>
   <v name="STM">      0.00000000      0.00000000      0.00000000      0.00000000      0.00000000      0.00000000      0.00000000</v>
  </separator>
  <separator name="performance" >
   <i type="int" name="NPAR">     4</i>
   <i type="int" name="NSIM">     4</i>
   <i type="int" name="NBLK">    -1</i>
   <i type="logical" name="LPLANE"> T  </i>
   <i type="logical" name="LSCALAPACK"> T  </i>
   <i type="logical" name="LSCAAWARE"> F  </i>
   <i type="logical" name="LSCALU"> F  </i>
   <i type="logical" name="LASYNC"> F  </i>
   <i type="logical" name="LORBITALREAL"> F  </i>
  </separator>
  <separator name="miscellaneous" >
   <i type="int" name="IDIOT">     3</i>
   <i type="logical" name="LMUSIC"> F  </i>
   <v name="POMASS">    180.94800000    178.49000000     92.91000000     91.22400000</v>
   <v name="DARWINR">      0.00000000      0.00000000      0.00000000      0.00000000</v>
   <v name="DARWINV">      1.00000000      1.00000000      1.00000000      1.00000000</v>
   <i type="logical" name="LCORR"> T  </i>
  </separator>
  <i type="logical" name="GGA_COMPAT"> T  </i>
  <i type="logical" name="LBERRY"> F  </i>
  <i type="int" name="ICORELEVEL">     0</i>
  <i type="logical" name="LDAU"> F  </i>
  <i type="int" name="I_CONSTRAINED_M">     0</i>
  <separator name="electronic exchange-correlation" >
   <i type="string" name="GGA">--</i>
   <i type="int" name="VOSKOWN">     0</i>
   <i type="logical" name="LHFCALC"> F  </i>
   <i type="string" name="PRECFOCK"></i>
   <i type="logical" name="LSYMGRAD"> F  </i>
   <i type="logical" name="LHFONE"> F  </i>
   <i type="logical" name="LRHFCALC"> F  </i>
   <i type="logical" name="LTHOMAS"> F  </i>
   <i type="logical" name="LMODELHF"> F  </i>
   <i name="ENCUT4O">     -1.00000000</i>
   <i type="int" name="EXXOEP">     0</i>
   <i type="int" name="FOURORBIT">     0</i>
   <i name="AEXX">      0.00000000</i>
   <i name="HFALPHA">      0.00000000</i>
   <i name="MCALPHA">      0.00000000</i>
   <i name="ALDAX">      1.00000000</i>
   <i name="AGGAX">      1.00000000</i>
   <i name="ALDAC">      1.00000000</i>
   <i name="AGGAC">      1.00000000</i>
   <i type="int" name="NKREDX">     1</i>
   <i type="int" name="NKREDY">     1</i>
   <i type="int" name="NKREDZ">     1</i>
   <i type="logical" name="SHIFTRED"> F  </i>
   <i type="logical" name="ODDONLY"> F  </i>
   <i type="logical" name="EVENONLY"> F  </i>
   <i type="int" name="LMAXFOCK">     0</i>
   <i type="int" name="NMAXFOCKAE">     0</i>
   <i type="logical" name="LFOCKAEDFT"> F  </i>
   <i name="HFSCREEN">      0.00000000</i>
   <i name="HFSCREENC">      0.00000000</i>
   <i type="int" name="NBANDSGWLOW">     0</i>
  </separator>
  <separator name="vdW DFT" >
   <i type="logical" name="LUSE_VDW"> F  </i>
   <i name="Zab_VDW">     -0.84910000</i>
   <i name="PARAM1">      0.12340000</i>
   <i name="PARAM2">      1.00000000</i>
   <i name="PARAM3">      0.00000000</i>
  </separator>
  <separator name="model GW" >
   <i type="int" name="MODEL_GW">     0</i>
   <i name="MODEL_EPS0">     11.94366220</i>
   <i name="MODEL_ALPHA">      1.00000000</i>
  </separator>
  <separator name="linear response parameters" >
   <i type="logical" name="LEPSILON"> F  </i>
   <i type="logical" name="LRPA"> F  </i>
   <i type="logical" name="LNABLA"> F  </i>
   <i type="logical" name="LVEL"> F  </i>
   <i type="int" name="KINTER">     0</i>
   <i name="CSHIFT">      0.10000000</i>
   <i name="OMEGAMAX">     -1.00000000</i>
   <i name="DEG_THRESHOLD">      0.00200000</i>
  </separator>
  <separator name="orbital magnetization" >
   <i type="logical" name="NUCIND"> F  </i>
   <v name="MAGPOS">      0.00000000      0.00000000      0.00000000</v>
   <i type="logical" name="LNICSALL"> T  </i>
   <i type="logical" name="ORBITALMAG"> F  </i>
   <i type="logical" name="LMAGBLOCH"> F  </i>
   <i type="logical" name="LCHIMAG"> F  </i>
   <i type="logical" name="LGAUGE"> T  </i>
   <i type="int" name="MAGATOM">     0</i>
   <v name="MAGDIPOL">      0.00000000      0.00000000      0.00000000</v>
   <v name="AVECCONST">      0.00000000      0.00000000      0.00000000</v>
  </separator>
  <separator name="response functions" >
   <i type="logical" name="LADDER"> F  </i>
   <i type="logical" name="LFXC"> F  </i>
   <i type="logical" name="LHARTREE"> T  </i>
   <i type="int" name="IBSE">     0</i>
   <v type="int" name="KPOINT">    -1     0     0     0</v>
   <i type="logical" name="LTCTE"> F  </i>
   <i type="logical" name="LTETE"> F  </i>
   <i type="logical" name="LTRIPLET"> F  </i>
   <i type="logical" name="LFXCEPS"> F  </i>
   <i type="logical" name="LFXHEG"> F  </i>
   <i type="int" name="NATURALO">     0</i>
   <i type="logical" name="L2ORDER"> F  </i>
   <i type="logical" name="LUSEW"> F  </i>
   <i name="ENCUTGW">     -2.00000000</i>
   <i name="ENCUTGWSOFT">     -2.00000000</i>
   <i name="ENCUTLF">     -1.00000000</i>
   <i type="int" name="LMAXMP2">    -1</i>
   <i name="SCISSOR">      0.00000000</i>
   <i type="int" name="NOMEGA">     0</i>
   <i type="int" name="NOMEGAR">     0</i>
   <i type="int" name="NBANDSGW">    -1</i>
   <i type="int" name="NBANDSO">    -1</i>
   <i type="int" name="NBANDSV">    -1</i>
   <i type="int" name="NELM">    70</i>
   <i type="int" name="NELMHF">     1</i>
   <i type="int" name="DIM">     3</i>
   <i type="int" name="ANTIRES">     0</i>
   <i name="OMEGAMAX">    -30.00000000</i>
   <i name="OMEGAMIN">    -30.00000000</i>
   <i name="OMEGATL">   -200.00000000</i>
   <i type="int" name="OMEGAGRID">     0</i>
   <i name="CSHIFT">     -0.10000000</i>
   <i type="logical" name="SELFENERGY"> F  </i>
   <i type="logical" name="LSPECTRAL"> F  </i>
   <i type="logical" name="LSPECTRALGW"> F  </i>
   <i type="logical" name="LSINGLES"> F  </i>
   <i type="logical" name="LFERMIGW"> F  </i>
   <i type="logical" name="ODDONLYGW"> F  </i>
   <i type="logical" name="EVENONLYGW"> F  </i>
   <i type="int" name="NKREDLFX">     1</i>
   <i type="int" name="NKREDLFY">     1</i>
   <i type="int" name="NKREDLFZ">     1</i>
   <i type="int" name="MAXMEM">  1800</i>
   <i type="int" name="TELESCOPE">     0</i>
   <i type="int" name="TAUPAR">     1</i>
   <i type="int" name="OMEGAPAR">    -1</i>
   <i name="LAMBDA">      1.00000000</i>
  </separator>
  <separator name="External order field" >
   <i name="OFIELD_KAPPA">      0.00000000</i>
   <v name="OFIELD_K">      0.00000000      0.00000000      0.00000000</v>
   <i name="OFIELD_Q6_NEAR">      0.00000000</i>
   <i name="OFIELD_Q6_FAR">      0.00000000</i>
   <i name="OFIELD_A">      0.00000000</i>
  </separator>
 </parameters>
 <atominfo>
  <atoms>      36 </atoms>
  <types>       4 </types>
  <array name="atoms" >
   <dimension dim="1">ion</dimension>
   <field type="string">element</field>
   <field type="int">atomtype</field>
   <set>
    <rc><c>Ta</c><c>   1</c></rc>
    <rc><c>Ta</c><c>   1</c></rc>
    <rc><c>Ta</c><c>   1</c></rc>
    <rc><c>Ta</c><c>   1</c></rc>
    <rc><c>Ta</c><c>   1</c></rc>
    <rc><c>Ta</c><c>   1</c></rc>
    <rc><c>Ta</c><c>   1</c></rc>
    <rc><c>Ta</c><c>   1</c></rc>
    <rc><c>Ta</c><c>   1</c></rc>
    <rc><c>Ta</c><c>   1</c></rc>
    <rc><c>Ta</c><c>   1</c></rc>
    <rc><c>Hf</c><c>   2</c></rc>
    <rc><c>Hf</c><c>   2</c></rc>
    <rc><c>Hf</c><c>   2</c></rc>
    <rc><c>Hf</c><c>   2</c></rc>
    <rc><c>Hf</c><c>   2</c></rc>
    <rc><c>Hf</c><c>   2</c></rc>
    <rc><c>Hf</c><c>   2</c></rc>
    <rc><c>Hf</c><c>   2</c></rc>
    <rc><c>Nb</c><c>   3</c></rc>
    <rc><c>Nb</c><c>   3</c></rc>
    <rc><c>Nb</c><c>   3</c></rc>
    <rc><c>Nb</c><c>   3</c></rc>
    <rc><c>Nb</c><c>   3</c></rc>
    <rc><c>Nb</c><c>   3</c></rc>
    <rc><c>Nb</c><c>   3</c></rc>
    <rc><c>Nb</c><c>   3</c></rc>
    <rc><c>Nb</c><c>   3</c></rc>
    <rc><c>Nb</c><c>   3</c></rc>
    <rc><c>Zr</c><c>   4</c></rc>
    <rc><c>Zr</c><c>   4</c></rc>
    <rc><c>Zr</c><c>   4</c></rc>
    <rc><c>Zr</c><c>   4</c></rc>
    <rc><c>Zr</c><c>   4</c></rc>
    <rc><c>Zr</c><c>   4</c></rc>
    <rc><c>Zr</c><c>   4</c></rc>
   </set>
  </array>
  <array name="atomtypes" >
   <dimension dim="1">type</dimension>
   <field type="int">atomspertype</field>
   <field type="string">element</field>
   <field>mass</field>
   <field>valence</field>
   <field type="string">pseudopotential</field>
   <set>
    <rc><c>  11</c><c>Ta</c><c>    180.94800000</c><c>      5.00000000</c><c>  PAW_PBE Ta 17Jan2003                  </c></rc>
    <rc><c>   8</c><c>Hf</c><c>    178.49000000</c><c>      4.00000000</c><c>  PAW_PBE Hf 20Jan2003                  </c></rc>
    <rc><c>  10</c><c>Nb</c><c>     92.91000000</c><c>     13.00000000</c><c>  PAW_PBE Nb_sv 25May2007               </c></rc>
    <rc><c>   7</c><c>Zr</c><c>     91.22400000</c><c>     12.00000000</c><c>  PAW_PBE Zr_sv 04Jan2005               </c></rc>
   </set>
  </array>
 </atominfo>
 <structure name="initialpos" >
  <crystal>
   <varray name="basis" >
    <v>       6.84130255       0.00590616      -0.00678909 </v>
    <v>       0.00895900      10.23744875      -0.02233266 </v>
    <v>      -0.01001653      -0.02210320      10.23201150 </v>
   </varray>
   <i name="volume">    716.61973220 </i>
   <varray name="rec_basis" >
    <v>       0.14617125      -0.00012761       0.00014282 </v>
    <v>      -0.00008412       0.09768112       0.00021093 </v>
    <v>       0.00009680       0.00021312       0.09773305 </v>
   </varray>
  </crystal>
  <varray name="positions" >
   <v>       0.23296200       0.49271300       0.17923100 </v>
   <v>       0.98587600       0.32911600       0.35566900 </v>
   <v>       0.24398600       0.50798600       0.49592900 </v>
   <v>       0.24343000       0.52180100       0.82297100 </v>
   <v>       0.01408700       0.68261800       0.00225600 </v>
   <v>       0.22629800       0.84102100       0.18134300 </v>
   <v>       0.51027800       0.33363300       0.34625100 </v>
   <v>       0.75113800       0.50597900       0.49785500 </v>
   <v>       0.77087100       0.83831200       0.17569000 </v>
   <v>       0.99814800       0.98615200       0.01092300 </v>
   <v>       0.75703200       0.17029400       0.17135800 </v>
   <v>       0.48499400       0.33448700       0.99420800 </v>
   <v>       0.24282200       0.16868100       0.18109000 </v>
   <v>       0.00385000       0.33301500       0.65797900 </v>
   <v>       0.24421000       0.83415200       0.49996700 </v>
   <v>       0.75521500       0.15487900       0.83678600 </v>
   <v>       0.76110700       0.51143800       0.83731500 </v>
   <v>       0.50417200       0.66747800       0.32750200 </v>
   <v>       0.76711900       0.48954500       0.16610000 </v>
   <v>       0.50630600       0.00204900       0.32858300 </v>
   <v>       0.98888400       0.00671800       0.33200600 </v>
   <v>       0.25174200       0.16126300       0.49032700 </v>
   <v>       0.00117200       0.00900900       0.65698700 </v>
   <v>       0.99112300       0.66677300       0.33290700 </v>
   <v>       0.00828200       0.65974600       0.66653300 </v>
   <v>       0.24487600       0.83142800       0.82147600 </v>
   <v>       0.74531000       0.16097900       0.49370000 </v>
   <v>       0.49855300       0.00655700       0.65090800 </v>
   <v>       0.48900500       0.65699000       0.66207300 </v>
   <v>       0.25081200       0.13868100       0.82511000 </v>
   <v>       0.03368500       0.33087700       0.98202300 </v>
   <v>       0.50251900       0.99023800       0.01679700 </v>
   <v>       0.49566400       0.33543200       0.66338700 </v>
   <v>       0.48958300       0.67353100       0.00857000 </v>
   <v>       0.75235900       0.83276600       0.50496200 </v>
   <v>       0.75252900       0.83366400       0.82322900 </v>
  </varray>
 </structure>
 <calculation>
  <scstep>
   <time name="dav">    1.04    1.04</time>
   <time name="total">    1.11    1.40</time>
   <energy>
    <i name="alphaZ">   1596.92296669 </i>
    <i name="ewald"> -19317.58287466 </i>
    <i name="hartreedc">  -8177.89075561 </i>
    <i name="XCdc">   -240.13510980 </i>
    <i name="pawpsdc">  22436.85201411 </i>
    <i name="pawaedc"> -20828.86324625 </i>
    <i name="eentropy">      0.00147673 </i>
    <i name="bandstr">   -106.25692704 </i>
    <i name="atom">  26584.64882761 </i>
    <i name="e_fr_energy">   1947.69637178 </i>
    <i name="e_wo_entrp">   1947.69489504 </i>
    <i name="e_0_energy">   1947.69587953 </i>
   </energy>
  </scstep>
  <scstep>
   <time name="dav">    1.07    1.08</time>
   <time name="total">    1.07    1.20</time>
   <energy>
    <i name="e_fr_energy">    -92.54125627 </i>
    <i name="e_wo_entrp">    -92.53881044 </i>
    <i name="e_0_energy">    -92.54044099 </i>
   </energy>
  </scstep>
  <scstep>
   <time name="dav">    1.57    1.59</time>
   <time name="total">    1.57    1.63</time>
   <energy>
    <i name="e_fr_energy">   -350.07674902 </i>
    <i name="e_wo_entrp">   -350.07498968 </i>
    <i name="e_0_energy">   -350.07616257 </i>
   </energy>
  </scstep>
  <scstep>
   <time name="dav">    1.53    1.58</time>
   <time name="total">    1.54    1.61</time>
   <energy>
    <i name="e_fr_energy">   -380.81473146 </i>
    <i name="e_wo_entrp">   -380.83614280 </i>
    <i name="e_0_energy">   -380.82186857 </i>
   </energy>
  </scstep>
  <scstep>
   <time name="dav">    1.58    1.60</time>
   <time name="total">    1.61    1.66</time>
   <energy>
    <i name="e_fr_energy">   -383.90899397 </i>
    <i name="e_wo_entrp">   -383.93160281 </i>
    <i name="e_0_energy">   -383.91653025 </i>
   </energy>
  </scstep>
  <scstep>
   <time name="diag">    0.08    0.08</time>
   <time name="diis">    0.74    0.75</time>
   <time name="orth">    0.01    0.01</time>
   <time name="total">    0.90    0.94</time>
   <energy>
    <i name="e_fr_energy">   -373.56538450 </i>
    <i name="e_wo_entrp">   -373.58383255 </i>
    <i name="e_0_energy">   -373.57153385 </i>
   </energy>
  </scstep>
  <scstep>
   <time name="diag">    0.08    0.08</time>
   <time name="diis">    0.82    0.82</time>
   <time name="orth">    0.01    0.01</time>
   <time name="total">    0.98    1.01</time>
   <energy>
    <i name="e_fr_energy">   -377.58557133 </i>
    <i name="e_wo_entrp">   -377.58973697 </i>
    <i name="e_0_energy">   -377.58695988 </i>
   </energy>
  </scstep>
  <scstep>
   <time name="diag">    0.08    0.08</time>
   <time name="diis">    0.75    0.75</time>
   <time name="orth">    0.01    0.01</time>
   <time name="total">    0.92    0.95</time>
   <energy>
    <i name="e_fr_energy">   -368.79180069 </i>
    <i name="e_wo_entrp">   -368.81506070 </i>
    <i name="e_0_energy">   -368.79955403 </i>
   </energy>
  </scstep>
  <scstep>
   <time name="diag">    0.08    0.08</time>
   <time name="diis">    0.80    0.80</time>
   <time name="orth">    0.01    0.01</time>
   <time name="total">    0.96    1.00</time>
   <energy>
    <i name="e_fr_energy">   -368.56627271 </i>
    <i name="e_wo_entrp">   -368.58542847 </i>
    <i name="e_0_energy">   -368.57265796 </i>
   </energy>
  </scstep>
  <scstep>
   <time name="diag">    0.11    0.11</time>
   <time name="diis">    0.79    0.80</time>
   <time name="orth">    0.01    0.01</time>
   <time name="total">    0.98    1.02</time>
   <energy>
    <i name="e_fr_energy">   -368.50833401 </i>
    <i name="e_wo_entrp">   -368.53198951 </i>
    <i name="e_0_energy">   -368.51621918 </i>
   </energy>
  </scstep>
  <scstep>
   <time name="diag">    0.08    0.08</time>
   <time name="diis">    0.88    0.89</time>
   <time name="orth">    0.04    0.05</time>
   <time name="total">    1.08    1.13</time>
   <energy>
    <i name="e_fr_energy">   -368.47151028 </i>
    <i name="e_wo_entrp">   -368.49334728 </i>
    <i name="e_0_energy">   -368.47878928 </i>
   </energy>
  </scstep>
  <scstep>
   <time name="diag">    0.08    0.09</time>
   <time name="diis">    0.86    0.87</time>
   <time name="orth">    0.01    0.01</time>
   <time name="total">    1.03    1.13</time>
   <energy>
    <i name="e_fr_energy">   -368.46748315 </i>
    <i name="e_wo_entrp">   -368.49186384 </i>
    <i name="e_0_energy">   -368.47561005 </i>
   </energy>
  </scstep>
  <scstep>
   <time name="diag">    0.11    0.11</time>
   <time name="diis">    0.80    0.81</time>
   <time name="orth">    0.01    0.01</time>
   <time name="total">    1.00    1.03</time>
   <energy>
    <i name="e_fr_energy">   -368.46480543 </i>
    <i name="e_wo_entrp">   -368.48889639 </i>
    <i name="e_0_energy">   -368.47283575 </i>
   </energy>
  </scstep>
  <scstep>
   <time name="diag">    0.08    0.11</time>
   <time name="diis">    0.81    0.88</time>
   <time name="orth">    0.01    0.01</time>
   <time name="total">    0.97    1.10</time>
   <energy>
    <i name="e_fr_energy">   -368.46463763 </i>
    <i name="e_wo_entrp">   -368.48867007 </i>
    <i name="e_0_energy">   -368.47264844 </i>
   </energy>
  </scstep>
  <scstep>
   <time name="diag">    0.17    0.17</time>
   <time name="diis">    0.84    0.84</time>
   <time name="orth">    0.01    0.01</time>
   <time name="total">    1.08    1.12</time>
   <energy>
    <i name="e_fr_energy">   -368.46474875 </i>
    <i name="e_wo_entrp">   -368.48846292 </i>
    <i name="e_0_energy">   -368.47265347 </i>
   </energy>
  </scstep>
  <scstep>
   <time name="diag">    0.08    0.08</time>
   <time name="diis">    0.78    0.78</time>
   <time name="orth">    0.01    0.01</time>
   <time name="total">    0.94    0.99</time>
   <energy>
    <i name="e_fr_energy">   -368.46477467 </i>
    <i name="e_wo_entrp">   -368.48863085 </i>
    <i name="e_0_energy">   -368.47272673 </i>
   </energy>
  </scstep>
  <scstep>
   <time name="diag">    0.08    0.08</time>
   <time name="diis">    0.70    0.70</time>
   <time name="orth">    0.01    0.01</time>
   <time name="total">    0.87    0.90</time>
   <energy>
    <i name="e_fr_energy">   -368.46477384 </i>
    <i name="e_wo_entrp">   -368.48864002 </i>
    <i name="e_0_energy">   -368.47272923 </i>
   </energy>
  </scstep>
  <scstep>
   <time name="diag">    0.08    0.08</time>
   <time name="diis">    0.66    0.66</time>
   <time name="orth">    0.01    0.01</time>
   <time name="total">    0.81    0.84</time>
   <energy>
    <i name="e_fr_energy">   -368.46480097 </i>
    <i name="e_wo_entrp">   -368.48873785 </i>
    <i name="e_0_energy">   -368.47277993 </i>
   </energy>
  </scstep>
  <scstep>
   <time name="diag">    0.08    0.08</time>
   <time name="diis">    0.52    0.53</time>
   <time name="orth">    0.01    0.01</time>
   <time name="total">    0.68    0.71</time>
   <energy>
    <i name="e_fr_energy">   -368.46480857 </i>
    <i name="e_wo_entrp">   -368.48874166 </i>
    <i name="e_0_energy">   -368.47278627 </i>
   </energy>
  </scstep>
  <scstep>
   <time name="diag">    0.08    0.08</time>
   <time name="diis">    0.44    0.44</time>
   <time name="orth">    0.01    0.01</time>
   <time name="total">    0.56    0.61</time>
   <energy>
    <i name="alphaZ">   1596.92296669 </i>
    <i name="ewald"> -19317.58287466 </i>
    <i name="hartreedc">  -7940.39914963 </i>
    <i name="XCdc">   -240.64388078 </i>
    <i name="pawpsdc">  34757.44203717 </i>
    <i name="pawaedc"> -33127.68295047 </i>
    <i name="eentropy">      0.02392722 </i>
    <i name="bandstr">  -2681.19371707 </i>
    <i name="atom">  26584.64882761 </i>
    <i name="e_fr_energy">   -368.46481391 </i>
    <i name="e_wo_entrp">   -368.48874113 </i>
    <i name="e_0_energy">   -368.47278965 </i>
   </energy>
  </scstep>
  <structure>
   <crystal>
    <varray name="basis" >
     <v>       6.84130255       0.00590616      -0.00678909 </v>
     <v>       0.00895900      10.23744875      -0.02233266 </v>
     <v>      -0.01001653      -0.02210320      10.23201150 </v>
    </varray>
    <i name="volume">    716.61973220 </i>
    <varray name="rec_basis" >
     <v>       0.14617125      -0.00012761       0.00014282 </v>
     <v>      -0.00008412       0.09768112       0.00021093 </v>
     <v>       0.00009680       0.00021312       0.09773305 </v>
    </varray>
   </crystal>
   <varray name="positions" >
    <v>       0.23296200       0.49271300       0.17923100 </v>
    <v>       0.98587600       0.32911600       0.35566900 </v>
    <v>       0.24398600       0.50798600       0.49592900 </v>
    <v>       0.24343000       0.52180100       0.82297100 </v>
    <v>       0.01408700       0.68261800       0.00225600 </v>
    <v>       0.22629800       0.84102100       0.18134300 </v>
    <v>       0.51027800       0.33363300       0.34625100 </v>
    <v>       0.75113800       0.50597900       0.49785500 </v>
    <v>       0.77087100       0.83831200       0.17569000 </v>
    <v>       0.99814800       0.98615200       0.01092300 </v>
    <v>       0.75703200       0.17029400       0.17135800 </v>
    <v>       0.48499400       0.33448700       0.99420800 </v>
    <v>       0.24282200       0.16868100       0.18109000 </v>
    <v>       0.00385000       0.33301500       0.65797900 </v>
    <v>       0.24421000       0.83415200       0.49996700 </v>
    <v>       0.75521500       0.15487900       0.83678600 </v>
    <v>       0.76110700       0.51143800       0.83731500 </v>
    <v>       0.50417200       0.66747800       0.32750200 </v>
    <v>       0.76711900       0.48954500       0.16610000 </v>
    <v>       0.50630600       0.00204900       0.32858300 </v>
    <v>       0.98888400       0.00671800       0.33200600 </v>
    <v>       0.25174200       0.16126300       0.49032700 </v>
    <v>       0.00117200       0.00900900       0.65698700 </v>
    <v>       0.99112300       0.66677300       0.33290700 </v>
    <v>       0.00828200       0.65974600       0.66653300 </v>
    <v>       0.24487600       0.83142800       0.82147600 </v>
    <v>       0.74531000       0.16097900       0.49370000 </v>
    <v>       0.49855300       0.00655700       0.65090800 </v>
    <v>       0.48900500       0.65699000       0.66207300 </v>
    <v>       0.25081200       0.13868100       0.82511000 </v>
    <v>       0.03368500       0.33087700       0.98202300 </v>
    <v>       0.50251900       0.99023800       0.01679700 </v>
    <v>       0.49566400       0.33543200       0.66338700 </v>
    <v>       0.48958300       0.67353100       0.00857000 </v>
    <v>       0.75235900       0.83276600       0.50496200 </v>
    <v>       0.75252900       0.83366400       0.82322900 </v>
   </varray>
  </structure>
  <varray name="forces" >
   <v>      -0.07151071       0.05703524       0.09296547 </v>
   <v>       0.33824073       0.30133202      -0.41894501 </v>
   <v>       0.00226179       0.05469131      -0.12079193 </v>
   <v>       0.01097705      -0.00430611       0.03156552 </v>
   <v>       0.15447514      -0.37203795       0.26948624 </v>
   <v>       0.03057492      -0.03952096       0.04395052 </v>
   <v>      -0.34513843       0.21591608      -0.33491261 </v>
   <v>      -0.01173386      -0.01073349       0.04992624 </v>
   <v>      -0.03930303      -0.00772789      -0.01623196 </v>
   <v>       0.01379116      -0.00193650       0.02177226 </v>
   <v>      -0.05236338      -0.05204310       0.01270986 </v>
   <v>      -0.21474451       0.23530633       0.30881484 </v>
   <v>       0.01187798       0.18594483      -0.02889810 </v>
   <v>       0.01851087       0.00504410      -0.03117389 </v>
   <v>      -0.00003781      -0.00346568      -0.00044941 </v>
   <v>      -0.01377340      -0.04399723      -0.02631449 </v>
   <v>      -0.03510176       0.02562915      -0.05375004 </v>
   <v>      -0.30245626      -0.24597017      -0.20074513 </v>
   <v>       0.17031328      -0.00448795      -0.02898684 </v>
   <v>      -0.02004537       0.00317733       0.00270737 </v>
   <v>       0.02133247      -0.00874683       0.01198614 </v>
   <v>       0.00074856       0.01314430       0.03105735 </v>
   <v>       0.00372740       0.03347366       0.00997225 </v>
   <v>       0.31944064      -0.33712545      -0.26559213 </v>
   <v>       0.03768693      -0.01074743      -0.00029628 </v>
   <v>       0.00858677       0.00141874      -0.00853184 </v>
   <v>      -0.00930746      -0.02920726       0.04265791 </v>
   <v>       0.02240378      -0.00076459       0.01111827 </v>
   <v>      -0.01955413      -0.02195501       0.00249148 </v>
   <v>       0.01573768      -0.03759590      -0.01802803 </v>
   <v>       0.13412460       0.28985368       0.42977405 </v>
   <v>      -0.01206872       0.01673924       0.00347815 </v>
   <v>      -0.01263125       0.02175305      -0.00267549 </v>
   <v>      -0.13487052      -0.24228877       0.18764178 </v>
   <v>      -0.01019974       0.00202992       0.00076183 </v>
   <v>      -0.00997141       0.01216930      -0.00851435 </v>
  </varray>
  <varray name="stress" >
   <v>      -9.20226695       0.41372173       0.29992686 </v>
   <v>       0.41372173      -9.67958090      -0.01357875 </v>
   <v>       0.29992691      -0.01357874      -9.12869875 </v>
  </varray>
  <energy>
   <i name="e_fr_energy">   -368.46481391 </i>
   <i name="e_wo_entrp">   -368.47278965 </i>
   <i name="e_0_energy">      0.02392722 </i>
  </energy>
  <time name="totalsc">   22.42   23.83</time>
 </calculation>
 <calculation>
  <scstep>
   <time name="dav">    1.16    1.26</time>
   <time name="total">    1.24    1.52</time>
   <energy>
    <i name="alphaZ">   1604.99335777 </i>
    <i name="ewald"> -19361.15018323 </i>
    <i name="hartreedc">  -7942.97250362 </i>
    <i name="XCdc">   -239.13890656 </i>
    <i name="pawpsdc">  34757.44529746 </i>
    <i name="pawaedc"> -33127.68428882 </i>
    <i name="eentropy">      0.02258116 </i>
    <i name="bandstr">  -2644.72903801 </i>
    <i name="atom">  26584.64882761 </i>
    <i name="e_fr_energy">   -368.56485623 </i>
    <i name="e_wo_entrp">   -368.58743739 </i>
    <i name="e_0_energy">   -368.57238329 </i>
   </energy>
  </scstep>
  <scstep>
   <time name="diag">    0.08    0.09</time>
   <time name="diis">    0.78    0.86</time>
   <time name="orth">    0.03    0.05</time>
   <time name="total">    1.07    1.23</time>
   <energy>
    <i name="e_fr_energy">   -368.55816371 </i>
    <i name="e_wo_entrp">   -368.58357966 </i>
    <i name="e_0_energy">   -368.56663569 </i>
   </energy>
  </scstep>
  <scstep>
   <time name="diag">    0.11    0.11</time>
   <time name="diis">    0.90    0.94</time>
   <time name="orth">    0.01    0.01</time>
   <time name="total">    1.13    1.23</time>
   <energy>
    <i name="e_fr_energy">   -368.51457156 </i>
    <i name="e_wo_entrp">   -368.53673528 </i>
    <i name="e_0_energy">   -368.52195947 </i>
   </energy>
  </scstep>
  <scstep>
   <time name="diag">    0.08    0.08</time>
   <time name="diis">    0.81    0.81</time>
   <time name="orth">    0.01    0.01</time>
   <time name="total">    0.98    1.00</time>
   <energy>
    <i name="e_fr_energy">   -368.50723726 </i>
    <i name="e_wo_entrp">   -368.53123489 </i>
    <i name="e_0_energy">   -368.51523647 </i>
   </energy>
  </scstep>
  <scstep>
   <time name="diag">    0.08    0.08</time>
   <time name="diis">    0.80    0.80</time>
   <time name="orth">    0.01    0.01</time>
   <time name="total">    0.96    0.99</time>
   <energy>
    <i name="e_fr_energy">   -368.50581797 </i>
    <i name="e_wo_entrp">   -368.52904513 </i>
    <i name="e_0_energy">   -368.51356036 </i>
   </energy>
  </scstep>
  <scstep>
   <time name="diag">    0.08    0.08</time>
   <time name="diis">    0.83    0.83</time>
   <time name="orth">    0.01    0.01</time>
   <time name="total">    0.98    1.01</time>
   <energy>
    <i name="e_fr_energy">   -368.50603120 </i>
    <i name="e_wo_entrp">   -368.52952165 </i>
    <i name="e_0_energy">   -368.51386135 </i>
   </energy>
  </scstep>
  <scstep>
   <time name="diag">    0.08    0.08</time>
   <time name="diis">    0.82    0.82</time>
   <time name="orth">    0.01    0.01</time>
   <time name="total">    0.97    1.00</time>
   <energy>
    <i name="e_fr_energy">   -368.50616860 </i>
    <i name="e_wo_entrp">   -368.52967682 </i>
    <i name="e_0_energy">   -368.51400467 </i>
   </energy>
  </scstep>
  <scstep>
   <time name="diag">    0.08    0.08</time>
   <time name="diis">    0.74    0.74</time>
   <time name="orth">    0.01    0.01</time>
   <time name="total">    0.90    0.94</time>
   <energy>
    <i name="e_fr_energy">   -368.50630035 </i>
    <i name="e_wo_entrp">   -368.52972320 </i>
    <i name="e_0_energy">   -368.51410797 </i>
   </energy>
  </scstep>
  <scstep>
   <time name="diag">    0.08    0.08</time>
   <time name="diis">    0.78    0.78</time>
   <time name="orth">    0.01    0.01</time>
   <time name="total">    0.93    0.97</time>
   <energy>
    <i name="e_fr_energy">   -368.50639032 </i>
    <i name="e_wo_entrp">   -368.52985677 </i>
    <i name="e_0_energy">   -368.51421247 </i>
   </energy>
  </scstep>
  <scstep>
   <time name="diag">    0.08    0.08</time>
   <time name="diis">    0.55    0.69</time>
   <time name="orth">    0.01    0.01</time>
   <time name="total">    0.71    0.87</time>
   <energy>
    <i name="e_fr_energy">   -368.50646182 </i>
    <i name="e_wo_entrp">   -368.52992729 </i>
    <i name="e_0_energy">   -368.51428364 </i>
   </energy>
  </scstep>
  <scstep>
   <time name="diag">    0.08    0.08</time>
   <time name="diis">    0.51    0.52</time>
   <time name="orth">    0.01    0.01</time>
   <time name="total">    0.67    0.71</time>
   <energy>
    <i name="e_fr_energy">   -368.50648681 </i>
    <i name="e_wo_entrp">   -368.52994036 </i>
    <i name="e_0_energy">   -368.51430466 </i>
   </energy>
  </scstep>
  <scstep>
   <time name="diag">    0.08    0.08</time>
   <time name="diis">    0.49    0.49</time>
   <time name="orth">    0.01    0.01</time>
   <time name="total">    0.65    0.68</time>
   <energy>
    <i name="e_fr_energy">   -368.50649783 </i>
    <i name="e_wo_entrp">   -368.52994910 </i>
    <i name="e_0_energy">   -368.51431492 </i>
   </energy>
  </scstep>
  <scstep>
   <time name="diag">    0.08    0.12</time>
   <time name="diis">    0.34    0.41</time>
   <time name="orth">    0.01    0.01</time>
   <time name="total">    0.46    0.66</time>
   <energy>
    <i name="alphaZ">   1604.99335777 </i>
    <i name="ewald"> -19361.15018323 </i>
    <i name="hartreedc">  -7921.22052610 </i>
    <i name="XCdc">   -240.05964297 </i>
    <i name="pawpsdc">  34971.48333726 </i>
    <i name="pawaedc"> -33341.37464604 </i>
    <i name="eentropy">      0.02345232 </i>
    <i name="bandstr">  -2665.85047754 </i>
    <i name="atom">  26584.64882761 </i>
    <i name="e_fr_energy">   -368.50650092 </i>
    <i name="e_wo_entrp">   -368.52995324 </i>
    <i name="e_0_energy">   -368.51431836 </i>
   </energy>
  </scstep>
  <structure>
   <crystal>
    <varray name="basis" >
     <v>       6.82998222       0.00640485      -0.00640900 </v>
     <v>       0.00970458      10.21963076      -0.02232052 </v>
     <v>      -0.00944977      -0.02209046      10.21521531 </v>
    </varray>
    <i name="volume">    713.01635187 </i>
    <varray name="rec_basis" >
     <v>       0.14641352      -0.00013874       0.00013514 </v>
     <v>      -0.00009156       0.09785144       0.00021152 </v>
     <v>       0.00009166       0.00021372       0.09789374 </v>
    </varray>
   </crystal>
   <varray name="positions" >
    <v>       0.23281081       0.49279400       0.17936257 </v>
    <v>       0.98659013       0.32954031       0.35507782 </v>
    <v>       0.24399043       0.50806295       0.49575832 </v>
    <v>       0.24345330       0.52179500       0.82301565 </v>
    <v>       0.01441504       0.68209268       0.00263625 </v>
    <v>       0.22636285       0.84096523       0.18140509 </v>
    <v>       0.50954677       0.33393764       0.34577746 </v>
    <v>       0.75111330       0.50596399       0.49792557 </v>
    <v>       0.77078783       0.83830107       0.17566696 </v>
    <v>       0.99817722       0.98614931       0.01095381 </v>
    <v>       0.75692135       0.17022053       0.17137574 </v>
    <v>       0.48453991       0.33482086       0.99464523 </v>
    <v>       0.24284672       0.16894377       0.18104971 </v>
    <v>       0.00388909       0.33302201       0.65793495 </v>
    <v>       0.24420993       0.83414710       0.49996635 </v>
    <v>       0.75518589       0.15481674       0.83674862 </v>
    <v>       0.76103258       0.51147411       0.83723900 </v>
    <v>       0.50353219       0.66713002       0.32721687 </v>
    <v>       0.76747925       0.48953836       0.16605922 </v>
    <v>       0.50626359       0.00205352       0.32858681 </v>
    <v>       0.98892917       0.00670565       0.33202296 </v>
    <v>       0.25174362       0.16128168       0.49037097 </v>
    <v>       0.00117984       0.00905635       0.65700121 </v>
    <v>       0.99179885       0.66629520       0.33253074 </v>
    <v>       0.00836175       0.65973076       0.66653260 </v>
    <v>       0.24489415       0.83142997       0.82146395 </v>
    <v>       0.74529045       0.16093785       0.49376024 </v>
    <v>       0.49860042       0.00655593       0.65092376 </v>
    <v>       0.48896368       0.65695899       0.66207643 </v>
    <v>       0.25084533       0.13862778       0.82508441 </v>
    <v>       0.03396909       0.33128792       0.98263198 </v>
    <v>       0.50249344       0.99026169       0.01680195 </v>
    <v>       0.49563723       0.33546276       0.66338326 </v>
    <v>       0.48929852       0.67318921       0.00883448 </v>
    <v>       0.75233742       0.83276888       0.50496307 </v>
    <v>       0.75250787       0.83368119       0.82321698 </v>
   </varray>
  </structure>
  <varray name="forces" >
   <v>      -0.05901891       0.05409730       0.07975204 </v>
   <v>       0.30980097       0.27015338      -0.37580965 </v>
   <v>       0.00590639       0.04074338      -0.10668163 </v>
   <v>       0.01625572      -0.02736844       0.04696257 </v>
   <v>       0.12060495      -0.34323689       0.23720497 </v>
   <v>       0.05044029      -0.04457583       0.03963567 </v>
   <v>      -0.31503579       0.20154926      -0.30679620 </v>
   <v>      -0.01409157      -0.00647384       0.03271970 </v>
   <v>      -0.05465687      -0.02838591      -0.01567482 </v>
   <v>       0.01053800       0.00557865      -0.00466866 </v>
   <v>      -0.05262565      -0.03544624       0.00000656 </v>
   <v>      -0.17384045       0.20944604       0.27718365 </v>
   <v>       0.01322286       0.15410815      -0.03565951 </v>
   <v>       0.01002184      -0.00639721      -0.02582818 </v>
   <v>       0.00583918      -0.00666285      -0.00873617 </v>
   <v>      -0.01611405      -0.01231299      -0.01033614 </v>
   <v>      -0.04109291       0.00708895      -0.04213359 </v>
   <v>      -0.26826633      -0.21887598      -0.17536609 </v>
   <v>       0.14098770      -0.00382463      -0.04067095 </v>
   <v>      -0.02391901       0.00132447       0.01563106 </v>
   <v>       0.02366092      -0.00884632       0.02839337 </v>
   <v>       0.00202711       0.02021490       0.02521578 </v>
   <v>      -0.00504487       0.02657923       0.01378839 </v>
   <v>       0.28986557      -0.28663117      -0.21646051 </v>
   <v>       0.01222875       0.00908926      -0.00307397 </v>
   <v>       0.01572378       0.00524444      -0.00019926 </v>
   <v>      -0.00751924      -0.00658351       0.02535022 </v>
   <v>       0.02872359      -0.01200263       0.01928028 </v>
   <v>       0.00332937       0.00150623       0.00649223 </v>
   <v>       0.01596851      -0.00475529       0.00972323 </v>
   <v>       0.10487948       0.25176313       0.37488597 </v>
   <v>      -0.01519555       0.01809020      -0.01439302 </v>
   <v>      -0.00368212       0.01079231       0.00119887 </v>
   <v>      -0.10356437      -0.21732477       0.15877456 </v>
   <v>      -0.01277412      -0.01911308      -0.01804150 </v>
   <v>      -0.01358317       0.00144828       0.00833075 </v>
  </varray>
  <varray name="stress" >
   <v>      -2.09861494       0.36607517       0.26925046 </v>
   <v>       0.36607512      -2.46655136       0.01208933 </v>
   <v>       0.26925048       0.01208939      -1.97444105 </v>
  </varray>
  <energy>
   <i name="e_fr_energy">   -368.50650092 </i>
   <i name="e_wo_entrp">   -368.51431836 </i>
   <i name="e_0_energy">      0.02345232 </i>
  </energy>
  <time name="totalsc">   13.34   14.61</time>
 </calculation>
 <calculation>
  <scstep>
   <time name="dav">    1.14    1.14</time>
   <time name="total">    1.23    1.38</time>
   <energy>
    <i name="alphaZ">   1618.09468360 </i>
    <i name="ewald"> -19431.26151360 </i>
    <i name="hartreedc">  -7925.58335909 </i>
    <i name="XCdc">   -237.62982949 </i>
    <i name="pawpsdc">  34971.85491432 </i>
    <i name="pawaedc"> -33341.74386700 </i>
    <i name="eentropy">      0.02086013 </i>
    <i name="bandstr">  -2607.08407880 </i>
    <i name="atom">  26584.64882761 </i>
    <i name="e_fr_energy">   -368.68336231 </i>
    <i name="e_wo_entrp">   -368.70422244 </i>
    <i name="e_0_energy">   -368.69031569 </i>
   </energy>
  </scstep>
  <scstep>
   <time name="diag">    0.08    0.08</time>
   <time name="diis">    0.80    0.81</time>
   <time name="orth">    0.01    0.01</time>
   <time name="total">    0.96    0.99</time>
   <energy>
    <i name="e_fr_energy">   -368.66364192 </i>
    <i name="e_wo_entrp">   -368.68855105 </i>
    <i name="e_0_energy">   -368.67194497 </i>
   </energy>
  </scstep>
  <scstep>
   <time name="diag">    0.08    0.08</time>
   <time name="diis">    0.83    0.84</time>
   <time name="orth">    0.01    0.01</time>
   <time name="total">    0.99    1.02</time>
   <energy>
    <i name="e_fr_energy">   -368.55229112 </i>
    <i name="e_wo_entrp">   -368.57279110 </i>
    <i name="e_0_energy">   -368.55912444 </i>
   </energy>
  </scstep>
  <scstep>
   <time name="diag">    0.08    0.08</time>
   <time name="diis">    0.81    0.81</time>
   <time name="orth">    0.01    0.01</time>
   <time name="total">    0.97    1.00</time>
   <energy>
    <i name="e_fr_energy">   -368.53321903 </i>
    <i name="e_wo_entrp">   -368.55651836 </i>
    <i name="e_0_energy">   -368.54098548 </i>
   </energy>
  </scstep>
  <scstep>
   <time name="diag">    0.08    0.08</time>
   <time name="diis">    0.88    0.89</time>
   <time name="orth">    0.01    0.01</time>
   <time name="total">    1.04    1.08</time>
   <energy>
    <i name="e_fr_energy">   -368.52963415 </i>
    <i name="e_wo_entrp">   -368.55179675 </i>
    <i name="e_0_energy">   -368.53702168 </i>
   </energy>
  </scstep>
  <scstep>
   <time name="diag">    0.08    0.12</time>
   <time name="diis">    0.85    0.86</time>
   <time name="orth">    0.01    0.01</time>
   <time name="total">    1.02    1.13</time>
   <energy>
    <i name="e_fr_energy">   -368.53017297 </i>
    <i name="e_wo_entrp">   -368.55275664 </i>
    <i name="e_0_energy">   -368.53770086 </i>
   </energy>
  </scstep>
  <scstep>
   <time name="diag">    0.08    0.08</time>
   <time name="diis">    0.91    0.92</time>
   <time name="orth">    0.01    0.01</time>
   <time name="total">    1.07    1.11</time>
   <energy>
    <i name="e_fr_energy">   -368.53048542 </i>
    <i name="e_wo_entrp">   -368.55305589 </i>
    <i name="e_0_energy">   -368.53800891 </i>
   </energy>
  </scstep>
  <scstep>
   <time name="diag">    0.08    0.08</time>
   <time name="diis">    0.91    0.91</time>
   <time name="orth">    0.01    0.01</time>
   <time name="total">    1.07    1.11</time>
   <energy>
    <i name="e_fr_energy">   -368.53079839 </i>
    <i name="e_wo_entrp">   -368.55325669 </i>
    <i name="e_0_energy">   -368.53828449 </i>
   </energy>
  </scstep>
  <scstep>
   <time name="diag">    0.09    0.09</time>
   <time name="diis">    0.80    0.80</time>
   <time name="orth">    0.01    0.01</time>
   <time name="total">    0.97    1.01</time>
   <energy>
    <i name="e_fr_energy">   -368.53101297 </i>
    <i name="e_wo_entrp">   -368.55353328 </i>
    <i name="e_0_energy">   -368.53851974 </i>
   </energy>
  </scstep>
  <scstep>
   <time name="diag">    0.09    0.09</time>
   <time name="diis">    0.72    0.72</time>
   <time name="orth">    0.01    0.01</time>
   <time name="total">    0.90    0.94</time>
   <energy>
    <i name="e_fr_energy">   -368.53117420 </i>
    <i name="e_wo_entrp">   -368.55369388 </i>
    <i name="e_0_energy">   -368.53868076 </i>
   </energy>
  </scstep>
  <scstep>
   <time name="diag">    0.08    0.08</time>
   <time name="diis">    0.58    0.59</time>
   <time name="orth">    0.01    0.01</time>
   <time name="total">    0.74    0.77</time>
   <energy>
    <i name="e_fr_energy">   -368.53122757 </i>
    <i name="e_wo_entrp">   -368.55372617 </i>
    <i name="e_0_energy">   -368.53872710 </i>
   </energy>
  </scstep>
  <scstep>
   <time name="diag">    0.08    0.08</time>
   <time name="diis">    0.57    0.58</time>
   <time name="orth">    0.01    0.01</time>
   <time name="total">    0.73    0.77</time>
   <energy>
    <i name="e_fr_energy">   -368.53125132 </i>
    <i name="e_wo_entrp">   -368.55374686 </i>
    <i name="e_0_energy">   -368.53874983 </i>
   </energy>
  </scstep>
  <scstep>
   <time name="diag">    0.08    0.08</time>
   <time name="diis">    0.44    0.44</time>
   <time name="orth">    0.01    0.01</time>
   <time name="total">    0.56    0.60</time>
   <energy>
    <i name="alphaZ">   1618.09468360 </i>
    <i name="ewald"> -19431.26151360 </i>
    <i name="hartreedc">  -7890.66501518 </i>
    <i name="XCdc">   -239.10895412 </i>
    <i name="pawpsdc">  35327.85740095 </i>
    <i name="pawaedc"> -33697.10054587 </i>
    <i name="eentropy">      0.02249744 </i>
    <i name="bandstr">  -2641.01863676 </i>
    <i name="atom">  26584.64882761 </i>
    <i name="e_fr_energy">   -368.53125593 </i>
    <i name="e_wo_entrp">   -368.55375337 </i>
    <i name="e_0_energy">   -368.53875508 </i>
   </energy>
  </scstep>
  <structure>
   <crystal>
    <varray name="basis" >
     <v>       6.81176580       0.00720732      -0.00579736 </v>
     <v>       0.01090434      10.19095843      -0.02230097 </v>
     <v>      -0.00853775      -0.02206995      10.18818726 </v>
    </varray>
    <i name="volume">    707.24322892 </i>
    <varray name="rec_basis" >
     <v>       0.14680508      -0.00015681       0.00012268 </v>
     <v>      -0.00010364       0.09812677       0.00021248 </v>
     <v>       0.00008331       0.00021470       0.09815342 </v>
    </varray>
   </crystal>
   <varray name="positions" >
    <v>       0.23256707       0.49292459       0.17957465 </v>
    <v>       0.98774119       0.33022423       0.35412490 </v>
    <v>       0.24399759       0.50818698       0.49548320 </v>
    <v>       0.24349084       0.52178531       0.82308762 </v>
    <v>       0.01494383       0.68124584       0.00324912 </v>
    <v>       0.22646737       0.84087531       0.18150516 </v>
    <v>       0.50836814       0.33442878       0.34501424 </v>
    <v>       0.75107348       0.50593980       0.49803932 </v>
    <v>       0.77065379       0.83828347       0.17562983 </v>
    <v>       0.99822432       0.98614498       0.01100347 </v>
    <v>       0.75674300       0.17010210       0.17140435 </v>
    <v>       0.48380787       0.33535908       0.99535001 </v>
    <v>       0.24288654       0.16936735       0.18098478 </v>
    <v>       0.00395209       0.33303332       0.65786394 </v>
    <v>       0.24420981       0.83413920       0.49996531 </v>
    <v>       0.75513898       0.15471637       0.83668838 </v>
    <v>       0.76091264       0.51153233       0.83711651 </v>
    <v>       0.50250102       0.66656914       0.32675733 </v>
    <v>       0.76805992       0.48952763       0.16599348 </v>
    <v>       0.50619524       0.00206082       0.32859296 </v>
    <v>       0.98900198       0.00668573       0.33205029 </v>
    <v>       0.25174623       0.16131178       0.49044185 </v>
    <v>       0.00119248       0.00913267       0.65702412 </v>
    <v>       0.99288836       0.66552494       0.33192422 </v>
    <v>       0.00849029       0.65970619       0.66653195 </v>
    <v>       0.24492339       0.83143314       0.82144452 </v>
    <v>       0.74525894       0.16087152       0.49385732 </v>
    <v>       0.49867685       0.00655419       0.65094915 </v>
    <v>       0.48889708       0.65690901       0.66208196 </v>
    <v>       0.25089905       0.13854198       0.82504315 </v>
    <v>       0.03442686       0.33195030       0.98361355 </v>
    <v>       0.50245225       0.99029988       0.01680994 </v>
    <v>       0.49559408       0.33551235       0.66337725 </v>
    <v>       0.48884000       0.67263827       0.00926078 </v>
    <v>       0.75230264       0.83277354       0.50496479 </v>
    <v>       0.75247380       0.83370890       0.82319761 </v>
   </varray>
  </structure>
  <varray name="forces" >
   <v>      -0.03436353       0.05056344       0.05495326 </v>
   <v>       0.26133430       0.21766392      -0.30372020 </v>
   <v>       0.01171967       0.01709749      -0.07990855 </v>
   <v>       0.02474674      -0.06695369       0.07085108 </v>
   <v>       0.06407583      -0.29295382       0.18257161 </v>
   <v>       0.08461775      -0.05033029       0.03149200 </v>
   <v>      -0.26329235       0.17704145      -0.25985011 </v>
   <v>      -0.01836324       0.00043474       0.00536278 </v>
   <v>      -0.08111501      -0.06146150      -0.01366535 </v>
   <v>       0.00508682       0.01746634      -0.04750002 </v>
   <v>      -0.05346787      -0.00939273      -0.02039747 </v>
   <v>      -0.10518383       0.16594932       0.22428668 </v>
   <v>       0.01607378       0.09807259      -0.04675283 </v>
   <v>      -0.00467474      -0.02495834      -0.01647782 </v>
   <v>       0.01445466      -0.01120185      -0.02165980 </v>
   <v>      -0.01896025       0.03951331       0.01569584 </v>
   <v>      -0.05040175      -0.02318834      -0.02314252 </v>
   <v>      -0.20870843      -0.17369146      -0.13290270 </v>
   <v>       0.09009005      -0.00241357      -0.05954325 </v>
   <v>      -0.02961251      -0.00185252       0.03728574 </v>
   <v>       0.02633815      -0.00838684       0.05574431 </v>
   <v>       0.00340745       0.03059793       0.01617026 </v>
   <v>      -0.01945470       0.01559968       0.01917579 </v>
   <v>       0.23807067      -0.20159966      -0.13410399 </v>
   <v>      -0.02944967       0.04150880      -0.00757006 </v>
   <v>       0.02734520       0.01136791       0.01293933 </v>
   <v>      -0.00422697       0.02932562      -0.00247337 </v>
   <v>       0.03905141      -0.02886758       0.03183278 </v>
   <v>       0.04045617       0.04011921       0.01237600 </v>
   <v>       0.01565897       0.04844505       0.05341148 </v>
   <v>       0.05501023       0.18864131       0.28380261 </v>
   <v>      -0.02023431       0.02025701      -0.04367664 </v>
   <v>       0.01127645      -0.00763002       0.00702169 </v>
   <v>      -0.05144469      -0.17545123       0.11112935 </v>
   <v>      -0.01630425      -0.05307809      -0.04736261 </v>
   <v>      -0.01955622      -0.01625357       0.03460470 </v>
  </varray>
  <varray name="stress" >
   <v>       9.79664531       0.28687230       0.20956415 </v>
   <v>       0.28687232       9.62130057       0.05415623 </v>
   <v>       0.20956418       0.05415626       9.98416999 </v>
  </varray>
  <energy>
   <i name="e_fr_energy">   -368.53125593 </i>
   <i name="e_wo_entrp">   -368.53875508 </i>
   <i name="e_0_energy">      0.02249744 </i>
  </energy>
  <time name="totalsc">   13.87   14.64</time>
 </calculation>
 <calculation>
  <scstep>
   <time name="dav">    1.09    1.11</time>
   <time name="total">    1.16    1.33</time>
   <energy>
    <i name="alphaZ">   1615.78854054 </i>
    <i name="ewald"> -19439.40443026 </i>
    <i name="hartreedc">  -7870.03907613 </i>
    <i name="XCdc">   -239.56727768 </i>
    <i name="pawpsdc">  35327.92537459 </i>
    <i name="pawaedc"> -33697.14901294 </i>
    <i name="eentropy">      0.02166248 </i>
    <i name="bandstr">  -2650.78800319 </i>
    <i name="atom">  26584.64882761 </i>
    <i name="e_fr_energy">   -368.56339498 </i>
    <i name="e_wo_entrp">   -368.58505746 </i>
    <i name="e_0_energy">   -368.57061581 </i>
   </energy>
  </scstep>
  <scstep>
   <time name="diag">    0.08    0.08</time>
   <time name="diis">    0.75    0.75</time>
   <time name="orth">    0.01    0.01</time>
   <time name="total">    0.91    0.94</time>
   <energy>
    <i name="e_fr_energy">   -368.56724643 </i>
    <i name="e_wo_entrp">   -368.58953621 </i>
    <i name="e_0_energy">   -368.57467636 </i>
   </energy>
  </scstep>
  <scstep>
   <time name="diag">    0.09    0.09</time>
   <time name="diis">    0.84    0.84</time>
   <time name="orth">    0.01    0.01</time>
   <time name="total">    1.01    1.04</time>
   <energy>
    <i name="e_fr_energy">   -368.56549783 </i>
    <i name="e_wo_entrp">   -368.58747609 </i>
    <i name="e_0_energy">   -368.57282392 </i>
   </energy>
  </scstep>
  <scstep>
   <time name="diag">    0.08    0.08</time>
   <time name="diis">    0.82    0.82</time>
   <time name="orth">    0.01    0.01</time>
   <time name="total">    0.98    1.01</time>
   <energy>
    <i name="e_fr_energy">   -368.56487906 </i>
    <i name="e_wo_entrp">   -368.58710986 </i>
    <i name="e_0_energy">   -368.57228933 </i>
   </energy>
  </scstep>
  <scstep>
   <time name="diag">    0.08    0.08</time>
   <time name="diis">    0.81    0.81</time>
   <time name="orth">    0.01    0.01</time>
   <time name="total">    0.97    1.01</time>
   <energy>
    <i name="e_fr_energy">   -368.56475076 </i>
    <i name="e_wo_entrp">   -368.58681866 </i>
    <i name="e_0_energy">   -368.57210673 </i>
   </energy>
  </scstep>
  <scstep>
   <time name="diag">    0.08    0.08</time>
   <time name="diis">    0.81    0.82</time>
   <time name="orth">    0.01    0.01</time>
   <time name="total">    0.97    1.00</time>
   <energy>
    <i name="e_fr_energy">   -368.56471181 </i>
    <i name="e_wo_entrp">   -368.58685587 </i>
    <i name="e_0_energy">   -368.57209317 </i>
   </energy>
  </scstep>
  <scstep>
   <time name="diag">    0.08    0.08</time>
   <time name="diis">    0.73    0.73</time>
   <time name="orth">    0.01    0.01</time>
   <time name="total">    0.89    0.92</time>
   <energy>
    <i name="e_fr_energy">   -368.56470239 </i>
    <i name="e_wo_entrp">   -368.58679833 </i>
    <i name="e_0_energy">   -368.57206770 </i>
   </energy>
  </scstep>
  <scstep>
   <time name="diag">    0.08    0.08</time>
   <time name="diis">    0.56    0.57</time>
   <time name="orth">    0.01    0.01</time>
   <time name="total">    0.69    0.72</time>
   <energy>
    <i name="alphaZ">   1615.78854054 </i>
    <i name="ewald"> -19439.40443026 </i>
    <i name="hartreedc">  -7875.52088737 </i>
    <i name="XCdc">   -239.31563251 </i>
    <i name="pawpsdc">  35256.12324307 </i>
    <i name="pawaedc"> -33625.27486929 </i>
    <i name="eentropy">      0.02214478 </i>
    <i name="bandstr">  -2645.63163699 </i>
    <i name="atom">  26584.64882761 </i>
    <i name="e_fr_energy">   -368.56470043 </i>
    <i name="e_wo_entrp">   -368.58684521 </i>
    <i name="e_0_energy">   -368.57208202 </i>
   </energy>
  </scstep>
  <structure>
   <crystal>
    <varray name="basis" >
     <v>       6.81512878       0.00796067      -0.00525434 </v>
     <v>       0.01203081      10.19498342      -0.02223104 </v>
     <v>      -0.00772763      -0.02199857      10.19366858 </v>
    </varray>
    <i name="volume">    708.25264570 </i>
    <varray name="rec_basis" >
     <v>       0.14673266      -0.00017291       0.00011086 </v>
     <v>      -0.00011441       0.09808805       0.00021159 </v>
     <v>       0.00007538       0.00021383       0.09810063 </v>
    </varray>
   </crystal>
   <varray name="positions" >
    <v>       0.23237380       0.49306189       0.17975782 </v>
    <v>       0.98886850       0.33087198       0.35322070 </v>
    <v>       0.24402642       0.50827185       0.49523327 </v>
    <v>       0.24356327       0.52168328       0.82322560 </v>
    <v>       0.01534126       0.68040837       0.00381182 </v>
    <v>       0.22670268       0.84075831       0.18159957 </v>
    <v>       0.50722124       0.33492478       0.34426535 </v>
    <v>       0.75101414       0.50592874       0.49810234 </v>
    <v>       0.77041207       0.83818548       0.17559160 </v>
    <v>       0.99825815       0.98616815       0.01095843 </v>
    <v>       0.75653989       0.17003094       0.17138843 </v>
    <v>       0.48322316       0.33586305       0.99601939 </v>
    <v>       0.24294055       0.16971572       0.18088547 </v>
    <v>       0.00397253       0.33300240       0.65780537 </v>
    <v>       0.24424123       0.83411896       0.49993323 </v>
    <v>       0.75507484       0.15472527       0.83668210 </v>
    <v>       0.76074458       0.51152683       0.83702319 </v>
    <v>       0.50154578       0.66604372       0.32633979 </v>
    <v>       0.76853807       0.48951855       0.16587489 </v>
    <v>       0.50609759       0.00206183       0.32865022 </v>
    <v>       0.98909484       0.00666397       0.33214477 </v>
    <v>       0.25175487       0.16137101       0.49049992 </v>
    <v>       0.00115621       0.00919255       0.65706321 </v>
    <v>       0.99393647       0.66485642       0.33143398 </v>
    <v>       0.00848842       0.65975473       0.66652070 </v>
    <v>       0.24499718       0.83145124       0.82145401 </v>
    <v>       0.74523436       0.16088202       0.49390095 </v>
    <v>       0.49879918       0.00651134       0.65100781 </v>
    <v>       0.48895284       0.65694316       0.66210285 </v>
    <v>       0.25095926       0.13857102       0.82510111 </v>
    <v>       0.03476895       0.33254751       0.98450427 </v>
    <v>       0.50238802       0.99034783       0.01675023 </v>
    <v>       0.49559773       0.33552532       0.66338455 </v>
    <v>       0.48850590       0.67211562       0.00962907 </v>
    <v>       0.75225026       0.83269836       0.50489644 </v>
    <v>       0.75241474       0.83369883       0.82323854 </v>
   </varray>
  </structure>
  <varray name="forces" >
   <v>      -0.02999916       0.04156426       0.04690482 </v>
   <v>       0.19855570       0.16033852      -0.20956786 </v>
   <v>       0.00513842       0.01172402      -0.04756443 </v>
   <v>       0.01185295      -0.05374683       0.05552116 </v>
   <v>       0.04108334      -0.21481693       0.13074322 </v>
   <v>       0.05810799      -0.03504985       0.02603084 </v>
   <v>      -0.19710070       0.14849899      -0.19725330 </v>
   <v>      -0.00773654       0.00742149      -0.02965694 </v>
   <v>      -0.04885238      -0.06741911      -0.00405873 </v>
   <v>      -0.00375593      -0.01294954      -0.04376010 </v>
   <v>      -0.04342727      -0.00353994      -0.00985958 </v>
   <v>      -0.06342995       0.13106794       0.17809662 </v>
   <v>       0.00885641       0.03692337      -0.03181071 </v>
   <v>      -0.01045241      -0.02967345      -0.03230818 </v>
   <v>       0.01525507      -0.01316823      -0.02244492 </v>
   <v>      -0.01174279       0.05893608       0.03014806 </v>
   <v>      -0.03687978      -0.02836478      -0.01566624 </v>
   <v>      -0.15179382      -0.13943217      -0.09418168 </v>
   <v>       0.06164621      -0.00245361      -0.05240211 </v>
   <v>      -0.02260948       0.00401674       0.03968988 </v>
   <v>       0.01540049      -0.00213851       0.04906545 </v>
   <v>      -0.00094075       0.02978897      -0.00724727 </v>
   <v>      -0.02518303       0.01445615       0.01081936 </v>
   <v>       0.18713587      -0.12713128      -0.07532319 </v>
   <v>      -0.02622987       0.03595770      -0.00039246 </v>
   <v>       0.01500562       0.00158930       0.01954178 </v>
   <v>       0.00413709       0.05173520      -0.04515888 </v>
   <v>       0.04045109      -0.02916909       0.02506575 </v>
   <v>       0.03531822       0.03904832       0.01577395 </v>
   <v>       0.00757753       0.06895446       0.07368214 </v>
   <v>       0.02536650       0.14481406       0.20416991 </v>
   <v>      -0.01848024       0.01214934      -0.03855830 </v>
   <v>       0.01585616      -0.01122977      -0.00740858 </v>
   <v>      -0.02832433      -0.13453637       0.07154011 </v>
   <v>      -0.01267254      -0.06620186      -0.06417129 </v>
   <v>      -0.00713367      -0.02796362       0.05200169 </v>
  </varray>
  <varray name="stress" >
   <v>       7.75461628       0.18851584       0.15767897 </v>
   <v>       0.18851580       7.63168566       0.06598391 </v>
   <v>       0.15767893       0.06598395       7.90647553 </v>
  </varray>
  <energy>
   <i name="e_fr_energy">   -368.56470043 </i>
   <i name="e_wo_entrp">   -368.57208202 </i>
   <i name="e_0_energy">      0.02214478 </i>
  </energy>
  <time name="totalsc">    9.23    9.75</time>
 </calculation>
 <calculation>
  <scstep>
   <time name="dav">    1.04    1.23</time>
   <time name="total">    1.14    1.46</time>
   <energy>
    <i name="alphaZ">   1609.20428463 </i>
    <i name="ewald"> -19460.78425977 </i>
    <i name="hartreedc">  -7818.11853478 </i>
    <i name="XCdc">   -240.62363511 </i>
    <i name="pawpsdc">  35256.17878917 </i>
    <i name="pawaedc"> -33625.38119502 </i>
    <i name="eentropy">      0.01893460 </i>
    <i name="bandstr">  -2673.73524987 </i>
    <i name="atom">  26584.64882761 </i>
    <i name="e_fr_energy">   -368.59203854 </i>
    <i name="e_wo_entrp">   -368.61097313 </i>
    <i name="e_0_energy">   -368.59835007 </i>
   </energy>
  </scstep>
  <scstep>
   <time name="diag">    0.08    0.08</time>
   <time name="diis">    0.77    0.77</time>
   <time name="orth">    0.01    0.01</time>
   <time name="total">    0.93    0.95</time>
   <energy>
    <i name="e_fr_energy">   -368.62471392 </i>
    <i name="e_wo_entrp">   -368.64501253 </i>
    <i name="e_0_energy">   -368.63148012 </i>
   </energy>
  </scstep>
  <scstep>
   <time name="diag">    0.14    0.14</time>
   <time name="diis">    0.71    0.80</time>
   <time name="orth">    0.01    0.01</time>
   <time name="total">    0.93    1.05</time>
   <energy>
    <i name="e_fr_energy">   -368.61166971 </i>
    <i name="e_wo_entrp">   -368.63156335 </i>
    <i name="e_0_energy">   -368.61830093 </i>
   </energy>
  </scstep>
  <scstep>
   <time name="diag">    0.08    0.08</time>
   <time name="diis">    0.75    0.82</time>
   <time name="orth">    0.01    0.01</time>
   <time name="total">    0.91    1.01</time>
   <energy>
    <i name="e_fr_energy">   -368.60674846 </i>
    <i name="e_wo_entrp">   -368.62723502 </i>
    <i name="e_0_energy">   -368.61357731 </i>
   </energy>
  </scstep>
  <scstep>
   <time name="diag">    0.08    0.08</time>
   <time name="diis">    0.81    0.82</time>
   <time name="orth">    0.01    0.01</time>
   <time name="total">    0.97    1.01</time>
   <energy>
    <i name="e_fr_energy">   -368.60584446 </i>
    <i name="e_wo_entrp">   -368.62587282 </i>
    <i name="e_0_energy">   -368.61252058 </i>
   </energy>
  </scstep>
  <scstep>
   <time name="diag">    0.08    0.08</time>
   <time name="diis">    0.90    0.90</time>
   <time name="orth">    0.01    0.01</time>
   <time name="total">    1.06    1.09</time>
   <energy>
    <i name="e_fr_energy">   -368.60556120 </i>
    <i name="e_wo_entrp">   -368.62579929 </i>
    <i name="e_0_energy">   -368.61230723 </i>
   </energy>
  </scstep>
  <scstep>
   <time name="diag">    0.11    0.11</time>
   <time name="diis">    0.89    0.90</time>
   <time name="orth">    0.01    0.01</time>
   <time name="total">    1.08    1.11</time>
   <energy>
    <i name="e_fr_energy">   -368.60556707 </i>
    <i name="e_wo_entrp">   -368.62575662 </i>
    <i name="e_0_energy">   -368.61229692 </i>
   </energy>
  </scstep>
  <scstep>
   <time name="diag">    0.08    0.08</time>
   <time name="diis">    0.81    0.82</time>
   <time name="orth">    0.01    0.01</time>
   <time name="total">    0.97    1.02</time>
   <energy>
    <i name="e_fr_energy">   -368.60561570 </i>
    <i name="e_wo_entrp">   -368.62590644 </i>
    <i name="e_0_energy">   -368.61237928 </i>
   </energy>
  </scstep>
  <scstep>
   <time name="diag">    0.08    0.08</time>
   <time name="diis">    0.73    0.73</time>
   <time name="orth">    0.01    0.01</time>
   <time name="total">    0.89    0.94</time>
   <energy>
    <i name="e_fr_energy">   -368.60562958 </i>
    <i name="e_wo_entrp">   -368.62577733 </i>
    <i name="e_0_energy">   -368.61234550 </i>
   </energy>
  </scstep>
  <scstep>
   <time name="diag">    0.08    0.08</time>
   <time name="diis">    0.62    0.62</time>
   <time name="orth">    0.01    0.01</time>
   <time name="total">    0.80    0.83</time>
   <energy>
    <i name="e_fr_energy">   -368.60563225 </i>
    <i name="e_wo_entrp">   -368.62585883 </i>
    <i name="e_0_energy">   -368.61237444 </i>
   </energy>
  </scstep>
  <scstep>
   <time name="diag">    0.13    0.13</time>
   <time name="diis">    0.62    0.62</time>
   <time name="orth">    0.02    0.02</time>
   <time name="total">    0.80    0.83</time>
   <energy>
    <i name="alphaZ">   1609.20428463 </i>
    <i name="ewald"> -19460.78425977 </i>
    <i name="hartreedc">  -7833.42594229 </i>
    <i name="XCdc">   -239.92382990 </i>
    <i name="pawpsdc">  35054.59616391 </i>
    <i name="pawaedc"> -33424.35518365 </i>
    <i name="eentropy">      0.02020989 </i>
    <i name="bandstr">  -2658.58590119 </i>
    <i name="atom">  26584.64882761 </i>
    <i name="e_fr_energy">   -368.60563075 </i>
    <i name="e_wo_entrp">   -368.62584065 </i>
    <i name="e_0_energy">   -368.61236739 </i>
   </energy>
  </scstep>
  <structure>
   <crystal>
    <varray name="basis" >
     <v>       6.82476633       0.01011960      -0.00369814 </v>
     <v>       0.01525905      10.20651818      -0.02203062 </v>
     <v>      -0.00540599      -0.02179400      10.20937687 </v>
    </varray>
    <i name="volume">    711.15054792 </i>
    <varray name="rec_basis" >
     <v>       0.14652553      -0.00021889       0.00007712 </v>
     <v>      -0.00014517       0.09797727       0.00020908 </v>
     <v>       0.00005276       0.00021134       0.09794965 </v>
    </varray>
   </crystal>
   <varray name="positions" >
    <v>       0.23182009       0.49345524       0.18028246 </v>
    <v>       0.99209753       0.33272733       0.35063069 </v>
    <v>       0.24410906       0.50851496       0.49451741 </v>
    <v>       0.24377076       0.52139095       0.82362082 </v>
    <v>       0.01647984       0.67800919       0.00542347 </v>
    <v>       0.22737674       0.84042307       0.18186995 </v>
    <v>       0.50393613       0.33634591       0.34212054 </v>
    <v>       0.75084413       0.50589705       0.49828286 </v>
    <v>       0.76971975       0.83790484       0.17548214 </v>
    <v>       0.99835504       0.98623454       0.01082944 </v>
    <v>       0.75595814       0.16982712       0.17134286 </v>
    <v>       0.48154786       0.33730688       0.99793675 </v>
    <v>       0.24309512       0.17071367       0.18060100 </v>
    <v>       0.00403110       0.33291385       0.65763760 </v>
    <v>       0.24433128       0.83406096       0.49984134 </v>
    <v>       0.75489111       0.15475076       0.83666413 </v>
    <v>       0.76026325       0.51151113       0.83675591 </v>
    <v>       0.49881002       0.66453879       0.32514401 </v>
    <v>       0.76990774       0.48949245       0.16553516 </v>
    <v>       0.50581788       0.00206475       0.32881426 </v>
    <v>       0.98936082       0.00660162       0.33241540 </v>
    <v>       0.25177958       0.16154069       0.49066625 </v>
    <v>       0.00105228       0.00936408       0.65717517 </v>
    <v>       0.99693914       0.66294113       0.33002965 </v>
    <v>       0.00848304       0.65989379       0.66648847 </v>
    <v>       0.24520852       0.83150306       0.82148118 </v>
    <v>       0.74516393       0.16091212       0.49402591 </v>
    <v>       0.49914959       0.00638855       0.65117581 </v>
    <v>       0.48911252       0.65704096       0.66216269 </v>
    <v>       0.25113167       0.13865419       0.82526711 </v>
    <v>       0.03574825       0.33425824       0.98705545 </v>
    <v>       0.50220406       0.99048519       0.01657920 </v>
    <v>       0.49560817       0.33556248       0.66340545 </v>
    <v>       0.48754903       0.67061849       0.01068399 </v>
    <v>       0.75210028       0.83248302       0.50470066 </v>
    <v>       0.75224557       0.83366997       0.82335580 </v>
   </varray>
  </structure>
  <varray name="forces" >
   <v>      -0.00561496       0.01805288       0.01260678 </v>
   <v>       0.02858315       0.00599026       0.04246885 </v>
   <v>      -0.01170068      -0.00898135       0.04716334 </v>
   <v>      -0.02015335      -0.02216594       0.01750843 </v>
   <v>      -0.02644834       0.00219095      -0.01696425 </v>
   <v>      -0.01090776       0.01025351       0.00406203 </v>
   <v>      -0.01477446       0.07367484      -0.03261014 </v>
   <v>       0.01994724       0.02714276      -0.12181420 </v>
   <v>       0.03468347      -0.08326832       0.01920068 </v>
   <v>      -0.02967476      -0.09332789      -0.03155389 </v>
   <v>      -0.01694588       0.01321262       0.01217569 </v>
   <v>       0.06665312       0.03356359       0.05301096 </v>
   <v>      -0.00662388      -0.14029054       0.00229352 </v>
   <v>      -0.02816320      -0.04172724      -0.07217780 </v>
   <v>       0.01689109      -0.01957932      -0.02672893 </v>
   <v>       0.00653832       0.11254729       0.07602197 </v>
   <v>      -0.00126650      -0.04547137       0.01026494 </v>
   <v>       0.01325317      -0.04633786       0.01613439 </v>
   <v>      -0.03336826      -0.00010135      -0.03396918 </v>
   <v>       0.00032971       0.02039844       0.04544456 </v>
   <v>      -0.01884253       0.01718916       0.03021705 </v>
   <v>      -0.01293724       0.02493008      -0.06909213 </v>
   <v>      -0.04249290       0.01655465      -0.01211909 </v>
   <v>       0.04148782       0.08148222       0.09098829 </v>
   <v>      -0.01917387       0.02017005       0.01974683 </v>
   <v>      -0.02075075      -0.02392007       0.03917376 </v>
   <v>       0.02544944       0.10149266      -0.14891642 </v>
   <v>       0.04621213      -0.02515751       0.00826525 </v>
   <v>       0.02248532       0.03579124       0.02630342 </v>
   <v>      -0.01290626       0.12488904       0.13242337 </v>
   <v>      -0.07307569       0.01772591      -0.02287439 </v>
   <v>      -0.01208060      -0.00772085      -0.02432393 </v>
   <v>       0.03047269      -0.02124611      -0.04482794 </v>
   <v>       0.04097879      -0.01808358      -0.04204211 </v>
   <v>      -0.00344682      -0.10166487      -0.10764606 </v>
   <v>       0.02738326      -0.05820796       0.10218634 </v>
  </varray>
  <varray name="stress" >
   <v>       1.40736187      -0.10793874       0.01920976 </v>
   <v>      -0.10793866       1.11136540       0.09864687 </v>
   <v>       0.01920974       0.09864696       1.27098608 </v>
  </varray>
  <energy>
   <i name="e_fr_energy">   -368.60563075 </i>
   <i name="e_wo_entrp">   -368.61236739 </i>
   <i name="e_0_energy">      0.02020989 </i>
  </energy>
  <time name="totalsc">   12.10   13.08</time>
 </calculation>
 <calculation>
  <scstep>
   <time name="dav">    1.13    1.13</time>
   <time name="total">    1.22    1.37</time>
   <energy>
    <i name="alphaZ">   1607.37304995 </i>
    <i name="ewald"> -19459.77906314 </i>
    <i name="hartreedc">  -7824.16468463 </i>
    <i name="XCdc">   -240.28230192 </i>
    <i name="pawpsdc">  35053.67210267 </i>
    <i name="pawaedc"> -33423.49484969 </i>
    <i name="eentropy">      0.02031604 </i>
    <i name="bandstr">  -2666.60562308 </i>
    <i name="atom">  26584.64882761 </i>
    <i name="e_fr_energy">   -368.61222618 </i>
    <i name="e_wo_entrp">   -368.63254222 </i>
    <i name="e_0_energy">   -368.61899819 </i>
   </energy>
  </scstep>
  <scstep>
   <time name="diag">    0.14    0.14</time>
   <time name="diis">    0.65    0.65</time>
   <time name="orth">    0.01    0.01</time>
   <time name="total">    0.87    0.90</time>
   <energy>
    <i name="e_fr_energy">   -368.61268326 </i>
    <i name="e_wo_entrp">   -368.63282993 </i>
    <i name="e_0_energy">   -368.61939882 </i>
   </energy>
  </scstep>
  <scstep>
   <time name="diag">    0.08    0.08</time>
   <time name="diis">    0.78    0.79</time>
   <time name="orth">    0.01    0.01</time>
   <time name="total">    0.94    0.97</time>
   <energy>
    <i name="e_fr_energy">   -368.61196937 </i>
    <i name="e_wo_entrp">   -368.63247158 </i>
    <i name="e_0_energy">   -368.61880344 </i>
   </energy>
  </scstep>
  <scstep>
   <time name="diag">    0.08    0.08</time>
   <time name="diis">    0.82    0.82</time>
   <time name="orth">    0.01    0.01</time>
   <time name="total">    0.98    1.03</time>
   <energy>
    <i name="e_fr_energy">   -368.61154142 </i>
    <i name="e_wo_entrp">   -368.63174758 </i>
    <i name="e_0_energy">   -368.61827681 </i>
   </energy>
  </scstep>
  <scstep>
   <time name="diag">    0.08    0.08</time>
   <time name="diis">    0.81    0.81</time>
   <time name="orth">    0.01    0.01</time>
   <time name="total">    0.96    0.99</time>
   <energy>
    <i name="e_fr_energy">   -368.61148509 </i>
    <i name="e_wo_entrp">   -368.63185738 </i>
    <i name="e_0_energy">   -368.61827585 </i>
   </energy>
  </scstep>
  <scstep>
   <time name="diag">    0.08    0.08</time>
   <time name="diis">    0.72    0.73</time>
   <time name="orth">    0.01    0.01</time>
   <time name="total">    0.88    0.91</time>
   <energy>
    <i name="e_fr_energy">   -368.61148268 </i>
    <i name="e_wo_entrp">   -368.63176280 </i>
    <i name="e_0_energy">   -368.61824272 </i>
   </energy>
  </scstep>
  <scstep>
   <time name="diag">    0.08    0.08</time>
   <time name="diis">    0.58    0.58</time>
   <time name="orth">    0.01    0.01</time>
   <time name="total">    0.74    0.76</time>
   <energy>
    <i name="e_fr_energy">   -368.61147264 </i>
    <i name="e_wo_entrp">   -368.63179943 </i>
    <i name="e_0_energy">   -368.61824824 </i>
   </energy>
  </scstep>
  <scstep>
[...]
       <r>    6.9810    1.0000 </r>
       <r>    7.0305    1.0000 </r>
       <r>    7.0823    1.0000 </r>
       <r>    7.1042    1.0000 </r>
       <r>    7.1438    1.0000 </r>
       <r>    7.1663    1.0000 </r>
       <r>    7.2274    1.0000 </r>
       <r>    7.2568    1.0001 </r>
       <r>    7.3001    1.0004 </r>
       <r>    7.3242    1.0009 </r>
       <r>    7.3773    1.0038 </r>
       <r>    7.4212    1.0103 </r>
       <r>    7.4475    1.0167 </r>
       <r>    7.4799    1.0265 </r>
       <r>    7.5099    1.0341 </r>
       <r>    7.5218    1.0354 </r>
       <r>    7.5371    1.0344 </r>
       <r>    7.5950    0.9789 </r>
       <r>    7.6203    0.9157 </r>
       <r>    7.6536    0.7899 </r>
       <r>    7.6943    0.5818 </r>
       <r>    7.7108    0.4894 </r>
       <r>    7.7560    0.2483 </r>
       <r>    7.7997    0.0777 </r>
       <r>    7.8297    0.0086 </r>
       <r>    7.8736   -0.0326 </r>
       <r>    7.9256   -0.0300 </r>
       <r>    7.9457   -0.0240 </r>
       <r>    7.9696   -0.0169 </r>
       <r>    8.0082   -0.0081 </r>
       <r>    8.0398   -0.0039 </r>
       <r>    8.0627   -0.0021 </r>
       <r>    8.1013   -0.0007 </r>
       <r>    8.1738   -0.0001 </r>
       <r>    8.2226   -0.0000 </r>
       <r>    8.2591   -0.0000 </r>
       <r>    8.3418   -0.0000 </r>
       <r>    8.3723   -0.0000 </r>
       <r>    8.4575   -0.0000 </r>
       <r>    8.5141   -0.0000 </r>
       <r>    8.5892   -0.0000 </r>
       <r>    8.7939   -0.0000 </r>
       <r>    8.9212   -0.0000 </r>
       <r>    8.9645   -0.0000 </r>
       <r>    9.5623   -0.0000 </r>
       <r>    9.6549   -0.0000 </r>
       <r>    9.7177   -0.0000 </r>
       <r>    9.7418   -0.0000 </r>
       <r>    9.8203   -0.0000 </r>
      </set>
     </set>
    </set>
   </array>
  </eigenvalues>
  <separator name="orbital magnetization" >
   <v name="MAGDIPOLOUT">      0.00000000      0.00000000      0.00000000</v>
  </separator>
  <dos>
   <i name="efermi">      7.70888589 </i>
   <total>
    <array>
     <dimension dim="1">gridpoints</dimension>
     <dimension dim="2">spin</dimension>
     <field>energy</field>
     <field>total</field>
     <field>integrated</field>
     <set>
      <set comment="spin 1">
       <r>   -49.4872     0.0000     0.0000 </r>
       <r>   -49.2800     0.0000     0.0000 </r>
       <r>   -49.0728     0.0000     0.0000 </r>
       <r>   -48.8656     0.0000     0.0000 </r>
       <r>   -48.6584     0.0000     0.0000 </r>
       <r>   -48.4512     0.0000     0.0000 </r>
       <r>   -48.2440     0.0000     0.0000 </r>
       <r>   -48.0368    -0.0000    -0.0000 </r>
       <r>   -47.8296    -0.0000    -0.0000 </r>
       <r>   -47.6224    -0.0000    -0.0000 </r>
       <r>   -47.4152    -0.0000    -0.0000 </r>
       <r>   -47.2080    -0.0000    -0.0000 </r>
       <r>   -47.0008    -0.0311    -0.0065 </r>
       <r>   -46.7936    -0.3218    -0.0731 </r>
       <r>   -46.5864     9.9604     1.9907 </r>
       <r>   -46.3792    48.2223    11.9824 </r>
       <r>   -46.1720    39.5264    20.1724 </r>
       <r>   -45.9648    -0.7099    20.0253 </r>
       <r>   -45.7576    -0.1218    20.0000 </r>
       <r>   -45.5504    -0.0001    20.0000 </r>
       <r>   -45.3432    -0.0000    20.0000 </r>
       <r>   -45.1360    -0.0000    20.0000 </r>
       <r>   -44.9288     0.0000    20.0000 </r>
       <r>   -44.7216     0.0000    20.0000 </r>
       <r>   -44.5144     0.0000    20.0000 </r>
       <r>   -44.3072     0.0000    20.0000 </r>
       <r>   -44.1000     0.0000    20.0000 </r>
       <r>   -43.8928     0.0000    20.0000 </r>
       <r>   -43.6856     0.0000    20.0000 </r>
       <r>   -43.4784     0.0000    20.0000 </r>
       <r>   -43.2712     0.0000    20.0000 </r>
       <r>   -43.0640     0.0000    20.0000 </r>
       <r>   -42.8568     0.0000    20.0000 </r>
       <r>   -42.6496     0.0000    20.0000 </r>
       <r>   -42.4424     0.0000    20.0000 </r>
       <r>   -42.2352     0.0000    20.0000 </r>
       <r>   -42.0280     0.0000    20.0000 </r>
       <r>   -41.8208    -0.0000    20.0000 </r>
       <r>   -41.6136    -0.0000    20.0000 </r>
       <r>   -41.4064    -0.0000    20.0000 </r>
       <r>   -41.1992    -0.0000    20.0000 </r>
       <r>   -40.9920    -0.0003    19.9999 </r>
       <r>   -40.7848    -0.1947    19.9596 </r>
       <r>   -40.5776     1.0727    20.1819 </r>
       <r>   -40.3704    33.0789    27.0359 </r>
       <r>   -40.1632    32.7758    33.8271 </r>
       <r>   -39.9560     1.0283    34.0401 </r>
       <r>   -39.7488    -0.1932    34.0001 </r>
       <r>   -39.5416    -0.0003    34.0000 </r>
       <r>   -39.3344    -0.0000    34.0000 </r>
       <r>   -39.1272    -0.0000    34.0000 </r>
       <r>   -38.9200     0.0000    34.0000 </r>
       <r>   -38.7128     0.0000    34.0000 </r>
       <r>   -38.5056     0.0000    34.0000 </r>
       <r>   -38.2984     0.0000    34.0000 </r>
       <r>   -38.0912     0.0000    34.0000 </r>
       <r>   -37.8840     0.0000    34.0000 </r>
       <r>   -37.6768     0.0000    34.0000 </r>
       <r>   -37.4696     0.0000    34.0000 </r>
       <r>   -37.2624     0.0000    34.0000 </r>
       <r>   -37.0552     0.0000    34.0000 </r>
       <r>   -36.8480     0.0000    34.0000 </r>
       <r>   -36.6408     0.0000    34.0000 </r>
       <r>   -36.4336     0.0000    34.0000 </r>
       <r>   -36.2264     0.0000    34.0000 </r>
       <r>   -36.0192     0.0000    34.0000 </r>
       <r>   -35.8120     0.0000    34.0000 </r>
       <r>   -35.6048     0.0000    34.0000 </r>
       <r>   -35.3976     0.0000    34.0000 </r>
       <r>   -35.1903     0.0000    34.0000 </r>
       <r>   -34.9831     0.0000    34.0000 </r>
       <r>   -34.7759     0.0000    34.0000 </r>
       <r>   -34.5687     0.0000    34.0000 </r>
       <r>   -34.3615     0.0000    34.0000 </r>
       <r>   -34.1543     0.0000    34.0000 </r>
       <r>   -33.9471     0.0000    34.0000 </r>
       <r>   -33.7399     0.0000    34.0000 </r>
       <r>   -33.5327     0.0000    34.0000 </r>
       <r>   -33.3255     0.0000    34.0000 </r>
       <r>   -33.1183     0.0000    34.0000 </r>
       <r>   -32.9111     0.0000    34.0000 </r>
       <r>   -32.7039     0.0000    34.0000 </r>
       <r>   -32.4967     0.0000    34.0000 </r>
       <r>   -32.2895     0.0000    34.0000 </r>
       <r>   -32.0823     0.0000    34.0000 </r>
       <r>   -31.8751     0.0000    34.0000 </r>
       <r>   -31.6679     0.0000    34.0000 </r>
       <r>   -31.4607     0.0000    34.0000 </r>
       <r>   -31.2535     0.0000    34.0000 </r>
       <r>   -31.0463     0.0000    34.0000 </r>
       <r>   -30.8391     0.0000    34.0000 </r>
       <r>   -30.6319     0.0000    34.0000 </r>
       <r>   -30.4247     0.0000    34.0000 </r>
       <r>   -30.2175     0.0000    34.0000 </r>
       <r>   -30.0103     0.0000    34.0000 </r>
       <r>   -29.8031     0.0000    34.0000 </r>
       <r>   -29.5959     0.0000    34.0000 </r>
       <r>   -29.3887     0.0000    34.0000 </r>
       <r>   -29.1815     0.0000    34.0000 </r>
       <r>   -28.9743     0.0000    34.0000 </r>
       <r>   -28.7671     0.0000    34.0000 </r>
       <r>   -28.5599     0.0000    34.0000 </r>
       <r>   -28.3527     0.0000    34.0000 </r>
       <r>   -28.1455     0.0000    34.0000 </r>
       <r>   -27.9383     0.0000    34.0000 </r>
       <r>   -27.7311     0.0000    34.0000 </r>
       <r>   -27.5239     0.0000    34.0000 </r>
       <r>   -27.3167     0.0000    34.0000 </r>
       <r>   -27.1095     0.0000    34.0000 </r>
       <r>   -26.9023     0.0000    34.0000 </r>
       <r>   -26.6951     0.0000    34.0000 </r>
       <r>   -26.4879     0.0000    34.0000 </r>
       <r>   -26.2807     0.0000    34.0000 </r>
       <r>   -26.0735     0.0000    34.0000 </r>
       <r>   -25.8663     0.0000    34.0000 </r>
       <r>   -25.6591     0.0000    34.0000 </r>
       <r>   -25.4519     0.0000    34.0000 </r>
       <r>   -25.2447     0.0000    34.0000 </r>
       <r>   -25.0375     0.0000    34.0000 </r>
       <r>   -24.8303     0.0000    34.0000 </r>
       <r>   -24.6231     0.0000    34.0000 </r>
       <r>   -24.4159     0.0000    34.0000 </r>
       <r>   -24.2087    -0.0000    34.0000 </r>
       <r>   -24.0015    -0.0000    34.0000 </r>
       <r>   -23.7943    -0.0000    34.0000 </r>
       <r>   -23.5871    -0.0000    34.0000 </r>
       <r>   -23.3799    -0.0040    33.9992 </r>
       <r>   -23.1727    -0.8480    33.8235 </r>
       <r>   -22.9655    10.5556    36.0106 </r>
       <r>   -22.7583    58.0564    48.0400 </r>
       <r>   -22.5511    62.0827    60.9036 </r>
       <r>   -22.3439   103.8243    82.4161 </r>
       <r>   -22.1367    56.0344    94.0265 </r>
       <r>   -21.9295     0.1184    94.0511 </r>
       <r>   -21.7223    -0.2462    94.0001 </r>
       <r>   -21.5151    -0.0003    94.0000 </r>
       <r>   -21.3079    -0.0000    94.0000 </r>
       <r>   -21.1007    -0.0000    94.0000 </r>
       <r>   -20.8934     0.0000    94.0000 </r>
       <r>   -20.6862     0.0000    94.0000 </r>
       <r>   -20.4790     0.0000    94.0000 </r>
       <r>   -20.2718     0.0000    94.0000 </r>
       <r>   -20.0646    -0.0000    94.0000 </r>
       <r>   -19.8574    -0.0000    94.0000 </r>
       <r>   -19.6502    -0.0000    94.0000 </r>
       <r>   -19.4430    -0.0000    94.0000 </r>
       <r>   -19.2358    -0.0033    93.9993 </r>
       <r>   -19.0286    -0.4543    93.9052 </r>
       <r>   -18.8214     4.3710    94.8109 </r>
       <r>   -18.6142    49.7205   105.1130 </r>
       <r>   -18.4070    77.6384   121.1998 </r>
       <r>   -18.1998    60.8533   133.8087 </r>
       <r>   -17.9926    11.2218   136.1339 </r>
       <r>   -17.7854    -0.6238   136.0046 </r>
       <r>   -17.5782    -0.0224   136.0000 </r>
       <r>   -17.3710    -0.0000   136.0000 </r>
       <r>   -17.1638    -0.0000   136.0000 </r>
       <r>   -16.9566     0.0000   136.0000 </r>
       <r>   -16.7494     0.0000   136.0000 </r>
       <r>   -16.5422     0.0000   136.0000 </r>
       <r>   -16.3350     0.0000   136.0000 </r>
       <r>   -16.1278     0.0000   136.0000 </r>
       <r>   -15.9206     0.0000   136.0000 </r>
       <r>   -15.7134     0.0000   136.0000 </r>
       <r>   -15.5062     0.0000   136.0000 </r>
       <r>   -15.2990     0.0000   136.0000 </r>
       <r>   -15.0918     0.0000   136.0000 </r>
       <r>   -14.8846     0.0000   136.0000 </r>
       <r>   -14.6774     0.0000   136.0000 </r>
       <r>   -14.4702     0.0000   136.0000 </r>
       <r>   -14.2630     0.0000   136.0000 </r>
       <r>   -14.0558     0.0000   136.0000 </r>
       <r>   -13.8486     0.0000   136.0000 </r>
       <r>   -13.6414     0.0000   136.0000 </r>
       <r>   -13.4342     0.0000   136.0000 </r>
       <r>   -13.2270     0.0000   136.0000 </r>
       <r>   -13.0198     0.0000   136.0000 </r>
       <r>   -12.8126     0.0000   136.0000 </r>
       <r>   -12.6054     0.0000   136.0000 </r>
       <r>   -12.3982     0.0000   136.0000 </r>
       <r>   -12.1910     0.0000   136.0000 </r>
       <r>   -11.9838     0.0000   136.0000 </r>
       <r>   -11.7766     0.0000   136.0000 </r>
       <r>   -11.5694     0.0000   136.0000 </r>
       <r>   -11.3622     0.0000   136.0000 </r>
       <r>   -11.1550     0.0000   136.0000 </r>
       <r>   -10.9478     0.0000   136.0000 </r>
       <r>   -10.7406     0.0000   136.0000 </r>
       <r>   -10.5334     0.0000   136.0000 </r>
       <r>   -10.3262     0.0000   136.0000 </r>
       <r>   -10.1190     0.0000   136.0000 </r>
       <r>    -9.9118     0.0000   136.0000 </r>
       <r>    -9.7046     0.0000   136.0000 </r>
       <r>    -9.4974     0.0000   136.0000 </r>
       <r>    -9.2902     0.0000   136.0000 </r>
       <r>    -9.0830     0.0000   136.0000 </r>
       <r>    -8.8758     0.0000   136.0000 </r>
       <r>    -8.6686     0.0000   136.0000 </r>
       <r>    -8.4614     0.0000   136.0000 </r>
       <r>    -8.2542     0.0000   136.0000 </r>
       <r>    -8.0470     0.0000   136.0000 </r>
       <r>    -7.8398     0.0000   136.0000 </r>
       <r>    -7.6326     0.0000   136.0000 </r>
       <r>    -7.4254     0.0000   136.0000 </r>
       <r>    -7.2182     0.0000   136.0000 </r>
       <r>    -7.0110     0.0000   136.0000 </r>
       <r>    -6.8038     0.0000   136.0000 </r>
       <r>    -6.5965     0.0000   136.0000 </r>
       <r>    -6.3893     0.0000   136.0000 </r>
       <r>    -6.1821     0.0000   136.0000 </r>
       <r>    -5.9749     0.0000   136.0000 </r>
       <r>    -5.7677     0.0000   136.0000 </r>
       <r>    -5.5605     0.0000   136.0000 </r>
       <r>    -5.3533     0.0000   136.0000 </r>
       <r>    -5.1461     0.0000   136.0000 </r>
       <r>    -4.9389     0.0000   136.0000 </r>
       <r>    -4.7317     0.0000   136.0000 </r>
       <r>    -4.5245     0.0000   136.0000 </r>
       <r>    -4.3173     0.0000   136.0000 </r>
       <r>    -4.1101     0.0000   136.0000 </r>
       <r>    -3.9029     0.0000   136.0000 </r>
       <r>    -3.6957     0.0000   136.0000 </r>
       <r>    -3.4885     0.0000   136.0000 </r>
       <r>    -3.2813     0.0000   136.0000 </r>
       <r>    -3.0741     0.0000   136.0000 </r>
       <r>    -2.8669     0.0000   136.0000 </r>
       <r>    -2.6597     0.0000   136.0000 </r>
       <r>    -2.4525     0.0000   136.0000 </r>
       <r>    -2.2453     0.0000   136.0000 </r>
       <r>    -2.0381     0.0000   136.0000 </r>
       <r>    -1.8309     0.0000   136.0000 </r>
       <r>    -1.6237     0.0000   136.0000 </r>
       <r>    -1.4165     0.0000   136.0000 </r>
       <r>    -1.2093     0.0000   136.0000 </r>
       <r>    -1.0021     0.0000   136.0000 </r>
       <r>    -0.7949     0.0000   136.0000 </r>
       <r>    -0.5877     0.0000   136.0000 </r>
       <r>    -0.3805    -0.0000   136.0000 </r>
       <r>    -0.1733    -0.0000   136.0000 </r>
       <r>     0.0339    -0.0000   136.0000 </r>
       <r>     0.2411    -0.0000   136.0000 </r>
       <r>     0.4483    -0.0001   136.0000 </r>
       <r>     0.6555    -0.0120   135.9975 </r>
       <r>     0.8627     0.1453   136.0276 </r>
       <r>     1.0699     0.8980   136.2137 </r>
       <r>     1.2771     1.5862   136.5423 </r>
       <r>     1.4843     1.5608   136.8657 </r>
       <r>     1.6915     3.0640   137.5006 </r>
       <r>     1.8987     3.7887   138.2856 </r>
       <r>     2.1059     1.8659   138.6723 </r>
       <r>     2.3131     3.7462   139.4485 </r>
       <r>     2.5203     3.8375   140.2436 </r>
       <r>     2.7275     2.9757   140.8602 </r>
       <r>     2.9347     6.9763   142.3057 </r>
       <r>     3.1419     6.5893   143.6710 </r>
       <r>     3.3491     7.4341   145.2113 </r>
       <r>     3.5563     8.0188   146.8728 </r>
       <r>     3.7635     8.2134   148.5747 </r>
       <r>     3.9707    15.1685   151.7176 </r>
       <r>     4.1779    20.6153   155.9891 </r>
       <r>     4.3851    23.6786   160.8954 </r>
       <r>     4.5923    24.1919   165.9080 </r>
       <r>     4.7995    32.7700   172.6980 </r>
       <r>     5.0067    36.4933   180.2594 </r>
       <r>     5.2139    39.1932   188.3803 </r>
       <r>     5.4211    37.7291   196.1979 </r>
       <r>     5.6283    35.8416   203.6243 </r>
       <r>     5.8355    34.3065   210.7327 </r>
       <r>     6.0427    24.8407   215.8797 </r>
       <r>     6.2499    18.4635   219.7053 </r>
       <r>     6.4571    56.6756   231.4486 </r>
       <r>     6.6643    61.7119   244.2354 </r>
       <r>     6.8715    54.6858   255.5664 </r>
       <r>     7.0787    51.0286   266.1396 </r>
       <r>     7.2859    57.6525   278.0853 </r>
       <r>     7.4931    57.7816   290.0577 </r>
       <r>     7.7003    50.9197   300.6083 </r>
       <r>     7.9076    45.4650   310.0287 </r>
       <r>     8.1148    49.3117   320.2462 </r>
       <r>     8.3220    42.0149   328.9517 </r>
       <r>     8.5292    32.9627   335.7817 </r>
       <r>     8.7364    22.5259   340.4491 </r>
       <r>     8.9436    19.5849   344.5071 </r>
       <r>     9.1508    13.8040   347.3673 </r>
       <r>     9.3580    14.9503   350.4650 </r>
       <r>     9.5652    21.8575   354.9939 </r>
       <r>     9.7724    18.8776   358.9054 </r>
       <r>     9.9796     5.6065   360.0671 </r>
       <r>    10.1868    -0.3158   360.0016 </r>
       <r>    10.3940    -0.0079   360.0000 </r>
       <r>    10.6012    -0.0000   360.0000 </r>
       <r>    10.8084    -0.0000   360.0000 </r>
       <r>    11.0156     0.0000   360.0000 </r>
       <r>    11.2228     0.0000   360.0000 </r>
       <r>    11.4300     0.0000   360.0000 </r>
       <r>    11.6372     0.0000   360.0000 </r>
       <r>    11.8444     0.0000   360.0000 </r>
       <r>    12.0516     0.0000   360.0000 </r>
       <r>    12.2588     0.0000   360.0000 </r>
       <r>    12.4660     0.0000   360.0000 </r>
       <r>    12.6732     0.0000   360.0000 </r>
      </set>
     </set>
    </array>
   </total>
  </dos>
 </calculation>
 <structure name="finalpos" >
  <crystal>
   <varray name="basis" >
    <v>       6.83170104       0.00767936      -0.00272441 </v>
    <v>       0.01163522      10.19912041      -0.02795250 </v>
    <v>      -0.00393369      -0.02770248      10.21479665 </v>
   </varray>
   <i name="volume">    711.73356444 </i>
   <varray name="rec_basis" >
    <v>       0.14637664      -0.00016683       0.00005592 </v>
    <v>      -0.00011011       0.09804853       0.00026586 </v>
    <v>       0.00003874       0.00026826       0.09789794 </v>
   </varray>
  </crystal>
  <varray name="positions" >
   <v>       0.22930348       0.49582176       0.18061701 </v>
   <v>       0.99422078       0.33283004       0.34870143 </v>
   <v>       0.24399311       0.50878256       0.49596385 </v>
   <v>       0.24272337       0.51929007       0.82241729 </v>
   <v>       0.01576363       0.67692483       0.00428859 </v>
   <v>       0.22736699       0.84024618       0.18245891 </v>
   <v>       0.50191598       0.33774442       0.33857699 </v>
   <v>       0.75217610       0.50664047       0.49618408 </v>
   <v>       0.77049467       0.83489980       0.17658056 </v>
   <v>       0.99754305       0.98324683       0.01018661 </v>
   <v>       0.75490404       0.16900847       0.17006262 </v>
   <v>       0.48075344       0.33964404       0.00245454 </v>
   <v>       0.24277189       0.16588886       0.17865805 </v>
   <v>       0.00276729       0.33101955       0.65506793 </v>
   <v>       0.24576212       0.83529494       0.50143672 </v>
   <v>       0.75437506       0.15821388       0.84082885 </v>
   <v>       0.76099325       0.50852034       0.83585946 </v>
   <v>       0.49726661       0.66335476       0.32609285 </v>
   <v>       0.77078880       0.49191756       0.16578795 </v>
   <v>       0.50659870       0.00224678       0.32982437 </v>
   <v>       0.98844997       0.00650397       0.33291146 </v>
   <v>       0.25179743       0.16196735       0.48873661 </v>
   <v>      -0.00066109       0.01246090       0.65785569 </v>
   <v>       0.00006981       0.66393290       0.33196295 </v>
   <v>       0.00905944       0.66050932       0.66726571 </v>
   <v>       0.24461056       0.83178023       0.82202186 </v>
   <v>       0.74492864       0.16256446       0.48997256 </v>
   <v>       0.49990608       0.00821422       0.65347244 </v>
   <v>       0.48947873       0.65739365       0.66362488 </v>
   <v>       0.25143180       0.14256939       0.82898329 </v>
   <v>       0.03535544       0.33618508       0.98939287 </v>
   <v>       0.50204844       0.98613921       0.01543480 </v>
   <v>       0.49725298       0.33468448       0.65994514 </v>
   <v>       0.48869758       0.66930975       0.00852095 </v>
   <v>       0.75191374       0.83186801       0.50449931 </v>
   <v>       0.75317709       0.83238195       0.82335184 </v>
  </varray>
 </structure>
</modeling>
