 vasp.5.4.1 05Feb16 (build Jan 29 2020 16:04:39) complex                        
  
 executed on           IFC91_ompi date 2020.06.15  02:17:41
 running on  160 total cores
 distrk:  each k-point on   20 cores,    8 groups
 distr:  one band on NCORES_PER_BAND=   5 cores,    4 groups


--------------------------------------------------------------------------------------------------------


 INCAR:
 POTCAR:    PAW_PBE Ta 17Jan2003                  
 POTCAR:    PAW_PBE Zr_sv 04Jan2005               
 POTCAR:    PAW_PBE Hf 20Jan2003                  
 POTCAR:    PAW_PBE Nb_sv 25May2007               

 ----------------------------------------------------------------------------- 
|                                                                             |
|           W    W    AA    RRRRR   N    N  II  N    N   GGGG   !!!           |
|           W    W   A  A   R    R  NN   N  II  NN   N  G    G  !!!           |
|           W    W  A    A  R    R  N N  N  II  N N  N  G       !!!           |
|           W WW W  AAAAAA  RRRRR   N  N N  II  N  N N  G  GGG   !            |
|           WW  WW  A    A  R   R   N   NN  II  N   NN  G    G                |
|           W    W  A    A  R    R  N    N  II  N    N   GGGG   !!!           |
|                                                                             |
|      For optimal performance we recommend to set                            |
|        NCORE= 4 - approx SQRT( number of cores)                             |
|      NCORE specifies how many cores store one orbital (NPAR=cpu/NCORE).     |
|      This setting can  greatly improve the performance of VASP for DFT.     |
|      The default, NPAR=number of cores might be grossly inefficient         |
|      on modern multi-core architectures or massively parallel machines.     |
|      Do your own testing !!!!                                               |
|      Unfortunately you need to use the default for GW and RPA calculations. |
|      (for HF NCORE is supported but not extensively tested yet)             |
|                                                                             |
 ----------------------------------------------------------------------------- 


 ----------------------------------------------------------------------------- 
|                                                                             |
|           W    W    AA    RRRRR   N    N  II  N    N   GGGG   !!!           |
|           W    W   A  A   R    R  NN   N  II  NN   N  G    G  !!!           |
|           W    W  A    A  R    R  N N  N  II  N N  N  G       !!!           |
|           W WW W  AAAAAA  RRRRR   N  N N  II  N  N N  G  GGG   !            |
|           WW  WW  A    A  R   R   N   NN  II  N   NN  G    G                |
|           W    W  A    A  R    R  N    N  II  N    N   GGGG   !!!           |
|                                                                             |
|      You have enabled k-point parallelism (KPAR>1).                         |
|      This developmental code was originally  written by Paul Kent at ORNL,  |
|      and carefully double checked in Vienna.                                |
|      GW as well as linear response parallelism added by Martijn Marsman     |
|      and Georg Kresse.                                                      |
|      Carefully verify results versus KPAR=1.                                |
|      Report problems to Paul Kent and Vienna.                               |
|                                                                             |
 ----------------------------------------------------------------------------- 

 POTCAR:    PAW_PBE Ta 17Jan2003                  
   VRHFIN =Ta:  6s5d                                                            
   LEXCH  = PE                                                                  
   EATOM  =   130.6506 eV,    9.6025 Ry                                         
                                                                                
   TITEL  = PAW_PBE Ta 17Jan2003                                                
   LULTRA =        F    use ultrasoft PP ?                                      
   IUNSCR =        1    unscreen: 0-lin 1-nonlin 2-no                           
   RPACOR =    2.330    partial core radius                                     
   POMASS =  180.948; ZVAL   =    5.000    mass and valenz                      
   RCORE  =    2.900    outmost cutoff radius                                   
   RWIGS  =    2.840; RWIGS  =    1.503    wigner-seitz radius (au A)           
   ENMAX  =  223.667; ENMIN  =  167.750 eV                                      
   RCLOC  =    2.205    cutoff for local pot                                    
   LCOR   =        T    correct aug charges                                     
   LPAW   =        T    paw PP                                                  
   EAUG   =  332.075                                                            
   DEXC   =    0.000                                                            
   RMAX   =    2.970    core radius for proj-oper                               
   RAUG   =    1.300    factor for augmentation sphere                          
   RDEP   =    3.060    radius for radial grids                                 
   RDEPT  =    2.354    core radius for aug-charge                              
                                                                                
   Atomic configuration                                                         
   16 entries                                                                   
     n  l   j            E        occ.                                          
     1  0  0.50    -67341.2807   2.0000                                         
     2  0  0.50    -11566.9376   2.0000                                         
     2  1  1.50    -10134.1182   6.0000                                         
     3  0  0.50     -2648.5620   2.0000                                         
     3  1  1.50     -2222.6012   6.0000                                         
     3  2  2.50     -1726.3120  10.0000                                         
     4  0  0.50      -538.6961   2.0000                                         
     4  1  1.50      -399.0129   6.0000                                         
     4  2  2.50      -220.3959  10.0000                                         
     4  3  3.50       -23.0374  14.0000                                         
     5  0  0.50       -71.2901   2.0000                                         
     5  1  1.50       -37.8225   6.0000                                         
     5  2  2.50        -2.6455   4.0000                                         
     6  0  0.50        -4.9623   1.0000                                         
     6  1  1.50        -1.3606   0.0000                                         
     5  3  2.50        -1.3606   0.0000                                         
   Description                                                                  
     l       E           TYP  RCUT    TYP  RCUT                                 
     2     -2.6455043     23  2.500                                             
     2     -0.6258895     23  2.500                                             
     0     -4.9622780     23  2.500                                             
     0      4.7531321     23  2.500                                             
     1     -1.3605826     23  2.900                                             
     1     27.2116520     23  2.900                                             
  local pseudopotential read in
  partial core-charges read in
  partial kinetic energy density read in
  atomic valenz-charges read in
  non local Contribution for L=           2  read in
    real space projection operators read in
  non local Contribution for L=           2  read in
    real space projection operators read in
  non local Contribution for L=           0  read in
    real space projection operators read in
  non local Contribution for L=           0  read in
    real space projection operators read in
  non local Contribution for L=           1  read in
    real space projection operators read in
  non local Contribution for L=           1  read in
    real space projection operators read in
    PAW grid and wavefunctions read in
 
   number of l-projection  operators is LMAX  =           6
   number of lm-projection operators is LMMAX =          18
 
 POTCAR:    PAW_PBE Zr_sv 04Jan2005               
   VRHFIN =Zr: 4s4p5s4d                                                         
   LEXCH  = PE                                                                  
   EATOM  =  1284.2219 eV,   94.3876 Ry                                         
                                                                                
   TITEL  = PAW_PBE Zr_sv 04Jan2005                                             
   LULTRA =        F    use ultrasoft PP ?                                      
   IUNSCR =        1    unscreen: 0-lin 1-nonlin 2-no                           
   RPACOR =    2.200    partial core radius                                     
   POMASS =   91.224; ZVAL   =   12.000    mass and valenz                      
   RCORE  =    2.500    outmost cutoff radius                                   
   RWIGS  =    3.070; RWIGS  =    1.625    wigner-seitz radius (au A)           
   ENMAX  =  229.898; ENMIN  =  172.424 eV                                      
   ICORE  =        3    local potential                                         
   LCOR   =        T    correct aug charges                                     
   LPAW   =        T    paw PP                                                  
   EAUG   =  461.257                                                            
   DEXC   =    0.000                                                            
   RMAX   =    2.561    core radius for proj-oper                               
   RAUG   =    1.300    factor for augmentation sphere                          
   RDEP   =    2.597    radius for radial grids                                 
   RDEPT  =    2.007    core radius for aug-charge                              
                                                                                
   Atomic configuration                                                         
   11 entries                                                                   
     n  l   j            E        occ.                                          
     1  0  0.50    -17820.0161   2.0000                                         
     2  0  0.50     -2467.0882   2.0000                                         
     2  1  1.50     -2199.6095   6.0000                                         
     3  0  0.50      -402.4863   2.0000                                         
     3  1  1.50      -315.3675   6.0000                                         
     3  2  2.50      -172.4472  10.0000                                         
     4  0  0.50       -52.4146   2.0000                                         
     5  0  0.50        -3.8421   1.0000                                         
     4  1  1.50       -30.5054   6.0000                                         
     4  2  2.50        -2.3341   3.0000                                         
     4  3  2.50        -1.3606   0.0000                                         
   Description                                                                  
     l       E           TYP  RCUT    TYP  RCUT                                 
     0    -52.4145962     23  2.200                                             
     0     -3.8421270     23  2.500                                             
     1    -30.5053914     23  2.200                                             
     1     20.4087390     23  2.200                                             
     2     -2.3340816     23  2.500                                             
     2     -0.6120942     23  2.500                                             
     3     -4.0817478     23  2.500                                             
  local pseudopotential read in
  partial core-charges read in
  partial kinetic energy density read in
  atomic valenz-charges read in
  non local Contribution for L=           0  read in
    real space projection operators read in
  non local Contribution for L=           0  read in
    real space projection operators read in
  non local Contribution for L=           1  read in
    real space projection operators read in
  non local Contribution for L=           1  read in
    real space projection operators read in
  non local Contribution for L=           2  read in
    real space projection operators read in
  non local Contribution for L=           2  read in
    real space projection operators read in
    PAW grid and wavefunctions read in
 
   number of l-projection  operators is LMAX  =           6
   number of lm-projection operators is LMMAX =          18
 
 POTCAR:    PAW_PBE Hf 20Jan2003                  
   VRHFIN =Hf: 6s5d                                                             
   LEXCH  = PE                                                                  
   EATOM  =    75.9011 eV,    5.5786 Ry                                         
                                                                                
   TITEL  = PAW_PBE Hf 20Jan2003                                                
   LULTRA =        F    use ultrasoft PP ?                                      
   IUNSCR =        1    unscreen: 0-lin 1-nonlin 2-no                           
   RPACOR =    2.500    partial core radius                                     
   POMASS =  178.490; ZVAL   =    4.000    mass and valenz                      
   RCORE  =    3.000    outmost cutoff radius                                   
   RWIGS  =    3.050; RWIGS  =    1.614    wigner-seitz radius (au A)           
   ENMAX  =  220.334; ENMIN  =  165.250 eV                                      
   RCLOC  =    2.212    cutoff for local pot                                    
   LCOR   =        T    correct aug charges                                     
   LPAW   =        T    paw PP                                                  
   EAUG   =  335.116                                                            
   DEXC   =    0.000                                                            
   RMAX   =    3.077    core radius for proj-oper                               
   RAUG   =    1.300    factor for augmentation sphere                          
   RDEP   =    3.047    radius for radial grids                                 
   RDEPT  =    2.344    core radius for aug-charge                              
                                                                                
   Atomic configuration                                                         
   16 entries                                                                   
     n  l   j            E        occ.                                          
     1  0  0.50    -65259.4397   2.0000                                         
     2  0  0.50    -11157.9882   2.0000                                         
     2  1  1.50     -9795.2113   6.0000                                         
     3  0  0.50     -2541.4058   2.0000                                         
     3  1  1.50     -2134.4770   6.0000                                         
     3  2  2.50     -1653.5418  10.0000                                         
     4  0  0.50      -510.9575   2.0000                                         
     4  1  1.50      -377.5023   6.0000                                         
     4  2  2.50      -205.2085  10.0000                                         
     4  3  3.50       -15.4905  14.0000                                         
     5  0  0.50       -65.6020   2.0000                                         
     5  1  1.50       -34.2798   6.0000                                         
     5  2  2.50        -1.9877   3.0000                                         
     6  0  0.50        -4.7357   1.0000                                         
     6  1  1.50        -1.3606   0.0000                                         
     5  3  2.50        -1.3606   0.0000                                         
   Description                                                                  
     l       E           TYP  RCUT    TYP  RCUT                                 
     2     -1.9876627     23  2.500                                             
     2      0.0744703     23  2.500                                             
     0     -4.7356889     23  2.600                                             
     0      3.2364747     23  2.600                                             
     1     -1.3605826     23  3.000                                             
     1     27.2116520     23  3.000                                             
  local pseudopotential read in
  partial core-charges read in
  partial kinetic energy density read in
  atomic valenz-charges read in
  non local Contribution for L=           2  read in
    real space projection operators read in
  non local Contribution for L=           2  read in
    real space projection operators read in
  non local Contribution for L=           0  read in
    real space projection operators read in
  non local Contribution for L=           0  read in
    real space projection operators read in
  non local Contribution for L=           1  read in
    real space projection operators read in
  non local Contribution for L=           1  read in
    real space projection operators read in
    PAW grid and wavefunctions read in
 
   number of l-projection  operators is LMAX  =           6
   number of lm-projection operators is LMMAX =          18
 
 POTCAR:    PAW_PBE Nb_sv 25May2007               
   VRHFIN =Nb: 4p5s4d                                                           
   LEXCH  = PE                                                                  
   EATOM  =  1555.1913 eV,  114.3033 Ry                                         
                                                                                
   TITEL  = PAW_PBE Nb_sv 25May2007                                             
   LULTRA =        F    use ultrasoft PP ?                                      
   IUNSCR =        1    unscreen: 0-lin 1-nonlin 2-no                           
   RPACOR =    1.800    partial core radius                                     
   POMASS =   92.910; ZVAL   =   13.000    mass and valenz                      
   RCORE  =    2.400    outmost cutoff radius                                   
   RWIGS  =    2.400; RWIGS  =    1.270    wigner-seitz radius (au A)           
   ENMAX  =  293.235; ENMIN  =  219.927 eV                                      
   ICORE  =        3    local potential                                         
   LCOR   =        T    correct aug charges                                     
   LPAW   =        T    paw PP                                                  
   EAUG   =  455.659                                                            
   DEXC   =    0.000                                                            
   RMAX   =    2.456    core radius for proj-oper                               
   RAUG   =    1.300    factor for augmentation sphere                          
   RDEP   =    2.451    radius for radial grids                                 
   RDEPT  =    1.956    core radius for aug-charge                              
                                                                                
   Atomic configuration                                                         
   11 entries                                                                   
     n  l   j            E        occ.                                          
     1  0  0.50    -18805.2457   2.0000                                         
     2  0  0.50     -2630.2869   2.0000                                         
     2  1  1.50     -2348.4046   6.0000                                         
     3  0  0.50      -438.8757   2.0000                                         
     3  1  1.50      -346.7588   6.0000                                         
     3  2  2.50      -196.2560  10.0000                                         
     4  0  0.50       -58.3859   2.0000                                         
     5  0  0.50        -3.9816   1.0000                                         
     4  1  1.50       -34.5141   6.0000                                         
     4  2  2.50        -3.0408   4.0000                                         
     4  3  2.50        -1.3606   0.0000                                         
   Description                                                                  
     l       E           TYP  RCUT    TYP  RCUT                                 
     0    -58.3859094     23  2.200                                             
     0     -3.9816262     23  2.200                                             
     1    -34.5140738     23  2.200                                             
     1     13.6058260     23  2.200                                             
     2     -3.0408010     23  2.200                                             
     2     -0.1283038     23  2.200                                             
     3     -1.3605826     23  2.400                                             
  local pseudopotential read in
  partial core-charges read in
  partial kinetic energy density read in
  atomic valenz-charges read in
  non local Contribution for L=           0  read in
    real space projection operators read in
  non local Contribution for L=           0  read in
    real space projection operators read in
  non local Contribution for L=           1  read in
    real space projection operators read in
  non local Contribution for L=           1  read in
    real space projection operators read in
  non local Contribution for L=           2  read in
    real space projection operators read in
  non local Contribution for L=           2  read in
    real space projection operators read in
    PAW grid and wavefunctions read in
 
   number of l-projection  operators is LMAX  =           6
   number of lm-projection operators is LMMAX =          18
 
 Optimization of the real space projectors (new method)

 maximal supplied QI-value         = 12.85
 optimisation between [QCUT,QGAM] = [  8.87, 17.73] = [ 22.01, 88.06] Ry 
 Optimized for a Real-space Cutoff    1.90 Angstroem

   l    n(q)    QCUT    max X(q) W(low)/X(q) W(high)/X(q)  e(spline) 
   2      9     8.867    62.315    0.23E-03    0.62E-04    0.11E-05
   2      9     8.867    52.185    0.23E-03    0.62E-04    0.11E-05
   0     10     8.867   103.837    0.15E-04    0.23E-04    0.98E-07
   0     10     8.867    59.728    0.12E-04    0.21E-04    0.89E-07
   1     10     8.867    13.958    0.50E-04    0.22E-04    0.14E-06
   1     10     8.867     8.441    0.36E-04    0.19E-04    0.98E-07
 Optimization of the real space projectors (new method)

 maximal supplied QI-value         = 15.12
 optimisation between [QCUT,QGAM] = [  8.77, 17.69] = [ 21.53, 87.61] Ry 
 Optimized for a Real-space Cutoff    1.74 Angstroem

   l    n(q)    QCUT    max X(q) W(low)/X(q) W(high)/X(q)  e(spline) 
   0      9     8.768    12.107    0.28E-04    0.53E-06    0.29E-07
   0      9     8.768     9.948    0.36E-04    0.50E-05    0.64E-07
   1      9     8.768     3.563    0.14E-04    0.16E-04    0.88E-07
   1      9     8.768     4.524    0.21E-03    0.33E-03    0.19E-06
   2      8     8.768    87.261    0.19E-03    0.25E-03    0.24E-06
   2      8     8.768    70.950    0.19E-03    0.24E-03    0.24E-06
 Optimization of the real space projectors (new method)

 maximal supplied QI-value         = 12.47
 optimisation between [QCUT,QGAM] = [  8.86, 17.71] = [ 21.96, 87.83] Ry 
 Optimized for a Real-space Cutoff    1.90 Angstroem

   l    n(q)    QCUT    max X(q) W(low)/X(q) W(high)/X(q)  e(spline) 
   2      9     8.855    48.111    0.22E-03    0.80E-04    0.10E-05
   2      9     8.855    40.545    0.21E-03    0.76E-04    0.95E-06
   0     10     8.855   121.658    0.27E-04    0.12E-04    0.11E-06
   0     10     8.855    71.177    0.22E-04    0.11E-04    0.99E-07
   1     10     8.855    14.183    0.65E-04    0.10E-03    0.98E-07
   1     10     8.855     8.257    0.43E-04    0.73E-04    0.72E-07
 Optimization of the real space projectors (new method)

 maximal supplied QI-value         = 15.68
 optimisation between [QCUT,QGAM] = [  8.78, 17.72] = [ 21.60, 87.97] Ry 
 Optimized for a Real-space Cutoff    1.96 Angstroem

   l    n(q)    QCUT    max X(q) W(low)/X(q) W(high)/X(q)  e(spline) 
   0     10     8.783    10.201    0.29E-04    0.25E-05    0.69E-07
   0     10     8.783     8.174    0.45E-04    0.57E-05    0.14E-06
   1     10     8.783     3.488    0.76E-05    0.24E-04    0.95E-07
   1     10     8.783     4.917    0.78E-04    0.14E-03    0.46E-06
   2      9     8.783   153.744    0.22E-03    0.34E-04    0.15E-05
   2      9     8.783   126.342    0.22E-03    0.35E-04    0.15E-05
  PAW_PBE Ta 17Jan2003                  :
 energy of atom  1       EATOM= -130.6506
 kinetic energy error for atom=    0.0121 (will be added to EATOM!!)
  PAW_PBE Zr_sv 04Jan2005               :
 energy of atom  2       EATOM=-1284.2219
 kinetic energy error for atom=    0.0483 (will be added to EATOM!!)
  PAW_PBE Hf 20Jan2003                  :
 energy of atom  3       EATOM=  -75.9011
 kinetic energy error for atom=    0.0071 (will be added to EATOM!!)
  PAW_PBE Nb_sv 25May2007               :
 energy of atom  4       EATOM=-1555.1913
 kinetic energy error for atom=    0.0655 (will be added to EATOM!!)
 
 
 POSCAR: generated by pypospack                  
  positions in direct lattice
  No initial velocities read in
 exchange correlation table for  LEXCH =        8
   RHO(1)=    0.500       N(1)  =     2000
   RHO(2)=  100.500       N(2)  =     4000
 


--------------------------------------------------------------------------------------------------------


 ion  position               nearest neighbor table
   1  0.995  0.334  0.001-   3 2.74  10 2.75   8 2.86  34 2.91   5 2.94  11 2.98  20 3.00  14 3.00
                             4 3.23  22 3.31  15 3.43  12 3.52
   2  0.985  0.998  0.340-   6 2.74  29 2.80  35 2.85   7 2.91  16 3.06  13 3.10  20 3.13   8 3.13
                            26 3.17  21 3.33  24 3.44  22 3.46  12 3.57  26 3.71
   3  0.244  0.486  0.145-  32 2.72   1 2.74  15 2.92  17 2.93  22 2.95  27 2.96  24 3.07  28 3.13
                             5 3.21  20 3.30  10 3.36  10 3.51
   4  0.998  0.332  0.688-   5 2.81  34 2.83  14 2.89  11 2.91  23 2.92  18 2.97  16 2.99  13 3.07
                             1 3.23  21 3.47
   5  0.246  0.494  0.834-  33 2.76   4 2.81  32 2.91   1 2.94  15 2.97  30 3.02  27 3.03  19 3.05
                             3 3.21  23 3.26  14 3.29
   6  0.232  0.851  0.191-   2 2.74  24 2.85  26 2.87  28 2.95  25 2.96  12 2.96   7 3.12  15 3.13
                            29 3.16  20 3.22  27 3.26
   7  0.248  0.837  0.492-   9 2.85   2 2.91  21 2.94  24 2.99  30 3.01  28 3.01  26 3.01  19 3.03
                             6 3.12  13 3.41  23 3.50
   8  0.742  0.174  0.154-   1 2.86  32 2.87  22 2.94  26 2.98  17 2.99  25 3.00  12 3.04   2 3.13
                            10 3.23  11 3.27  20 3.35  20 3.52  16 3.72
   9  0.500  0.979  0.661-  31 2.81  36 2.84   7 2.85  35 2.85  16 3.01  13 3.02  11 3.10  19 3.13
                            14 3.14  21 3.42  26 3.44  21 3.46  25 3.59
  10  0.755  0.489  0.148-  32 2.73   1 2.75  22 2.90  17 2.91  15 2.96  27 2.97  24 3.06  28 3.10
                            34 3.23   8 3.23   3 3.36   3 3.51
  11  0.733  0.169  0.838-   4 2.91  32 2.93   1 2.98  33 2.98  12 3.05  25 3.08   9 3.10  21 3.13
                            14 3.23   8 3.27  34 3.33  16 3.35  14 3.64
  12  0.994  0.990  0.996-  29 2.89  36 2.94   6 2.96  31 3.02   8 3.04  20 3.05  11 3.05  14 3.10
                            15 3.29  25 3.35  21 3.45   1 3.52  25 3.52   2 3.57
  13  0.259  0.170  0.508-  21 3.01   9 3.02   4 3.07  33 3.09   2 3.10  17 3.12  26 3.15  22 3.15
                            16 3.29  23 3.35  14 3.40   7 3.41  16 3.58  20 3.58
  14  0.262  0.173  0.836-   4 2.89  32 2.94  33 2.98   1 3.00  12 3.10  21 3.14   9 3.14  25 3.17
                            11 3.23   5 3.29  20 3.36  13 3.40  11 3.64
  15  0.005  0.669  0.998-   3 2.92  29 2.95  10 2.96   5 2.97  34 2.99  31 3.02  36 3.03   6 3.13
                            12 3.29  30 3.37  24 3.38  27 3.39   1 3.43  27 3.48
  16  0.738  0.175  0.514-   4 2.99  21 3.00   9 3.01  33 3.01  26 3.02   2 3.06  17 3.10  22 3.13
                            13 3.29  18 3.34  11 3.35  13 3.58   8 3.72
  17  0.502  0.348  0.324-  10 2.91   3 2.93   8 2.99  20 3.03  18 3.09  16 3.10  13 3.12  23 3.14
                            28 3.28  32 3.33  22 3.38  22 3.50  26 3.60
  18  0.766  0.501  0.513-  33 2.91  30 2.92   4 2.97  19 3.01  24 3.04  22 3.04  17 3.09  23 3.20
                            28 3.21  34 3.34  16 3.34  35 3.38  23 3.67
  19  0.499  0.673  0.669-  31 2.81  36 2.84  35 2.97  23 2.99  18 3.01   7 3.03   5 3.05  34 3.06
                             9 3.13  33 3.24  30 3.41  27 3.44  30 3.46  28 3.60
  20  0.255  0.164  0.161-   1 3.00  22 3.00  32 3.01  17 3.03  25 3.04  12 3.05  26 3.07   2 3.13
                             6 3.22   3 3.30   8 3.35  14 3.36   8 3.52  13 3.58
  21  0.997  0.994  0.662-  31 2.88  35 2.89  36 2.90   7 2.94  16 3.00  13 3.01  11 3.13  14 3.14
                            30 3.24   2 3.33   9 3.42  12 3.45   9 3.46   4 3.47
  22  0.993  0.335  0.321-  10 2.90   8 2.94   3 2.95  20 3.00  18 3.04  23 3.09  16 3.13  13 3.15
                             1 3.31  24 3.35  17 3.38   2 3.46  17 3.50
  23  0.232  0.497  0.519-  33 2.88  30 2.90   4 2.92  19 2.99  24 3.06  22 3.09  17 3.14  18 3.20
                            28 3.25   5 3.26  13 3.35   7 3.50  18 3.67
  24  0.005  0.662  0.325-  29 2.83   6 2.85   7 2.99  35 3.03  18 3.04  10 3.06  23 3.06   3 3.07
                            22 3.35  15 3.38  28 3.39   2 3.44  28 3.48
  25  0.506  0.976  0.008-  29 2.92  36 2.96   6 2.96   8 3.00  31 3.03  20 3.04  11 3.08  27 3.14
                            14 3.17  26 3.33  12 3.35  12 3.52   9 3.59
  26  0.524  0.996  0.329-   6 2.87  29 2.88  35 2.92   8 2.98   7 3.01  16 3.02  20 3.07  13 3.15
                             2 3.17  25 3.33  28 3.37   9 3.44  17 3.60   2 3.71
  27  0.498  0.669  0.002-   3 2.96  10 2.97  34 3.02   5 3.03  36 3.04  31 3.07  29 3.09  25 3.14
                             6 3.26  28 3.30  32 3.32  15 3.39  19 3.44  15 3.48
  28  0.498  0.668  0.321-  29 2.95   6 2.95   7 3.01  35 3.04  10 3.10   3 3.13  18 3.21  23 3.25
                            17 3.28  27 3.30  26 3.37  24 3.39  24 3.48  19 3.60
  29  0.773  0.833  0.175-   2 2.80  24 2.83  26 2.88  12 2.89  25 2.92  15 2.95  28 2.95  27 3.09
                             6 3.16
  30  0.003  0.677  0.673-  31 2.74  36 2.79  23 2.90  18 2.92  35 2.94   7 3.01   5 3.02  21 3.24
                            15 3.37  19 3.41  19 3.46
  31  0.248  0.831  0.816-  30 2.74   9 2.81  19 2.81  21 2.88  15 3.02  12 3.02  25 3.03  27 3.07

  32  0.502  0.344  0.002-   3 2.72  10 2.73  34 2.87   8 2.87   5 2.91  11 2.93  14 2.94  20 3.01
                            27 3.32  17 3.33
  33  0.502  0.357  0.680-  34 2.74   5 2.76  23 2.88  18 2.91  14 2.98  11 2.98  16 3.01  13 3.09
                            19 3.24
  34  0.751  0.495  0.836-  33 2.74   4 2.83  32 2.87   1 2.91  15 2.99  27 3.02  19 3.06  10 3.23
                            11 3.33  18 3.34
  35  0.754  0.831  0.499-   9 2.85   2 2.85  21 2.89  26 2.92  30 2.94  19 2.97  24 3.03  28 3.04
                            18 3.38
  36  0.751  0.830  0.822-  30 2.79  19 2.84   9 2.84  21 2.90  12 2.94  25 2.96  15 3.03  27 3.04

 
  LATTYP: Found a triclinic cell.
 ALAT       =    20.0231076435
 B/A-ratio  =     0.3429657709
 C/A-ratio  =     0.5163971745
 COS(alpha) =     0.0016287519
 COS(beta)  =     0.5197243828
 COS(gamma) =     0.6853504781
  
  Lattice vectors:
  
 A1 = (  13.7286920976,  10.2394341007, -10.3731307853)
 A2 = (   6.8672317862,  -0.0094877656,  -0.0055070942)
 A3 = (   0.0085798932,   0.0222179327, -10.3398487810)


Analysis of symmetry for initial positions (statically):
=====================================================================
 Subroutine PRICEL returns:
 Original cell was already a primitive cell.
 

 Routine SETGRP: Setting up the symmetry group for a 
 triclinic supercell.


 Subroutine GETGRP returns: Found  1 space group operations
 (whereof  1 operations were pure point group operations)
 out of a pool of  2 trial point group operations.


The static configuration has the point symmetry C_1 .


Analysis of symmetry for dynamics (positions and initial velocities):
=====================================================================
 Subroutine PRICEL returns:
 Original cell was already a primitive cell.
 

 Routine SETGRP: Setting up the symmetry group for a 
 triclinic supercell.


 Subroutine GETGRP returns: Found  1 space group operations
 (whereof  1 operations were pure point group operations)
 out of a pool of  2 trial point group operations.


The dynamic configuration has the point symmetry C_1 .


 Subroutine INISYM returns: Found  1 space group operations
 (whereof  1 operations are pure point group operations),
 and found     1 'primitive' translations

 
 
 KPOINTS: k-points                                

Automatic generation of k-mesh.
Space group operators:
 irot       det(A)        alpha          n_x          n_y          n_z        tau_x        tau_y        tau_z
    1     1.000000     0.000000     1.000000     0.000000     0.000000     0.000000     0.000000     0.000000
 
 Subroutine IBZKPT returns following result:
 ===========================================
 
 Found     14 irreducible k-points:
 
 Following reciprocal coordinates:
            Coordinates               Weight
  0.000000  0.000000  0.000000      1.000000
  0.333333 -0.000000 -0.000000      2.000000
  0.000000  0.333333  0.000000      2.000000
  0.333333  0.333333  0.000000      2.000000
 -0.333333  0.333333  0.000000      2.000000
  0.000000  0.000000  0.333333      2.000000
  0.333333 -0.000000  0.333333      2.000000
 -0.333333  0.000000  0.333333      2.000000
  0.000000  0.333333  0.333333      2.000000
  0.333333  0.333333  0.333333      2.000000
 -0.333333  0.333333  0.333333      2.000000
 -0.000000 -0.333333  0.333333      2.000000
  0.333333 -0.333333  0.333333      2.000000
 -0.333333 -0.333333  0.333333      2.000000
 
 Following cartesian coordinates:
            Coordinates               Weight
  0.000000  0.000000  0.000000      1.000000
  0.242132  0.000340  0.000202      2.000000
  0.000225  0.162441  0.000349      2.000000
  0.242356  0.162781  0.000551      2.000000
 -0.241907  0.162101  0.000148      2.000000
  0.000129  0.000350  0.160813      2.000000
  0.242261  0.000690  0.161014      2.000000
 -0.242002  0.000010  0.160611      2.000000
  0.000354  0.162791  0.161162      2.000000
  0.242486  0.163131  0.161364      2.000000
 -0.241778  0.162451  0.160960      2.000000
 -0.000095 -0.162091  0.160463      2.000000
  0.242036 -0.161751  0.160665      2.000000
 -0.242227 -0.162431  0.160262      2.000000
 


--------------------------------------------------------------------------------------------------------




 Dimension of arrays:
   k-points           NKPTS =     14   k-points in BZ     NKDIM =     14   number of bands    NBANDS=    180
   number of dos      NEDOS =    301   number of ions     NIONS =     36
   non local maximal  LDIM  =      6   non local SUM 2l+1 LMDIM =     18
   total plane-waves  NPLWV = 144000
   max r-space proj   IRMAX =   6303   max aug-charges    IRDMAX=  13684
   dimension x,y,z NGX =    40 NGY =   60 NGZ =   60
   dimension x,y,z NGXF=    80 NGYF=  120 NGZF=  120
   support grid    NGXF=    80 NGYF=  120 NGZF=  120
   ions per type =              10   9   9   8
 NGX,Y,Z   is equivalent  to a cutoff of   9.68,  9.74,  9.65 a.u.
 NGXF,Y,Z  is equivalent  to a cutoff of  19.37, 19.49, 19.29 a.u.


 I would recommend the setting:
   dimension x,y,z NGX =    39 NGY =   58 NGZ =   58
 SYSTEM =  automatically generated by mexm         
 POSCAR =  generated by pypospack                  

 Startparameter for this run:
   NWRITE =      2    write-flag & timer
   PREC   = accura    normal or accurate (medium, high low for compatibility)
   ISTART =      0    job   : 0-new  1-cont  2-samecut
   ICHARG =      2    charge: 1-file 2-atom 10-const
   ISPIN  =      1    spin polarized calculation?
   LNONCOLLINEAR =      F non collinear calculations
   LSORBIT =      F    spin-orbit coupling
   INIWAV =      1    electr: 0-lowe 1-rand  2-diag
   LASPH  =      F    aspherical Exc in radial PAW
   METAGGA=      F    non-selfconsistent MetaGGA calc.

 Electronic Relaxation 1
   ENCUT  =  300.0 eV  22.05 Ry    4.70 a.u.   9.70 14.46 14.60*2*pi/ulx,y,z
   ENINI  =  300.0     initial cutoff
   ENAUG  =  461.3 eV  augmentation charge cutoff
   NELM   =     70;   NELMIN=  2; NELMDL= -5     # of ELM steps 
   EDIFF  = 0.1E-04   stopping-criterion for ELM
   LREAL  =      T    real-space projection
   NLSPLINE    = F    spline interpolate recip. space projectors
   LCOMPAT=      F    compatible to vasp.4.4
   GGA_COMPAT  = T    GGA compatible to vasp.4.4-vasp.4.6
   LMAXPAW     = -100 max onsite density
   LMAXMIX     =    2 max onsite mixed and CHGCAR
   VOSKOWN=      0    Vosko Wilk Nusair interpolation
   ROPT   =   -0.00025  -0.00025  -0.00025  -0.00025
 Ionic relaxation
   EDIFFG = -.1E-01   stopping-criterion for IOM
   NSW    =    300    number of steps for IOM
   NBLOCK =      1;   KBLOCK =    300    inner block; outer block 
   IBRION =      2    ionic relax: 0-MD 1-quasi-New 2-CG
   NFREE  =      1    steps in history (QN), initial steepest desc. (CG)
   ISIF   =      3    stress and relaxation
   IWAVPR =     11    prediction:  0-non 1-charg 2-wave 3-comb
   ISYM   =      1    0-nonsym 1-usesym 2-fastsym
   LCORR  =      T    Harris-Foulkes like correction to forces

   POTIM  = 0.1500    time-step for ionic-motion
   TEIN   =    0.0    initial temperature
   TEBEG  =    0.0;   TEEND  =   0.0 temperature during run
   SMASS  =  -3.00    Nose mass-parameter (am)
   estimated Nose-frequenzy (Omega)   =  0.10E-29 period in steps =****** mass=  -0.108E-26a.u.
   SCALEE = 1.0000    scale energy and forces
   NPACO  =    256;   APACO  = 16.0  distance and # of slots for P.C.
   PSTRESS=    0.0 pullay stress

  Mass of Ions in am
   POMASS = 180.95 91.22178.49 92.91
  Ionic Valenz
   ZVAL   =   5.00 12.00  4.00 13.00
  Atomic Wigner-Seitz radii
   RWIGS  =  -1.00 -1.00 -1.00 -1.00
  virtual crystal weights 
   VCA    =   1.00  1.00  1.00  1.00
   NELECT =     298.0000    total number of electrons
   NUPDOWN=      -1.0000    fix difference up-down

 DOS related values:
   EMIN   =  10.00;   EMAX   =-10.00  energy-range for DOS
   EFERMI =   0.00
   ISMEAR =     1;   SIGMA  =   0.15  broadening in eV -4-tet -1-fermi 0-gaus

 Electronic relaxation 2 (details)
   IALGO  =     68    algorithm
   LDIAG  =      T    sub-space diagonalisation (order eigenvalues)
   LSUBROT=      F    optimize rotation matrix (better conditioning)
   TURBO    =      0    0=normal 1=particle mesh
   IRESTART =      0    0=no restart 2=restart with 2 vectors
   NREBOOT  =      0    no. of reboots
   NMIN     =      0    reboot dimension
   EREF     =   0.00    reference energy to select bands
   IMIX   =      4    mixing-type and parameters
     AMIX     =   0.40;   BMIX     =  1.00
     AMIX_MAG =   1.60;   BMIX_MAG =  1.00
     AMIN     =   0.10
     WC   =   100.;   INIMIX=   1;  MIXPRE=   1;  MAXMIX= -45

 Intra band minimization:
   WEIMIN = 0.0010     energy-eigenvalue tresh-hold
   EBREAK =  0.14E-07  absolut break condition
   DEPER  =   0.30     relativ break condition  

   TIME   =   0.40     timestep for ELM

  volume/ion in A,a.u.               =      20.19       136.25
  Fermi-wavevector in a.u.,A,eV,Ry     =   1.216195  2.298275 20.124788  1.479130
  Thomas-Fermi vector in A             =   2.351557
 
 Write flags
   LWAVE  =      F    write WAVECAR
   LCHARG =      F    write CHGCAR
   LVTOT  =      F    write LOCPOT, total local potential
   LVHAR  =      F    write LOCPOT, Hartree potential only
   LELF   =      F    write electronic localiz. function (ELF)
   LORBIT =      0    0 simple, 1 ext, 2 COOP (PROOUT)


 Dipole corrections
   LMONO  =      F    monopole corrections only (constant potential shift)
   LDIPOL =      F    correct potential (dipole corrections)
   IDIPOL =      0    1-x, 2-y, 3-z, 4-all directions 
   EPSILON=  1.0000000 bulk dielectric constant

 Exchange correlation treatment:
   GGA     =    --    GGA type
   LEXCH   =     8    internal setting for exchange type
   VOSKOWN=      0    Vosko Wilk Nusair interpolation
   LHFCALC =     F    Hartree Fock is set to
   LHFONE  =     F    Hartree Fock one center treatment
   AEXX    =    0.0000 exact exchange contribution

 Linear response parameters
   LEPSILON=     F    determine dielectric tensor
   LRPA    =     F    only Hartree local field effects (RPA)
   LNABLA  =     F    use nabla operator in PAW spheres
   LVEL    =     F    velocity operator in full k-point grid
   LINTERFAST=   F  fast interpolation
   KINTER  =     0    interpolate to denser k-point grid
   CSHIFT  =0.1000    complex shift for real part using Kramers Kronig
   OMEGAMAX=  -1.0    maximum frequency
   DEG_THRESHOLD= 0.2000000E-02 threshold for treating states as degnerate
   RTIME   =    0.100 relaxation time in fs

 Orbital magnetization related:
   ORBITALMAG=     F  switch on orbital magnetization
   LCHIMAG   =     F  perturbation theory with respect to B field
   DQ        =  0.001000  dq finite difference perturbation B field



--------------------------------------------------------------------------------------------------------


 conjugate gradient relaxation of ions
 charge density and potential will be updated during run
 non-spin polarized calculation
 RMM-DIIS sequential band-by-band and
  variant of blocked Davidson during initial phase
 perform sub-space diagonalisation
    before iterative eigenvector-optimisation
 modified Broyden-mixing scheme, WC =      100.0
 initial mixing is a Kerker type mixing with AMIX =  0.4000 and BMIX =      1.0000
 Hartree-type preconditioning will be used
 using additional bands           31
 real space projection scheme for non local part
 use partial core corrections
 calculate Harris-corrections to forces 
   (improved forces if not selfconsistent)
 use gradient corrections 
 use of overlap-Matrix (Vanderbilt PP)
 Methfessel and Paxton  Order N= 1 SIGMA  =   0.15


--------------------------------------------------------------------------------------------------------


  energy-cutoff  :      300.00
  volume of cell :      726.83
      direct lattice vectors                 reciprocal lattice vectors
     6.867231786 -0.009487766 -0.005507094     0.145619463  0.000204426  0.000121273
    -0.014351368 10.236191699 -0.022267816     0.000135141  0.097693229  0.000210032
    -0.008579893 -0.022217933 10.339848781     0.000077849  0.000210500  0.096713730

  length of vectors
     6.867240548 10.236225980 10.339876211     0.145619657  0.097693548  0.096713991


 
 k-points in units of 2pi/SCALE and weight: k-points                                
   0.00000000  0.00000000  0.00000000       0.037
   0.24213168  0.00033991  0.00020165       0.074
   0.00022471  0.16244137  0.00034924       0.074
   0.24235638  0.16278128  0.00055088       0.074
  -0.24190697  0.16210146  0.00014759       0.074
   0.00012945  0.00035001  0.16081269       0.074
   0.24226112  0.00068993  0.16101434       0.074
  -0.24200223  0.00001010  0.16061104       0.074
   0.00035415  0.16279138  0.16116192       0.074
   0.24248583  0.16313130  0.16136357       0.074
  -0.24177752  0.16245147  0.16096028       0.074
  -0.00009526 -0.16209136  0.16046345       0.074
   0.24203641 -0.16175144  0.16066510       0.074
  -0.24222694 -0.16243127  0.16026181       0.074
 
 k-points in reciprocal lattice and weights: k-points                                
   0.00000000  0.00000000  0.00000000       0.037
   0.33333333 -0.00000000 -0.00000000       0.074
   0.00000000  0.33333333  0.00000000       0.074
   0.33333333  0.33333333  0.00000000       0.074
  -0.33333333  0.33333333  0.00000000       0.074
   0.00000000  0.00000000  0.33333333       0.074
   0.33333333 -0.00000000  0.33333333       0.074
  -0.33333333  0.00000000  0.33333333       0.074
   0.00000000  0.33333333  0.33333333       0.074
   0.33333333  0.33333333  0.33333333       0.074
  -0.33333333  0.33333333  0.33333333       0.074
  -0.00000000 -0.33333333  0.33333333       0.074
   0.33333333 -0.33333333  0.33333333       0.074
  -0.33333333 -0.33333333  0.33333333       0.074
 
 position of ions in fractional coordinates (direct lattice) 
   0.99484900  0.33388800  0.00082600
   0.98467200  0.99792200  0.34040200
   0.24438900  0.48558200  0.14455900
   0.99753400  0.33197700  0.68813800
   0.24612400  0.49389800  0.83398300
   0.23181600  0.85119900  0.19071900
   0.24832900  0.83744000  0.49163000
   0.74204600  0.17429200  0.15392300
   0.50026800  0.97872900  0.66116400
   0.75515500  0.48948200  0.14819900
   0.73314100  0.16939300  0.83753800
   0.99400900  0.98989400  0.99563300
   0.25898500  0.17025600  0.50760600
   0.26247500  0.17276600  0.83619100
   0.00536200  0.66861100  0.99820700
   0.73783800  0.17488000  0.51372800
   0.50234600  0.34753100  0.32404400
   0.76631200  0.50101100  0.51333700
   0.49902400  0.67274400  0.66900400
   0.25491500  0.16413300  0.16133800
   0.99720100  0.99361600  0.66211100
   0.99342200  0.33515500  0.32098700
   0.23246100  0.49713000  0.51886300
   0.00490800  0.66233600  0.32487300
   0.50644900  0.97572200  0.00798400
   0.52402300  0.99630000  0.32902300
   0.49828600  0.66883900  0.00186300
   0.49826100  0.66770800  0.32117700
   0.77347800  0.83264600  0.17489000
   0.00259600  0.67718500  0.67280900
   0.24837600  0.83103100  0.81639900
   0.50248700  0.34414700  0.00163900
   0.50185300  0.35650500  0.68009100
   0.75118600  0.49482200  0.83622600
   0.75435700  0.83092800  0.49930100
   0.75107000  0.83030200  0.82159000
 
 position of ions in cartesian coordinates  (Angst):
   6.82705984  3.40828433 -0.00437297
   6.74472870 10.19801553  3.49206098
   1.67006684  4.96497993  1.48255948
   6.83962872  3.37342684  7.10235694
   1.67594696  5.03477006  8.61090465
   1.57808199  8.70659934  1.95177464
   1.68909626  8.55891729  5.06336433
   5.09197991  1.77362611  1.58357292
   3.41573749  9.99902154  6.81178660
   5.17752815  4.99997418  1.51729684
   5.02503217  1.70837499  8.65220678
   6.80334144 10.10119291 10.26717778
   1.77171141  1.72903791  5.24335180
   1.79282281  1.74739716  8.64079590
   0.01866210  6.82180140 10.30639140
   5.05998707  1.77169080  5.30391230
   3.44195861  3.54542821  3.34006074
   5.25084755  5.10976876  5.29245038
   3.41151870  6.86673804  6.89967148
   1.74682059  1.67409368  1.66315180
   6.82806981 10.14667190  6.81851028
   6.81449517  3.41415381  3.30602300
   1.58477728  5.07498438  5.35261477
   0.02141157  6.77253369  3.34436189
   3.46383122  9.98269498  0.05803709
   3.58146615 10.18603577  3.37697680
   3.41223072  6.84159521  0.00162545
   3.40933559  6.82292381  3.30330924
   5.29820256  8.51189980  1.78553533
   0.00233617  6.91682242  6.94164959
   1.68672451  8.48609739  8.42156913
   3.44574166  3.51795077  0.00651637
   3.43538943  3.62938184  7.02133576
   5.14429227  5.03938656  8.63129493
   5.16413547  8.48728770  5.14003957
   5.13880665  8.47375043  8.47249113
 


--------------------------------------------------------------------------------------------------------


 k-point  1 :   0.0000 0.0000 0.0000  plane waves:    8623
 k-point  2 :   0.3333-0.0000-0.0000  plane waves:    8599
 k-point  3 :   0.0000 0.3333 0.0000  plane waves:    8588
 k-point  4 :   0.3333 0.3333 0.0000  plane waves:    8555
 k-point  5 :  -0.3333 0.3333 0.0000  plane waves:    8561
 k-point  6 :   0.0000 0.0000 0.3333  plane waves:    8577
 k-point  7 :   0.3333-0.0000 0.3333  plane waves:    8563
 k-point  8 :  -0.3333 0.0000 0.3333  plane waves:    8569
 k-point  9 :   0.0000 0.3333 0.3333  plane waves:    8577
 k-point 10 :   0.3333 0.3333 0.3333  plane waves:    8574
 k-point 11 :  -0.3333 0.3333 0.3333  plane waves:    8571
 k-point 12 :  -0.0000-0.3333 0.3333  plane waves:    8571
 k-point 13 :   0.3333-0.3333 0.3333  plane waves:    8576
 k-point 14 :  -0.3333-0.3333 0.3333  plane waves:    8573

 maximum and minimum number of plane-waves per node :      1751     1689

 maximum number of plane-waves:      8623
 maximum index in each direction: 
   IXMAX=   10   IYMAX=   14   IZMAX=   14
   IXMIN=  -10   IYMIN=  -14   IZMIN=  -14

 WARNING: aliasing errors must be expected set NGX to  42 to avoid them
 NGY is ok and might be reduce to  58
 NGZ is ok and might be reduce to  58
 aliasing errors are usually negligible using standard VASP settings
 and one can safely disregard these warnings

 real space projection operators:
  total allocation   :      27046.55 KBytes
  max/ min on nodes  :       5461.73       5371.45


 parallel 3D FFT for wavefunctions:
    minimum data exchange during FFTs selected (reduces bandwidth)
 parallel 3D FFT for charge:
    minimum data exchange during FFTs selected (reduces bandwidth)


 total amount of memory used by VASP on root node    67869. kBytes
========================================================================

   base      :      30000. kBytes
   nonlr-proj:      10460. kBytes
   fftplans  :       2814. kBytes
   grid      :       5360. kBytes
   one-center:        124. kBytes
   wavefun   :      19111. kBytes
 
     INWAV:  cpu time    0.0000: real time    0.0002
 Broyden mixing: mesh for mixing (old mesh)
   NGX = 19   NGY = 29   NGZ = 29
  (NGX  = 80   NGY  =120   NGZ  =120)
  gives a total of  15979 points

 initial charge density was supplied:
 charge density of overlapping atoms calculated
 number of electron     298.0000000 magnetization 
 keeping initial charge density in first step


--------------------------------------------------------------------------------------------------------


 Maximum index for non-local projection operator         1243
 Maximum index for augmentation-charges          678 (set IRDMAX)


--------------------------------------------------------------------------------------------------------


 First call to EWALD:  gamma=   0.197
 Maximum number of real-space cells 3x 2x 2
 Maximum number of reciprocal cells 2x 3x 3

 FEWALD executed in parallel
    FEWALD:  cpu time    0.1200: real time    0.1203


----------------------------------------- Iteration    1(   1)  ---------------------------------------


    POTLOK:  cpu time    0.0493: real time    0.0829
    SETDIJ:  cpu time    0.2813: real time    0.2821
     EDDAV:  cpu time    1.1052: real time    1.1754
       DOS:  cpu time    0.0016: real time    0.0017
    --------------------------------------------
      LOOP:  cpu time    1.4427: real time    1.7653

 eigenvalue-minimisations  :  5504
 total energy-change (2. order) : 0.1899695E+04  (-0.1122516E+05)
 number of electron     298.0000000 magnetization 
 augmentation part      298.0000000 magnetization 

 Free energy of the ion-electron system (eV)
  ---------------------------------------------------
  alpha Z        PSCENC =      1543.94168318
  Ewald energy   TEWEN  =    -19394.05508412
  -Hartree energ DENC   =     -7456.49360426
  -exchange      EXHF   =         0.00000000
  -V(xc)+E(xc)   XCENC  =      -240.08509573
  PAW double counting   =     21911.66472453   -20319.74570342
  entropy T*S    EENTRO =         0.01239971
  eigenvalues    EBANDS =      -133.54387276
  atomic energy  EATOM  =     25987.99992980
  Solvation  Ediel_sol  =         0.00000000
  ---------------------------------------------------
  free energy    TOTEN  =      1899.69537694 eV

  energy without entropy =     1899.68297723  energy(sigma->0) =     1899.69124370


--------------------------------------------------------------------------------------------------------




----------------------------------------- Iteration    1(   2)  ---------------------------------------


     EDDAV:  cpu time    1.1292: real time    1.2052
       DOS:  cpu time    0.0013: real time    0.0014
    --------------------------------------------
      LOOP:  cpu time    1.1312: real time    1.4194

 eigenvalue-minimisations  :  5712
 total energy-change (2. order) :-0.1986528E+04  (-0.1918259E+04)
 number of electron     298.0000000 magnetization 
 augmentation part      298.0000000 magnetization 

 Free energy of the ion-electron system (eV)
  ---------------------------------------------------
  alpha Z        PSCENC =      1543.94168318
  Ewald energy   TEWEN  =    -19394.05508412
  -Hartree energ DENC   =     -7456.49360426
  -exchange      EXHF   =         0.00000000
  -V(xc)+E(xc)   XCENC  =      -240.08509573
  PAW double counting   =     21911.66472453   -20319.74570342
  entropy T*S    EENTRO =        -0.01014200
  eigenvalues    EBANDS =     -2120.04898371
  atomic energy  EATOM  =     25987.99992980
  Solvation  Ediel_sol  =         0.00000000
  ---------------------------------------------------
  free energy    TOTEN  =       -86.83227572 eV

  energy without entropy =      -86.82213372  energy(sigma->0) =      -86.82889506


--------------------------------------------------------------------------------------------------------




----------------------------------------- Iteration    1(   3)  ---------------------------------------


     EDDAV:  cpu time    1.4362: real time    1.4476
       DOS:  cpu time    0.0014: real time    0.0014
    --------------------------------------------
      LOOP:  cpu time    1.4384: real time    1.4755

 eigenvalue-minimisations  :  8696
 total energy-change (2. order) :-0.2571631E+03  (-0.2442406E+03)
 number of electron     298.0000000 magnetization 
 augmentation part      298.0000000 magnetization 

 Free energy of the ion-electron system (eV)
  ---------------------------------------------------
  alpha Z        PSCENC =      1543.94168318
  Ewald energy   TEWEN  =    -19394.05508412
  -Hartree energ DENC   =     -7456.49360426
  -exchange      EXHF   =         0.00000000
  -V(xc)+E(xc)   XCENC  =      -240.08509573
  PAW double counting   =     21911.66472453   -20319.74570342
  entropy T*S    EENTRO =        -0.00000851
  eigenvalues    EBANDS =     -2377.22224073
  atomic energy  EATOM  =     25987.99992980
  Solvation  Ediel_sol  =         0.00000000
  ---------------------------------------------------
  free energy    TOTEN  =      -343.99539926 eV

  energy without entropy =     -343.99539075  energy(sigma->0) =     -343.99539642


--------------------------------------------------------------------------------------------------------




----------------------------------------- Iteration    1(   4)  ---------------------------------------


     EDDAV:  cpu time    1.4423: real time    1.4492
       DOS:  cpu time    0.0014: real time    0.0014
    --------------------------------------------
      LOOP:  cpu time    1.4676: real time    1.5007

 eigenvalue-minimisations  :  8432
 total energy-change (2. order) :-0.3072070E+02  (-0.2922701E+02)
 number of electron     298.0000000 magnetization 
 augmentation part      298.0000000 magnetization 

 Free energy of the ion-electron system (eV)
  ---------------------------------------------------
  alpha Z        PSCENC =      1543.94168318
  Ewald energy   TEWEN  =    -19394.05508412
  -Hartree energ DENC   =     -7456.49360426
  -exchange      EXHF   =         0.00000000
  -V(xc)+E(xc)   XCENC  =      -240.08509573
  PAW double counting   =     21911.66472453   -20319.74570342
  entropy T*S    EENTRO =        -0.00694681
  eigenvalues    EBANDS =     -2407.93600354
  atomic energy  EATOM  =     25987.99992980
  Solvation  Ediel_sol  =         0.00000000
  ---------------------------------------------------
  free energy    TOTEN  =      -374.71610036 eV

  energy without entropy =     -374.70915355  energy(sigma->0) =     -374.71378476


--------------------------------------------------------------------------------------------------------




----------------------------------------- Iteration    1(   5)  ---------------------------------------


     EDDAV:  cpu time    1.3640: real time    1.3704
       DOS:  cpu time    0.0013: real time    0.0013
    CHARGE:  cpu time    0.0313: real time    0.0315
    MIXING:  cpu time    0.0013: real time    0.0014
    --------------------------------------------
      LOOP:  cpu time    1.3984: real time    1.4286

 eigenvalue-minimisations  :  8176
 total energy-change (2. order) :-0.3054429E+01  (-0.2988768E+01)
 number of electron     298.0000005 magnetization 
 augmentation part       16.5957968 magnetization 

 Broyden mixing:
  rms(total) = 0.65111E+01    rms(broyden)= 0.65107E+01
  rms(prec ) = 0.67804E+01
  weight for this iteration     100.00

 Free energy of the ion-electron system (eV)
  ---------------------------------------------------
  alpha Z        PSCENC =      1543.94168318
  Ewald energy   TEWEN  =    -19394.05508412
  -Hartree energ DENC   =     -7456.49360426
  -exchange      EXHF   =         0.00000000
  -V(xc)+E(xc)   XCENC  =      -240.08509573
  PAW double counting   =     21911.66472453   -20319.74570342
  entropy T*S    EENTRO =        -0.00207222
  eigenvalues    EBANDS =     -2410.99530758
  atomic energy  EATOM  =     25987.99992980
  Solvation  Ediel_sol  =         0.00000000
  ---------------------------------------------------
  free energy    TOTEN  =      -377.77052982 eV

  energy without entropy =     -377.76845760  energy(sigma->0) =     -377.76983908


--------------------------------------------------------------------------------------------------------




----------------------------------------- Iteration    1(   6)  ---------------------------------------


    POTLOK:  cpu time    0.0305: real time    0.0306
    SETDIJ:  cpu time    0.0036: real time    0.0036
    EDDIAG:  cpu time    0.0847: real time    0.0850
  RMM-DIIS:  cpu time    0.7276: real time    0.7312
    ORTHCH:  cpu time    0.0124: real time    0.0124
       DOS:  cpu time    0.0012: real time    0.0012
    CHARGE:  cpu time    0.0301: real time    0.0303
    MIXING:  cpu time    0.0015: real time    0.0159
    --------------------------------------------
      LOOP:  cpu time    0.8923: real time    0.9344

 eigenvalue-minimisations  :  7014
 total energy-change (2. order) : 0.1047580E+02  (-0.2439333E+01)
 number of electron     298.0000005 magnetization 
 augmentation part       17.2316512 magnetization 

 Broyden mixing:
  rms(total) = 0.31283E+01    rms(broyden)= 0.31282E+01
  rms(prec ) = 0.33899E+01
  weight for this iteration     100.00

 eigenvalues of (default mixing * dielectric matrix)
  average eigenvalue GAMMA=   1.8407
  1.8407

 Free energy of the ion-electron system (eV)
  ---------------------------------------------------
  alpha Z        PSCENC =      1543.94168318
  Ewald energy   TEWEN  =    -19394.05508412
  -Hartree energ DENC   =     -7298.44561061
  -exchange      EXHF   =         0.00000000
  -V(xc)+E(xc)   XCENC  =      -243.51301360
  PAW double counting   =     27526.64106733   -25942.96837763
  entropy T*S    EENTRO =        -0.00518545
  eigenvalues    EBANDS =     -2546.89013722
  atomic energy  EATOM  =     25987.99992980
  Solvation  Ediel_sol  =         0.00000000
  ---------------------------------------------------
  free energy    TOTEN  =      -367.29472832 eV

  energy without entropy =     -367.28954287  energy(sigma->0) =     -367.29299983


--------------------------------------------------------------------------------------------------------




----------------------------------------- Iteration    1(   7)  ---------------------------------------


    POTLOK:  cpu time    0.0290: real time    0.0291
    SETDIJ:  cpu time    0.0036: real time    0.0037
    EDDIAG:  cpu time    0.0807: real time    0.0811
  RMM-DIIS:  cpu time    0.7682: real time    0.7733
    ORTHCH:  cpu time    0.0348: real time    0.0350
       DOS:  cpu time    0.0899: real time    0.0903
    CHARGE:  cpu time    0.0696: real time    0.0699
    MIXING:  cpu time    0.0012: real time    0.0012
    --------------------------------------------
      LOOP:  cpu time    1.0778: real time    1.1101

 eigenvalue-minimisations  :  7523
 total energy-change (2. order) :-0.1833319E+01  (-0.2667034E+01)
 number of electron     298.0000005 magnetization 
 augmentation part       17.7875856 magnetization 

 Broyden mixing:
  rms(total) = 0.11456E+01    rms(broyden)= 0.11452E+01
  rms(prec ) = 0.33533E+01
  weight for this iteration     100.00

 eigenvalues of (default mixing * dielectric matrix)
  average eigenvalue GAMMA=   1.1703
  1.8248  0.5158

 Free energy of the ion-electron system (eV)
  ---------------------------------------------------
  alpha Z        PSCENC =      1543.94168318
  Ewald energy   TEWEN  =    -19394.05508412
  -Hartree energ DENC   =     -7189.60097784
  -exchange      EXHF   =         0.00000000
  -V(xc)+E(xc)   XCENC  =      -243.34546787
  PAW double counting   =     32949.22301993   -31360.21024884
  entropy T*S    EENTRO =         0.00857643
  eigenvalues    EBANDS =     -2663.08947823
  atomic energy  EATOM  =     25987.99992980
  Solvation  Ediel_sol  =         0.00000000
  ---------------------------------------------------
  free energy    TOTEN  =      -369.12804757 eV

  energy without entropy =     -369.13662400  energy(sigma->0) =     -369.13090638


--------------------------------------------------------------------------------------------------------




----------------------------------------- Iteration    1(   8)  ---------------------------------------


    POTLOK:  cpu time    0.0397: real time    0.0398
    SETDIJ:  cpu time    0.0053: real time    0.0053
    EDDIAG:  cpu time    0.0917: real time    0.0921
  RMM-DIIS:  cpu time    0.8275: real time    0.8398
    ORTHCH:  cpu time    0.0123: real time    0.0124
       DOS:  cpu time    0.0043: real time    0.0043
    CHARGE:  cpu time    0.0307: real time    0.0308
    MIXING:  cpu time    0.0013: real time    0.0013
    --------------------------------------------
      LOOP:  cpu time    1.0136: real time    1.0763

 eigenvalue-minimisations  :  7508
 total energy-change (2. order) : 0.6005661E+01  (-0.6311069E+00)
 number of electron     298.0000005 magnetization 
 augmentation part       17.5018374 magnetization 

 Broyden mixing:
  rms(total) = 0.42066E+00    rms(broyden)= 0.42006E+00
  rms(prec ) = 0.67516E+00
  weight for this iteration     100.00

 eigenvalues of (default mixing * dielectric matrix)
  average eigenvalue GAMMA=   1.1324
  1.8159  1.1910  0.3901

 Free energy of the ion-electron system (eV)
  ---------------------------------------------------
  alpha Z        PSCENC =      1543.94168318
  Ewald energy   TEWEN  =    -19394.05508412
  -Hartree energ DENC   =     -7200.02597057
  -exchange      EXHF   =         0.00000000
  -V(xc)+E(xc)   XCENC  =      -242.51954870
  PAW double counting   =     33880.32326287   -32288.41540528
  entropy T*S    EENTRO =         0.00465212
  eigenvalues    EBANDS =     -2650.37590600
  atomic energy  EATOM  =     25987.99992980
  Solvation  Ediel_sol  =         0.00000000
  ---------------------------------------------------
  free energy    TOTEN  =      -363.12238670 eV

  energy without entropy =     -363.12703881  energy(sigma->0) =     -363.12393740


--------------------------------------------------------------------------------------------------------




----------------------------------------- Iteration    1(   9)  ---------------------------------------


    POTLOK:  cpu time    0.0274: real time    0.0628
    SETDIJ:  cpu time    0.0035: real time    0.0037
    EDDIAG:  cpu time    0.0821: real time    0.0886
  RMM-DIIS:  cpu time    0.7756: real time    0.7826
    ORTHCH:  cpu time    0.0122: real time    0.0123
       DOS:  cpu time    0.0015: real time    0.0015
    CHARGE:  cpu time    0.0303: real time    0.0304
    MIXING:  cpu time    0.0013: real time    0.0013
    --------------------------------------------
      LOOP:  cpu time    0.9347: real time    1.0064

 eigenvalue-minimisations  :  7612
 total energy-change (2. order) : 0.1591227E+00  (-0.2334708E+00)
 number of electron     298.0000005 magnetization 
 augmentation part       17.3586337 magnetization 

 Broyden mixing:
  rms(total) = 0.28557E+00    rms(broyden)= 0.28545E+00
  rms(prec ) = 0.43500E+00
  weight for this iteration     100.00

 eigenvalues of (default mixing * dielectric matrix)
  average eigenvalue GAMMA=   1.1092
  1.7846  1.7846  0.4872  0.3802

 Free energy of the ion-electron system (eV)
  ---------------------------------------------------
  alpha Z        PSCENC =      1543.94168318
  Ewald energy   TEWEN  =    -19394.05508412
  -Hartree energ DENC   =     -7204.23264234
  -exchange      EXHF   =         0.00000000
  -V(xc)+E(xc)   XCENC  =      -241.94124798
  PAW double counting   =     34108.68181892   -32512.52930041
  entropy T*S    EENTRO =         0.00058283
  eigenvalues    EBANDS =     -2650.82900385
  atomic energy  EATOM  =     25987.99992980
  Solvation  Ediel_sol  =         0.00000000
  ---------------------------------------------------
  free energy    TOTEN  =      -362.96326398 eV

  energy without entropy =     -362.96384680  energy(sigma->0) =     -362.96345825


--------------------------------------------------------------------------------------------------------




----------------------------------------- Iteration    1(  10)  ---------------------------------------


    POTLOK:  cpu time    0.0290: real time    0.0291
    SETDIJ:  cpu time    0.0036: real time    0.0037
    EDDIAG:  cpu time    0.0903: real time    0.0906
  RMM-DIIS:  cpu time    0.8780: real time    0.8832
    ORTHCH:  cpu time    0.0124: real time    0.0124
       DOS:  cpu time    0.0009: real time    0.0009
    CHARGE:  cpu time    0.0316: real time    0.0317
    MIXING:  cpu time    0.0014: real time    0.0014
    --------------------------------------------
      LOOP:  cpu time    1.0479: real time    1.0779

 eigenvalue-minimisations  :  7694
 total energy-change (2. order) : 0.4308746E-01  (-0.5197310E-01)
 number of electron     298.0000005 magnetization 
 augmentation part       17.2709005 magnetization 

 Broyden mixing:
  rms(total) = 0.16687E+00    rms(broyden)= 0.16679E+00
  rms(prec ) = 0.30278E+00
  weight for this iteration     100.00

 eigenvalues of (default mixing * dielectric matrix)
  average eigenvalue GAMMA=   1.0611
  1.9003  1.9003  0.6672  0.3757  0.4619

 Free energy of the ion-electron system (eV)
  ---------------------------------------------------
  alpha Z        PSCENC =      1543.94168318
  Ewald energy   TEWEN  =    -19394.05508412
  -Hartree energ DENC   =     -7215.91109054
  -exchange      EXHF   =         0.00000000
  -V(xc)+E(xc)   XCENC  =      -241.05758161
  PAW double counting   =     34340.92068018   -32738.33518798
  entropy T*S    EENTRO =         0.00524538
  eigenvalues    EBANDS =     -2646.42877082
  atomic energy  EATOM  =     25987.99992980
  Solvation  Ediel_sol  =         0.00000000
  ---------------------------------------------------
  free energy    TOTEN  =      -362.92017652 eV

  energy without entropy =     -362.92542190  energy(sigma->0) =     -362.92192498


--------------------------------------------------------------------------------------------------------




----------------------------------------- Iteration    1(  11)  ---------------------------------------


    POTLOK:  cpu time    0.0283: real time    0.0284
    SETDIJ:  cpu time    0.0036: real time    0.0036
    EDDIAG:  cpu time    0.0815: real time    0.0817
  RMM-DIIS:  cpu time    0.7687: real time    0.7780
    ORTHCH:  cpu time    0.0123: real time    0.0123
       DOS:  cpu time    0.0014: real time    0.0014
    CHARGE:  cpu time    0.0315: real time    0.0316
    MIXING:  cpu time    0.0014: real time    0.0014
    --------------------------------------------
      LOOP:  cpu time    0.9293: real time    0.9865

 eigenvalue-minimisations  :  7568
 total energy-change (2. order) : 0.4147684E-01  (-0.1518709E-01)
 number of electron     298.0000005 magnetization 
 augmentation part       17.2362597 magnetization 

 Broyden mixing:
  rms(total) = 0.84243E-01    rms(broyden)= 0.84177E-01
  rms(prec ) = 0.14904E+00
  weight for this iteration     100.00

 eigenvalues of (default mixing * dielectric matrix)
  average eigenvalue GAMMA=   1.0619
  2.1450  1.8688  1.0867  0.4760  0.4406  0.3543

 Free energy of the ion-electron system (eV)
  ---------------------------------------------------
  alpha Z        PSCENC =      1543.94168318
  Ewald energy   TEWEN  =    -19394.05508412
  -Hartree energ DENC   =     -7219.21875125
  -exchange      EXHF   =         0.00000000
  -V(xc)+E(xc)   XCENC  =      -240.68717504
  PAW double counting   =     34493.69223527   -32887.46746971
  entropy T*S    EENTRO =         0.00308023
  eigenvalues    EBANDS =     -2647.08714804
  atomic energy  EATOM  =     25987.99992980
  Solvation  Ediel_sol  =         0.00000000
  ---------------------------------------------------
  free energy    TOTEN  =      -362.87869968 eV

  energy without entropy =     -362.88177991  energy(sigma->0) =     -362.87972642


--------------------------------------------------------------------------------------------------------




----------------------------------------- Iteration    1(  12)  ---------------------------------------


    POTLOK:  cpu time    0.0291: real time    0.0292
    SETDIJ:  cpu time    0.0308: real time    0.0310
    EDDIAG:  cpu time    0.0829: real time    0.0832
  RMM-DIIS:  cpu time    0.8213: real time    0.8263
    ORTHCH:  cpu time    0.0127: real time    0.0128
       DOS:  cpu time    0.0071: real time    0.0072
    CHARGE:  cpu time    0.0514: real time    0.0516
    MIXING:  cpu time    0.0015: real time    0.0015
    --------------------------------------------
      LOOP:  cpu time    1.0375: real time    1.0773

 eigenvalue-minimisations  :  7689
 total energy-change (2. order) : 0.3574457E-02  (-0.6643725E-02)
 number of electron     298.0000005 magnetization 
 augmentation part       17.2321492 magnetization 

 Broyden mixing:
  rms(total) = 0.49530E-01    rms(broyden)= 0.49509E-01
  rms(prec ) = 0.79390E-01
  weight for this iteration     100.00

 eigenvalues of (default mixing * dielectric matrix)
  average eigenvalue GAMMA=   1.0361
  2.3183  1.8260  1.2993  0.5405  0.5405  0.3692  0.3587

 Free energy of the ion-electron system (eV)
  ---------------------------------------------------
  alpha Z        PSCENC =      1543.94168318
  Ewald energy   TEWEN  =    -19394.05508412
  -Hartree energ DENC   =     -7221.49013538
  -exchange      EXHF   =         0.00000000
  -V(xc)+E(xc)   XCENC  =      -240.49772843
  PAW double counting   =     34624.10123324   -33015.44998551
  entropy T*S    EENTRO =         0.00359267
  eigenvalues    EBANDS =     -2647.42863068
  atomic energy  EATOM  =     25987.99992980
  Solvation  Ediel_sol  =         0.00000000
  ---------------------------------------------------
  free energy    TOTEN  =      -362.87512522 eV

  energy without entropy =     -362.87871789  energy(sigma->0) =     -362.87632278


--------------------------------------------------------------------------------------------------------




----------------------------------------- Iteration    1(  13)  ---------------------------------------


    POTLOK:  cpu time    0.0289: real time    0.0290
    SETDIJ:  cpu time    0.0036: real time    0.0036
    EDDIAG:  cpu time    0.0962: real time    0.0966
  RMM-DIIS:  cpu time    0.8033: real time    0.8077
    ORTHCH:  cpu time    0.0122: real time    0.0122
       DOS:  cpu time    0.0013: real time    0.0013
    CHARGE:  cpu time    0.0322: real time    0.0323
    MIXING:  cpu time    0.0015: real time    0.0015
    --------------------------------------------
      LOOP:  cpu time    0.9799: real time    1.0225

 eigenvalue-minimisations  :  7667
 total energy-change (2. order) : 0.2674830E-02  (-0.2121729E-02)
 number of electron     298.0000005 magnetization 
 augmentation part       17.2310402 magnetization 

 Broyden mixing:
  rms(total) = 0.26297E-01    rms(broyden)= 0.26279E-01
  rms(prec ) = 0.40576E-01
  weight for this iteration     100.00

 eigenvalues of (default mixing * dielectric matrix)
  average eigenvalue GAMMA=   1.0361
  2.3599  1.8737  1.4512  0.8787  0.5667  0.4382  0.3860  0.3344

 Free energy of the ion-electron system (eV)
  ---------------------------------------------------
  alpha Z        PSCENC =      1543.94168318
  Ewald energy   TEWEN  =    -19394.05508412
  -Hartree energ DENC   =     -7222.06261539
  -exchange      EXHF   =         0.00000000
  -V(xc)+E(xc)   XCENC  =      -240.44485616
  PAW double counting   =     34700.17140852   -33090.27321745
  entropy T*S    EENTRO =         0.00355419
  eigenvalues    EBANDS =     -2648.15325297
  atomic energy  EATOM  =     25987.99992980
  Solvation  Ediel_sol  =         0.00000000
  ---------------------------------------------------
  free energy    TOTEN  =      -362.87245039 eV

  energy without entropy =     -362.87600459  energy(sigma->0) =     -362.87363512


--------------------------------------------------------------------------------------------------------




----------------------------------------- Iteration    1(  14)  ---------------------------------------


    POTLOK:  cpu time    0.0285: real time    0.0286
    SETDIJ:  cpu time    0.0036: real time    0.0036
    EDDIAG:  cpu time    0.0783: real time    0.0787
  RMM-DIIS:  cpu time    0.8034: real time    0.8093
    ORTHCH:  cpu time    0.0124: real time    0.0124
       DOS:  cpu time    0.0025: real time    0.0026
    CHARGE:  cpu time    0.0300: real time    0.0303
    MIXING:  cpu time    0.0015: real time    0.0016
    --------------------------------------------
      LOOP:  cpu time    0.9609: real time    1.0159

 eigenvalue-minimisations  :  7884
 total energy-change (2. order) : 0.2774383E-03  (-0.7668191E-03)
 number of electron     298.0000005 magnetization 
 augmentation part       17.2293089 magnetization 

 Broyden mixing:
  rms(total) = 0.14540E-01    rms(broyden)= 0.14535E-01
  rms(prec ) = 0.22248E-01
  weight for this iteration     100.00

 eigenvalues of (default mixing * dielectric matrix)
  average eigenvalue GAMMA=   1.0525
  2.4476  2.0165  1.4943  1.1868  0.5887  0.5887  0.4212  0.3925  0.3362

 Free energy of the ion-electron system (eV)
  ---------------------------------------------------
  alpha Z        PSCENC =      1543.94168318
  Ewald energy   TEWEN  =    -19394.05508412
  -Hartree energ DENC   =     -7222.37241134
  -exchange      EXHF   =         0.00000000
  -V(xc)+E(xc)   XCENC  =      -240.43686896
  PAW double counting   =     34733.02115969   -33122.60454436
  entropy T*S    EENTRO =         0.00356832
  eigenvalues    EBANDS =     -2648.36960517
  atomic energy  EATOM  =     25987.99992980
  Solvation  Ediel_sol  =         0.00000000
  ---------------------------------------------------
  free energy    TOTEN  =      -362.87217295 eV

  energy without entropy =     -362.87574128  energy(sigma->0) =     -362.87336239


--------------------------------------------------------------------------------------------------------




----------------------------------------- Iteration    1(  15)  ---------------------------------------


    POTLOK:  cpu time    0.0289: real time    0.0291
    SETDIJ:  cpu time    0.0037: real time    0.0037
    EDDIAG:  cpu time    0.0827: real time    0.0834
  RMM-DIIS:  cpu time    0.7912: real time    0.7965
    ORTHCH:  cpu time    0.0138: real time    0.0139
       DOS:  cpu time    0.0010: real time    0.0010
    CHARGE:  cpu time    0.0309: real time    0.0310
    MIXING:  cpu time    0.0020: real time    0.0020
    --------------------------------------------
      LOOP:  cpu time    0.9549: real time    0.9856

 eigenvalue-minimisations  :  7788
 total energy-change (2. order) :-0.7856200E-04  (-0.3842270E-03)
 number of electron     298.0000005 magnetization 
 augmentation part       17.2267875 magnetization 

 Broyden mixing:
  rms(total) = 0.70895E-02    rms(broyden)= 0.70842E-02
  rms(prec ) = 0.12571E-01
  weight for this iteration     100.00

 eigenvalues of (default mixing * dielectric matrix)
  average eigenvalue GAMMA=   1.0382
  2.5612  2.0361  1.5797  1.2320  0.7384  0.6370  0.4441  0.4441  0.3373  0.3721

 Free energy of the ion-electron system (eV)
  ---------------------------------------------------
  alpha Z        PSCENC =      1543.94168318
  Ewald energy   TEWEN  =    -19394.05508412
  -Hartree energ DENC   =     -7222.98090740
  -exchange      EXHF   =         0.00000000
  -V(xc)+E(xc)   XCENC  =      -240.42459045
  PAW double counting   =     34751.14197419   -33140.38728475
  entropy T*S    EENTRO =         0.00367638
  eigenvalues    EBANDS =     -2648.11164835
  atomic energy  EATOM  =     25987.99992980
  Solvation  Ediel_sol  =         0.00000000
  ---------------------------------------------------
  free energy    TOTEN  =      -362.87225152 eV

  energy without entropy =     -362.87592790  energy(sigma->0) =     -362.87347698


--------------------------------------------------------------------------------------------------------




----------------------------------------- Iteration    1(  16)  ---------------------------------------


    POTLOK:  cpu time    0.0296: real time    0.0304
    SETDIJ:  cpu time    0.0037: real time    0.0037
    EDDIAG:  cpu time    0.0797: real time    0.0801
  RMM-DIIS:  cpu time    0.7383: real time    0.7440
    ORTHCH:  cpu time    0.0123: real time    0.0124
       DOS:  cpu time    0.0011: real time    0.0012
    CHARGE:  cpu time    0.0303: real time    0.0304
    MIXING:  cpu time    0.0019: real time    0.0019
    --------------------------------------------
      LOOP:  cpu time    0.8975: real time    0.9500

 eigenvalue-minimisations  :  7186
 total energy-change (2. order) :-0.6432538E-04  (-0.1518283E-03)
 number of electron     298.0000005 magnetization 
 augmentation part       17.2262187 magnetization 

 Broyden mixing:
  rms(total) = 0.44400E-02    rms(broyden)= 0.44371E-02
  rms(prec ) = 0.92446E-02
  weight for this iteration     100.00

 eigenvalues of (default mixing * dielectric matrix)
  average eigenvalue GAMMA=   1.0069
  2.6391  2.0530  1.5882  1.2688  0.7245  0.7245  0.4877  0.4877  0.3337  0.3845
  0.3845

 Free energy of the ion-electron system (eV)
  ---------------------------------------------------
  alpha Z        PSCENC =      1543.94168318
  Ewald energy   TEWEN  =    -19394.05508412
  -Hartree energ DENC   =     -7222.93956124
  -exchange      EXHF   =         0.00000000
  -V(xc)+E(xc)   XCENC  =      -240.42672466
  PAW double counting   =     34762.71468305   -33151.77288440
  entropy T*S    EENTRO =         0.00355106
[...]
    102       5.5036      2.00000
    103       5.5599      2.00000
    104       5.6203      2.00000
    105       5.6791      2.00000
    106       5.7290      2.00000
    107       5.7847      2.00000
    108       5.8286      2.00000
    109       5.8938      2.00000
    110       6.0990      2.00000
    111       6.1069      2.00000
    112       6.1693      2.00000
    113       6.2019      2.00000
    114       6.2386      2.00000
    115       6.2503      2.00000
    116       6.2892      2.00000
    117       6.3032      2.00000
    118       6.3158      2.00000
    119       6.3936      2.00000
    120       6.4128      2.00000
    121       6.4330      2.00000
    122       6.4756      2.00000
    123       6.5129      2.00000
    124       6.5889      2.00000
    125       6.6120      2.00000
    126       6.6434      2.00000
    127       6.6735      2.00000
    128       6.6808      2.00000
    129       6.7516      2.00000
    130       6.8099      2.00000
    131       6.8318      2.00000
    132       6.8883      2.00000
    133       6.9038      2.00000
    134       6.9524      2.00000
    135       6.9867      2.00000
    136       7.0165      2.00001
    137       7.0611      2.00004
    138       7.1276      2.00051
    139       7.1622      2.00157
    140       7.2064      2.00561
    141       7.2609      2.02012
    142       7.2800      2.02890
    143       7.2909      2.03477
    144       7.3174      2.05074
    145       7.3656      2.07091
    146       7.4019      2.04737
    147       7.4177      2.01607
    148       7.4593      1.84392
    149       7.4923      1.60027
    150       7.5242      1.28588
    151       7.5688      0.78833
    152       7.5848      0.61835
    153       7.6067      0.40728
    154       7.6368      0.17931
    155       7.7246     -0.06970
    156       7.7383     -0.07063
    157       7.7984     -0.04097
    158       7.8338     -0.02227
    159       7.8684     -0.01053
    160       7.9092     -0.00365
    161       7.9496     -0.00107
    162       7.9802     -0.00038
    163       7.9939     -0.00023
    164       8.0303     -0.00006
    165       8.0776     -0.00001
    166       8.1208     -0.00000
    167       8.1589     -0.00000
    168       8.2114     -0.00000
    169       8.2540     -0.00000
    170       8.3492     -0.00000
    171       8.4180     -0.00000
    172       8.5051     -0.00000
    173       8.6604     -0.00000
    174       8.7819     -0.00000
    175       8.9201     -0.00000
    176       9.4447     -0.00000
    177       9.5206     -0.00000
    178       9.5484     -0.00000
    179       9.6141     -0.00000
    180       9.6981     -0.00000


--------------------------------------------------------------------------------------------------------


 soft charge-density along one line, spin component           1
         0         1         2         3         4         5         6         7         8         9
 total charge-density along one line
 
 pseudopotential strength for first ion, spin component:           1
 -6.361  -0.002  -0.001   0.001   0.000  -7.554  -0.003  -0.001
 -0.002  -6.373  -0.000   0.001  -0.000  -0.003  -7.569  -0.000
 -0.001  -0.000  -6.374  -0.000  -0.002  -0.001  -0.000  -7.571
  0.001   0.001  -0.000  -6.366  -0.001   0.002   0.001  -0.001
  0.000  -0.000  -0.002  -0.001  -6.373   0.000  -0.000  -0.002
 -7.554  -0.003  -0.001   0.002   0.000  -8.950  -0.004  -0.001
 -0.003  -7.569  -0.000   0.001  -0.000  -0.004  -8.968  -0.000
 -0.001  -0.000  -7.571  -0.001  -0.002  -0.001  -0.000  -8.969
  0.002   0.001  -0.001  -7.560  -0.001   0.002   0.002  -0.001
  0.000  -0.000  -0.002  -0.001  -7.568   0.000  -0.000  -0.003
 -0.001  -0.002   0.003   0.001  -0.001  -0.001  -0.002   0.003
 -0.001  -0.003   0.005   0.002  -0.002  -0.001  -0.004   0.006
  0.001   0.000   0.001  -0.000   0.003   0.001   0.000   0.001
 -0.000  -0.004  -0.002   0.001   0.000  -0.000  -0.004  -0.002
 -0.002  -0.000  -0.001   0.001   0.002  -0.002  -0.000  -0.001
 -0.001  -0.003   0.000   0.000  -0.002  -0.001  -0.003   0.000
  0.000   0.003  -0.000  -0.001  -0.000   0.000   0.004  -0.000
  0.001   0.000   0.001  -0.003  -0.002   0.001   0.000   0.001
 total augmentation occupancy for first ion, spin component:           1
  5.483  -0.140  -0.069   0.073   0.022  -2.821   0.076   0.050  -0.012  -0.008   0.084  -0.020  -0.019   0.013   0.110  -0.001
 -0.140   4.895   0.027   0.105  -0.084   0.075  -2.580  -0.020  -0.063   0.051   0.065  -0.009   0.080   0.098   0.013   0.001
 -0.069   0.027   5.066  -0.010  -0.025   0.049  -0.020  -2.807   0.012   0.031   0.066   0.011  -0.008   0.002   0.016  -0.001
  0.073   0.105  -0.010   5.279  -0.037  -0.013  -0.063   0.012  -2.776   0.031  -0.075   0.027   0.007  -0.022   0.095  -0.000
  0.022  -0.084  -0.025  -0.037   4.808  -0.008   0.051   0.031   0.031  -2.653   0.059  -0.026  -0.032   0.006  -0.022  -0.003
 -2.821   0.075   0.049  -0.013  -0.008   1.475  -0.041  -0.033  -0.005   0.002  -0.055   0.012   0.011  -0.004  -0.060   0.001
  0.076  -2.580  -0.020  -0.063   0.051  -0.041   1.379   0.014   0.038  -0.030  -0.027   0.004  -0.039  -0.054  -0.004  -0.000
  0.050  -0.020  -2.807   0.012   0.031  -0.033   0.014   1.568  -0.010  -0.026  -0.045  -0.005   0.010  -0.004  -0.010   0.001
 -0.012  -0.063   0.012  -2.776   0.031  -0.005   0.038  -0.010   1.482  -0.022   0.050  -0.015  -0.002   0.012  -0.047   0.000
 -0.008   0.051   0.031   0.031  -2.653   0.002  -0.030  -0.026  -0.022   1.475  -0.044   0.016   0.023  -0.003   0.014   0.002
  0.084   0.065   0.066  -0.075   0.059  -0.055  -0.027  -0.045   0.050  -0.044   2.257  -0.243   0.031   0.023  -0.011   0.001
 -0.020  -0.009   0.011   0.027  -0.026   0.012   0.004  -0.005  -0.015   0.016  -0.243   0.028  -0.001   0.001   0.000  -0.000
 -0.019   0.080  -0.008   0.007  -0.032   0.011  -0.039   0.010  -0.002   0.023   0.031  -0.001   0.294  -0.014   0.006   0.007
  0.013   0.098   0.002  -0.022   0.006  -0.004  -0.054  -0.004   0.012  -0.003   0.023   0.001  -0.014   0.323  -0.007  -0.001
  0.110   0.013   0.016   0.095  -0.022  -0.060  -0.004  -0.010  -0.047   0.014  -0.011   0.000   0.006  -0.007   0.319   0.000
 -0.001   0.001  -0.001  -0.000  -0.003   0.001  -0.000   0.001   0.000   0.002   0.001  -0.000   0.007  -0.001   0.000   0.000
 -0.000   0.004   0.002  -0.001  -0.000   0.000  -0.002  -0.001   0.001   0.000  -0.000   0.000  -0.000   0.008  -0.000  -0.000
  0.004  -0.000   0.001   0.001  -0.002  -0.002   0.000  -0.001  -0.000   0.001  -0.000   0.000   0.000  -0.000   0.008  -0.000


------------------------ aborting loop because EDIFF is reached ----------------------------------------


    CHARGE:  cpu time    0.0291: real time    0.0292
    FORLOC:  cpu time    0.0133: real time    0.0133
    FORNL :  cpu time    0.3034: real time    0.3092
    STRESS:  cpu time    0.9118: real time    0.9202
    FORCOR:  cpu time    0.0429: real time    0.0431
    FORHAR:  cpu time    0.0182: real time    0.0182
    MIXING:  cpu time    0.0012: real time    0.0012
    OFIELD:  cpu time    0.0000: real time    0.0000

  FORCE on cell =-STRESS in cart. coord.  units (eV):
  Direction    XX          YY          ZZ          XY          YZ          ZX
  --------------------------------------------------------------------------------------
  Alpha Z  1542.78941  1542.78941  1542.78941
  Ewald   -6058.62488 -5530.96127 -7810.05594   373.45653   158.63634  -104.75979
  Hartree  2796.92943  3314.88058  1101.59073   323.23588   118.53067   -84.88120
  E(xc)   -1300.65322 -1300.51290 -1300.08740    -0.12490    -0.23936    -0.10654
  Local   -1925.36592 -2970.11217  1516.68735  -696.47338  -279.94265   190.12103
  n-local  -303.26551  -304.67353  -299.90232    -0.02215    -3.39216     0.87563
  augment   210.50732   210.20762   210.26240     0.05925     0.37204    -0.25515
  Kinetic  5037.80959  5038.57194  5038.84422    -0.03439     5.98308    -1.08384
  Fock        0.00000     0.00000     0.00000     0.00000     0.00000     0.00000
  -------------------------------------------------------------------------------------
  Total       0.12621     0.18969     0.12845     0.09686    -0.05205    -0.08987
  in kB       0.27801     0.41783     0.28294     0.21335    -0.11465    -0.19796
  external pressure =        0.33 kB  Pullay stress =        0.00 kB


 VOLUME and BASIS-vectors are now :
 -----------------------------------------------------------------------------
  energy-cutoff  :      300.00
  volume of cell :      727.37
      direct lattice vectors                 reciprocal lattice vectors
     6.879733315 -0.009761754  0.002728944     0.145354790  0.000209811 -0.000053246
    -0.014788504 10.241873819 -0.013566604     0.000138491  0.097638751  0.000127081
     0.003800919 -0.013441218 10.323003209    -0.000038243  0.000128262  0.096871216

  length of vectors
     6.879740782 10.241893481 10.323012660     0.145354951  0.097638932  0.096871308


 FORCES acting on ions
    electron-ion (+dipol)            ewald-force                    non-local-force                 convergence-correction
 -----------------------------------------------------------------------------------------------
   -.454E+02 0.193E+02 -.152E+03   0.452E+02 -.187E+02 0.152E+03   0.200E+00 -.570E+00 -.390E+00   0.724E-03 -.960E-02 -.226E-02
   -.660E+02 -.519E+02 0.508E+02   0.656E+02 0.511E+02 -.507E+02   0.394E+00 0.722E+00 -.108E+00   0.223E-02 0.159E-01 0.733E-02
   0.370E+02 -.330E+02 -.119E+03   -.371E+02 0.321E+02 0.119E+03   0.501E-01 0.925E+00 0.638E+00   0.206E-02 -.143E-01 0.391E-02
   -.652E+02 0.280E+02 0.616E+02   0.652E+02 -.274E+02 -.610E+02   -.441E-01 -.599E+00 -.626E+00   0.555E-03 -.105E-01 -.380E-02
   0.354E+02 0.102E+02 -.703E+02   -.355E+02 -.109E+02 0.702E+02   0.930E-01 0.688E+00 0.133E+00   0.184E-02 -.155E-01 -.658E-02
   -.731E+02 0.270E+01 -.824E+02   0.726E+02 -.207E+01 0.831E+02   0.587E+00 -.640E+00 -.729E+00   0.184E-02 0.103E-01 0.378E-02
   -.115E+02 -.213E+02 0.165E+03   0.113E+02 0.216E+02 -.165E+03   0.240E+00 -.280E+00 0.205E+00   -.157E-03 0.108E-01 0.177E-02
   -.267E+02 0.216E+02 -.949E+02   0.266E+02 -.211E+02 0.943E+02   0.143E+00 -.478E+00 0.541E+00   -.278E-02 0.532E-02 0.342E-02
   0.403E+02 -.434E+02 0.824E+02   -.403E+02 0.421E+02 -.827E+02   -.186E-01 0.127E+01 0.302E+00   -.731E-03 0.172E-01 -.532E-02
   -.356E+02 -.183E+02 -.123E+03   0.356E+02 0.178E+02 0.122E+03   -.255E-01 0.538E+00 0.702E+00   -.181E-02 -.147E-01 0.360E-02
   -.919E+02 0.129E+03 -.106E+03   0.919E+02 -.128E+03 0.106E+03   0.393E-01 -.511E+00 0.161E+00   -.313E-02 0.153E-01 -.167E-01
   -.103E+03 -.179E+03 -.316E+03   0.102E+03 0.178E+03 0.316E+03   0.326E+00 0.812E+00 -.214E+00   0.430E-02 0.376E-01 -.947E-02
   0.121E+03 0.915E+02 0.288E+03   -.121E+03 -.913E+02 -.288E+03   -.217E+00 -.127E+00 -.388E+00   0.649E-02 0.144E-01 0.413E-02
   0.110E+03 0.853E+02 -.111E+03   -.110E+03 -.846E+02 0.111E+03   -.117E+00 -.706E+00 0.168E+00   0.331E-02 0.125E-01 -.147E-01
   -.147E+03 0.131E+03 -.403E+03   0.147E+03 -.131E+03 0.403E+03   0.540E-01 0.152E+00 -.349E+00   0.659E-02 -.135E-01 -.344E-02
   -.120E+03 0.109E+03 0.286E+03   0.120E+03 -.109E+03 -.285E+03   0.160E+00 -.179E+00 -.622E+00   -.759E-02 0.131E-01 0.579E-02
   0.919E+02 -.288E+02 0.175E+03   -.916E+02 0.288E+02 -.176E+03   -.319E+00 0.691E-02 0.104E+01   -.407E-02 -.282E-01 0.180E-01
   -.125E+03 0.282E+02 0.451E+03   0.126E+03 -.287E+02 -.450E+03   -.741E+00 0.496E+00 -.776E+00   -.490E-02 -.429E-01 0.404E-02
   0.188E+03 0.728E+01 0.238E+03   -.188E+03 -.677E+01 -.237E+03   0.147E+00 -.511E+00 -.506E+00   -.379E-02 -.136E-01 -.979E-02
   0.197E+02 0.224E+02 -.674E+02   -.196E+02 -.223E+02 0.672E+02   -.718E-01 -.131E+00 0.255E+00   0.182E-02 0.457E-02 0.298E-02
   -.308E+02 -.535E+02 0.723E+02   0.308E+02 0.523E+02 -.723E+02   -.359E-01 0.110E+01 0.255E-01   0.826E-03 0.121E-01 -.261E-02
   -.332E+02 -.959E+00 0.488E+02   0.330E+02 0.144E+01 -.500E+02   0.201E+00 -.469E+00 0.117E+01   0.890E-03 -.766E-02 0.496E-02
   0.236E+02 -.532E+01 0.139E+03   -.241E+02 0.501E+01 -.138E+03   0.495E+00 0.324E+00 -.886E+00   0.125E-02 -.135E-01 0.824E-03
   -.659E+02 0.414E+02 0.340E+02   0.659E+02 -.410E+02 -.345E+02   -.519E-01 -.438E+00 0.502E+00   0.193E-02 -.522E-02 0.461E-02
   0.425E+02 -.176E+02 -.116E+03   -.421E+02 0.172E+02 0.117E+03   -.423E+00 0.355E+00 -.692E+00   -.127E-02 0.131E-01 -.222E-02
   0.550E+02 -.671E+01 0.562E+02   -.545E+02 0.593E+01 -.566E+02   -.445E+00 0.768E+00 0.465E+00   -.235E-02 0.140E-01 0.600E-02
   0.467E+02 -.752E+01 -.138E+03   -.465E+02 0.717E+01 0.138E+03   -.173E+00 0.352E+00 0.109E+00   -.174E-02 -.435E-02 -.780E-03
   0.628E+02 0.723E+01 0.500E+02   -.627E+02 -.652E+01 -.502E+02   -.427E-01 -.708E+00 0.284E+00   -.216E-02 -.539E-02 0.459E-02
   0.144E+03 0.233E+01 -.219E+03   -.143E+03 -.188E+01 0.220E+03   -.965E+00 -.472E+00 -.729E+00   0.738E-02 0.235E-01 0.102E-02
   -.201E+03 0.908E+02 0.298E+03   0.201E+03 -.899E+02 -.297E+03   -.150E+00 -.893E+00 -.217E+00   0.492E-02 -.104E-01 -.183E-02
   -.128E+03 -.153E+03 -.150E+03   0.128E+03 0.153E+03 0.149E+03   0.102E+00 -.226E+00 0.119E+01   -.337E-02 0.298E-01 -.142E-01
   0.115E+03 0.249E+02 -.418E+03   -.115E+03 -.239E+02 0.419E+03   -.288E+00 -.102E+01 -.558E+00   -.136E-02 -.357E-01 -.111E-01
   0.187E+03 0.502E+02 0.200E+03   -.187E+03 -.491E+02 -.199E+03   0.776E-01 -.106E+01 -.802E+00   -.143E-02 -.322E-01 -.123E-01
   -.964E+02 0.289E+02 -.239E+03   0.964E+02 -.298E+02 0.239E+03   -.637E-01 0.909E+00 -.371E-01   -.250E-02 -.539E-01 -.153E-01
   0.190E+02 -.119E+03 0.396E+03   -.186E+02 0.120E+03 -.396E+03   -.307E+00 -.411E+00 -.171E+00   -.555E-02 0.272E-01 0.143E-01
   0.129E+03 -.190E+03 -.166E+03   -.129E+03 0.190E+03 0.165E+03   -.129E-01 -.348E+00 0.807E+00   0.173E-02 0.359E-01 -.179E-01
 -----------------------------------------------------------------------------------------------
   0.120E+01 0.138E+01 0.148E+00   -.142E-12 0.227E-12 0.000E+00   -.120E+01 -.136E+01 -.915E-01   -.247E-04 -.185E-01 -.552E-01
 
 
 POSITION                                       TOTAL-FORCE (eV/Angst)
 -----------------------------------------------------------------------------------
      6.83920      3.40652      0.00978        -0.000080      0.007334      0.003304
      6.76287     10.19998      3.50744        -0.001786     -0.004018     -0.001536
      1.71301      4.98034      1.48346        -0.001082     -0.000236     -0.002455
      6.85824      3.39409      7.19516         0.000456      0.004138      0.006148
      1.70453      5.05664      8.61986         0.006170      0.004022     -0.000456
      1.57963      8.71515      1.95156         0.007115      0.002983     -0.003526
      1.68818      8.56258      5.06585        -0.006276     -0.000120      0.000614
      5.08652      1.77170      1.58368         0.004055     -0.000421     -0.001346
      3.42135     10.00605      6.79784        -0.000022      0.000529     -0.002208
      5.15082      5.01915      1.52589         0.000943      0.002663     -0.002294
      5.01287      1.70793      8.63441         0.007261     -0.004349     -0.001633
      6.82621     10.14797     10.26643        -0.005450      0.001113     -0.000800
      1.75101      1.74341      5.23421        -0.002039      0.001392      0.000824
      1.83524      1.74647      8.61554        -0.004233     -0.004297     -0.000525
      0.03098      6.82390     10.30328         0.001009     -0.004431      0.001105
      5.10812      1.77571      5.29765         0.006618     -0.000287      0.004103
      3.45359      3.52790      3.36939         0.002972     -0.002242      0.004283
      5.28793      5.08875      5.30206        -0.000484     -0.003527     -0.002388
      3.42558      6.87348      6.87724         0.000918     -0.006458     -0.007059
      1.77237      1.67266      1.66194        -0.002537      0.000838     -0.003395
      6.85098     10.14491      6.82779        -0.000172     -0.004877      0.001077
      6.83119      3.43076      3.24563        -0.002245      0.001210     -0.000211
      1.57172      5.05954      5.35324         0.000709      0.002637     -0.002414
      0.02217      6.78500      3.35478        -0.006833     -0.002172      0.005875
      3.47350      9.96980      0.06943         0.003032     -0.003100      0.002111
      3.58420     10.19955      3.39251        -0.001912     -0.002082      0.000669
      3.42550      6.85330      0.00941        -0.002575      0.004658     -0.000747
      3.41907      6.83684      3.31262        -0.000705     -0.000688      0.005749
      5.31813      8.51893      1.79855        -0.007216      0.002446     -0.003174
      0.00717      6.92368      6.93672        -0.001211     -0.005779     -0.006523
      1.69790      8.49261      8.42158        -0.002880      0.000612      0.006506
      3.45699      3.52814      0.00879         0.000466      0.005526      0.002673
      3.44988      3.64254      6.98386        -0.000944     -0.000308     -0.005339
      5.15336      5.06622      8.63047        -0.000378      0.002048      0.000544
      5.18093      8.50297      5.14130         0.005978      0.004063     -0.002308
      5.15795      8.48535      8.46998         0.003357      0.001177      0.004749
 -----------------------------------------------------------------------------------
    total drift:                                0.002612      0.000188      0.001410


--------------------------------------------------------------------------------------------------------



  FREE ENERGIE OF THE ION-ELECTRON SYSTEM (eV)
  ---------------------------------------------------
  free  energy   TOTEN  =      -362.89474329 eV

  energy  without entropy=     -362.90126978  energy(sigma->0) =     -362.89691879
 
 d Force = 0.5084396E-04[ 0.369E-04, 0.648E-04]  d Energy = 0.6198162E-04-0.111E-04
 d Force = 0.5764517E+00[ 0.576E+00, 0.577E+00]  d Ewald  = 0.5875241E+00-0.111E-01


--------------------------------------------------------------------------------------------------------


    POTLOK:  cpu time    0.1351: real time    0.1355


--------------------------------------------------------------------------------------------------------


 Conjugate gradient step on ions:
 trial-energy change:   -0.000062  1 .order   -0.000063   -0.000076   -0.000050
  (g-gl).g = 0.672E-04      g.g   = 0.589E-04  gl.gl    = 0.155E-03
 g(Force)  = 0.320E-04   g(Stress)= 0.270E-04 ortho     =-0.875E-05
 gamma     =   0.43471
 trial     =   1.37010
 opt step  =   4.03155  (harmonic =   4.03155) maximal distance =0.00148843
 next E    =  -362.894792   (d E  =  -0.00011)


--------------------------------------------------------------------------------------------------------


  
 reached required accuracy - stopping structural energy minimisation
     LOOP+:  cpu time    4.1695: real time    4.8198
    4ORBIT:  cpu time    0.0000: real time    0.0000

 total amount of memory used by VASP on root node    67869. kBytes
========================================================================

   base      :      30000. kBytes
   nonlr-proj:      10460. kBytes
   fftplans  :       2814. kBytes
   grid      :       5360. kBytes
   one-center:        124. kBytes
   wavefun   :      19111. kBytes
 
  
  
 General timing and accounting informations for this job:
 ========================================================
  
                  Total CPU time used (sec):      235.137
                            User time (sec):      234.127
                          System time (sec):        1.010
                         Elapsed time (sec):      260.624
  
                   Maximum memory used (kb):      285588.
                   Average memory used (kb):           0.
  
                          Minor page faults:       115297
                          Major page faults:           35
                 Voluntary context switches:         9305
