       N       E                     dE             d eps       ncg     rms          rms(c)
DAV:   1     0.241765638839E+04    0.24177E+04   -0.12951E+05  6056   0.109E+03
DAV:   2    -0.708005621435E+01   -0.24247E+04   -0.23378E+04  6176   0.416E+02
DAV:   3    -0.319696457046E+03   -0.31262E+03   -0.29665E+03  9360   0.105E+02
DAV:   4    -0.358075488663E+03   -0.38379E+02   -0.36710E+02  9504   0.335E+01
DAV:   5    -0.362051691532E+03   -0.39762E+01   -0.39018E+01  8936   0.105E+01    0.626E+01
RMM:   6    -0.352188921102E+03    0.98628E+01   -0.25100E+01  7706   0.101E+01    0.287E+01
RMM:   7    -0.355216559357E+03   -0.30276E+01   -0.25676E+01  8154   0.740E+00    0.131E+01
RMM:   8    -0.348196235069E+03    0.70203E+01   -0.67943E+00  8063   0.376E+00    0.444E+00
RMM:   9    -0.348032310246E+03    0.16392E+00   -0.20203E+00  8244   0.178E+00    0.296E+00
RMM:  10    -0.348007852383E+03    0.24458E-01   -0.46540E-01  8205   0.102E+00    0.148E+00
RMM:  11    -0.347980038503E+03    0.27814E-01   -0.16185E-01  8223   0.609E-01    0.673E-01
RMM:  12    -0.347976308049E+03    0.37305E-02   -0.60011E-02  8264   0.333E-01    0.385E-01
RMM:  13    -0.347974777934E+03    0.15301E-02   -0.18492E-02  8306   0.170E-01    0.228E-01
RMM:  14    -0.347975157175E+03   -0.37924E-03   -0.84347E-03  8849   0.951E-02    0.149E-01
RMM:  15    -0.347975359634E+03   -0.20246E-03   -0.37725E-03  8480   0.638E-02    0.730E-02
RMM:  16    -0.347975405922E+03   -0.46288E-04   -0.16497E-03  7805   0.394E-02    0.331E-02
RMM:  17    -0.347975441449E+03   -0.35527E-04   -0.77609E-04  6433   0.256E-02    0.168E-02
RMM:  18    -0.347975465295E+03   -0.23845E-04   -0.35195E-04  6118   0.190E-02    0.892E-03
RMM:  19    -0.347975475392E+03   -0.10097E-04   -0.14605E-04  5328   0.131E-02    0.559E-03
RMM:  20    -0.347975479949E+03   -0.45573E-05   -0.79400E-05  5013   0.110E-02
   1 F= -.34797548E+03 E0= -.34797754E+03  d E =-.347975E+03
       N       E                     dE             d eps       ncg     rms          rms(c)
DAV:   1    -0.348063967791E+03   -0.88492E-01   -0.29949E+00  6600   0.539E+00    0.205E+00
RMM:   2    -0.348040465989E+03    0.23502E-01   -0.25028E-01  7862   0.125E+00    0.709E-01
RMM:   3    -0.348028555647E+03    0.11910E-01   -0.65975E-02  8362   0.410E-01    0.567E-01
RMM:   4    -0.348019040203E+03    0.95154E-02   -0.18910E-02  8362   0.279E-01    0.294E-01
RMM:   5    -0.348018102294E+03    0.93791E-03   -0.55749E-03  8280   0.148E-01    0.225E-01
RMM:   6    -0.348018279776E+03   -0.17748E-03   -0.23929E-03  8773   0.740E-02    0.141E-01
RMM:   7    -0.348018237554E+03    0.42221E-04   -0.10283E-03  8441   0.539E-02    0.741E-02
RMM:   8    -0.348018275183E+03   -0.37629E-04   -0.53857E-04  7226   0.321E-02    0.500E-02
RMM:   9    -0.348018300401E+03   -0.25218E-04   -0.17943E-04  6461   0.236E-02    0.380E-02
RMM:  10    -0.348018319569E+03   -0.19168E-04   -0.13201E-04  5756   0.181E-02    0.168E-02
RMM:  11    -0.348018314501E+03    0.50677E-05   -0.75658E-05  5423   0.150E-02
   2 F= -.34801831E+03 E0= -.34802009E+03  d E =-.428346E-01
       N       E                     dE             d eps       ncg     rms          rms(c)
DAV:   1    -0.348327731932E+03   -0.30941E+00   -0.17309E+01  6248   0.129E+01    0.484E+00
RMM:   2    -0.348193338015E+03    0.13439E+00   -0.14288E+00  7897   0.299E+00    0.172E+00
RMM:   3    -0.348117957962E+03    0.75380E-01   -0.37511E-01  8371   0.974E-01    0.135E+00
RMM:   4    -0.348065360513E+03    0.52597E-01   -0.11225E-01  8383   0.672E-01    0.702E-01
RMM:   5    -0.348059459927E+03    0.59006E-02   -0.32176E-02  8298   0.360E-01    0.531E-01
RMM:   6    -0.348060741087E+03   -0.12812E-02   -0.13715E-02  8955   0.175E-01    0.342E-01
RMM:   7    -0.348060622290E+03    0.11880E-03   -0.57580E-03  9137   0.129E-01    0.180E-01
RMM:   8    -0.348060952358E+03   -0.33007E-03   -0.33083E-03  9328   0.760E-02    0.122E-01
RMM:   9    -0.348061166188E+03   -0.21383E-03   -0.10563E-03  8558   0.520E-02    0.916E-02
RMM:  10    -0.348061367841E+03   -0.20165E-03   -0.73114E-04  8280   0.380E-02    0.434E-02
RMM:  11    -0.348061391608E+03   -0.23767E-04   -0.38379E-04  6816   0.287E-02    0.182E-02
RMM:  12    -0.348061393416E+03   -0.18077E-05   -0.14799E-04  6422   0.196E-02    0.118E-02
RMM:  13    -0.348061394032E+03   -0.61682E-06   -0.55836E-05  5338   0.138E-02
   3 F= -.34806139E+03 E0= -.34806262E+03  d E =-.859141E-01
       N       E                     dE             d eps       ncg     rms          rms(c)
DAV:   1    -0.348102567949E+03   -0.41175E-01   -0.30153E+00  6088   0.453E+00    0.944E-01
RMM:   2    -0.348100999906E+03    0.15680E-02   -0.10742E-01  7785   0.830E-01    0.380E-01
RMM:   3    -0.348098869149E+03    0.21308E-02   -0.19890E-02  8260   0.270E-01    0.280E-01
RMM:   4    -0.348097085078E+03    0.17841E-02   -0.55249E-03  8376   0.129E-01    0.151E-01
RMM:   5    -0.348096923798E+03    0.16128E-03   -0.21411E-03  8692   0.808E-02    0.112E-01
RMM:   6    -0.348096960756E+03   -0.36958E-04   -0.78349E-04  8697   0.420E-02    0.703E-02
RMM:   7    -0.348096998110E+03   -0.37354E-04   -0.38286E-04  7539   0.319E-02    0.402E-02
RMM:   8    -0.348097023283E+03   -0.25173E-04   -0.14874E-04  6423   0.201E-02    0.226E-02
RMM:   9    -0.348097038777E+03   -0.15494E-04   -0.90798E-05  5490   0.159E-02    0.175E-02
RMM:  10    -0.348097053335E+03   -0.14558E-04   -0.41246E-05  4948   0.119E-02    0.877E-03
RMM:  11    -0.348097060519E+03   -0.71838E-05   -0.18339E-05  3825   0.998E-03
   4 F= -.34809706E+03 E0= -.34809802E+03  d E =-.356665E-01
       N       E                     dE             d eps       ncg     rms          rms(c)
DAV:   1    -0.348202538648E+03   -0.10549E+00   -0.27127E+01  5824   0.136E+01    0.287E+00
RMM:   2    -0.348189384019E+03    0.13155E-01   -0.97921E-01  7714   0.253E+00    0.113E+00
RMM:   3    -0.348170445598E+03    0.18938E-01   -0.17668E-01  8290   0.823E-01    0.825E-01
RMM:   4    -0.348154721521E+03    0.15724E-01   -0.48610E-02  8383   0.378E-01    0.450E-01
RMM:   5    -0.348153364946E+03    0.13566E-02   -0.18631E-02  8787   0.234E-01    0.336E-01
RMM:   6    -0.348153595363E+03   -0.23042E-03   -0.70783E-03  9315   0.124E-01    0.212E-01
RMM:   7    -0.348153799898E+03   -0.20454E-03   -0.33464E-03  9204   0.945E-02    0.121E-01
RMM:   8    -0.348153989664E+03   -0.18977E-03   -0.16372E-03  9126   0.545E-02    0.731E-02
RMM:   9    -0.348154071098E+03   -0.81434E-04   -0.65866E-04  8030   0.391E-02    0.559E-02
RMM:  10    -0.348154169538E+03   -0.98440E-04   -0.33651E-04  7491   0.265E-02    0.284E-02
RMM:  11    -0.348154205026E+03   -0.35488E-04   -0.15968E-04  6384   0.202E-02    0.964E-03
RMM:  12    -0.348154210598E+03   -0.55716E-05   -0.73526E-05  5742   0.148E-02
   5 F= -.34815421E+03 E0= -.34815440E+03  d E =-.928166E-01
       N       E                     dE             d eps       ncg     rms          rms(c)
DAV:   1    -0.348159464529E+03   -0.52595E-02   -0.16762E+00  6112   0.338E+00    0.712E-01
RMM:   2    -0.348158481798E+03    0.98273E-03   -0.59281E-02  7741   0.619E-01    0.279E-01
RMM:   3    -0.348157404529E+03    0.10773E-02   -0.10986E-02  8328   0.203E-01    0.203E-01
RMM:   4    -0.348156451159E+03    0.95337E-03   -0.30784E-03  8390   0.943E-02    0.109E-01
RMM:   5    -0.348156384224E+03    0.66935E-04   -0.11566E-03  8694   0.592E-02    0.814E-02
RMM:   6    -0.348156418196E+03   -0.33972E-04   -0.44942E-04  7880   0.307E-02    0.519E-02
RMM:   7    -0.348156447142E+03   -0.28946E-04   -0.21121E-04  6886   0.248E-02    0.299E-02
RMM:   8    -0.348156467045E+03   -0.19903E-04   -0.96844E-05  5789   0.166E-02    0.170E-02
RMM:   9    -0.348156478015E+03   -0.10971E-04   -0.54401E-05  5052   0.129E-02    0.129E-02
RMM:  10    -0.348156487874E+03   -0.98592E-05   -0.26871E-05  4278   0.112E-02
   6 F= -.34815649E+03 E0= -.34815649E+03  d E =-.950938E-01
       N       E                     dE             d eps       ncg     rms          rms(c)
DAV:   1    -0.348164941273E+03   -0.84633E-02   -0.12038E+00  5760   0.308E+00    0.399E-01
RMM:   2    -0.348167793817E+03   -0.28525E-02   -0.44950E-02  8057   0.578E-01    0.214E-01
RMM:   3    -0.348166460275E+03    0.13335E-02   -0.60999E-03  8151   0.163E-01    0.143E-01
RMM:   4    -0.348166106655E+03    0.35362E-03   -0.14679E-03  8269   0.667E-02    0.822E-02
RMM:   5    -0.348166053989E+03    0.52666E-04   -0.61131E-04  8267   0.442E-02    0.510E-02
RMM:   6    -0.348166044019E+03    0.99693E-05   -0.23663E-04  7128   0.237E-02    0.337E-02
RMM:   7    -0.348166033621E+03    0.10398E-04   -0.10744E-04  5629   0.162E-02    0.205E-02
RMM:   8    -0.348166031487E+03    0.21345E-05   -0.56281E-05  4972   0.137E-02
   7 F= -.34816603E+03 E0= -.34816595E+03  d E =-.954361E-02
       N       E                     dE             d eps       ncg     rms          rms(c)
DAV:   1    -0.348175039272E+03   -0.90057E-02   -0.10828E+01  5600   0.925E+00    0.118E+00
RMM:   2    -0.348201023259E+03   -0.25984E-01   -0.40408E-01  8054   0.173E+00    0.641E-01
RMM:   3    -0.348189066652E+03    0.11957E-01   -0.54483E-02  8277   0.490E-01    0.425E-01
RMM:   4    -0.348186023749E+03    0.30429E-02   -0.12930E-02  8286   0.197E-01    0.243E-01
RMM:   5    -0.348185611726E+03    0.41202E-03   -0.54756E-03  8321   0.132E-01    0.152E-01
RMM:   6    -0.348185571522E+03    0.40203E-04   -0.22773E-03  9155   0.707E-02    0.101E-01
RMM:   7    -0.348185523186E+03    0.48336E-04   -0.10080E-03  8868   0.428E-02    0.626E-02
RMM:   8    -0.348185533914E+03   -0.10728E-04   -0.41673E-04  7351   0.277E-02    0.330E-02
RMM:   9    -0.348185537804E+03   -0.38908E-05   -0.20399E-04  6607   0.224E-02    0.189E-02
RMM:  10    -0.348185540617E+03   -0.28125E-05   -0.94531E-05  6182   0.164E-02
   8 F= -.34818554E+03 E0= -.34818525E+03  d E =-.290527E-01
       N       E                     dE             d eps       ncg     rms          rms(c)
DAV:   1    -0.348136278482E+03    0.49259E-01   -0.43305E+01  5600   0.185E+01    0.231E+00
RMM:   2    -0.348242542374E+03   -0.10626E+00   -0.16330E+00  8055   0.348E+00    0.127E+00
RMM:   3    -0.348196968404E+03    0.45574E-01   -0.22015E-01  8346   0.983E-01    0.850E-01
RMM:   4    -0.348185030487E+03    0.11938E-01   -0.50479E-02  8243   0.395E-01    0.491E-01
RMM:   5    -0.348183413541E+03    0.16169E-02   -0.21909E-02  8237   0.266E-01    0.306E-01
RMM:   6    -0.348183178762E+03    0.23478E-03   -0.90237E-03  9315   0.140E-01    0.201E-01
RMM:   7    -0.348183031201E+03    0.14756E-03   -0.40917E-03  9704   0.831E-02    0.125E-01
RMM:   8    -0.348183106060E+03   -0.74858E-04   -0.17690E-03  9504   0.538E-02    0.662E-02
RMM:   9    -0.348183132638E+03   -0.26578E-04   -0.75578E-04  8652   0.387E-02    0.387E-02
RMM:  10    -0.348183162031E+03   -0.29393E-04   -0.39409E-04  7903   0.254E-02    0.252E-02
RMM:  11    -0.348183163518E+03   -0.14870E-05   -0.15195E-04  6364   0.191E-02    0.140E-02
RMM:  12    -0.348183162931E+03    0.58704E-06   -0.63569E-05  5696   0.150E-02
   9 F= -.34818316E+03 E0= -.34818265E+03  d E =-.266751E-01
       N       E                     dE             d eps       ncg     rms          rms(c)
DAV:   1    -0.348180381385E+03    0.27821E-02   -0.13072E+01  5600   0.101E+01    0.130E+00
RMM:   2    -0.348209496705E+03   -0.29115E-01   -0.48110E-01  8056   0.190E+00    0.691E-01
RMM:   3    -0.348195306404E+03    0.14190E-01   -0.63125E-02  8073   0.527E-01    0.457E-01
RMM:   4    -0.348191638656E+03    0.36677E-02   -0.15492E-02  8372   0.217E-01    0.260E-01
RMM:   5    -0.348191203110E+03    0.43555E-03   -0.63807E-03  8666   0.145E-01    0.162E-01
RMM:   6    -0.348191241298E+03   -0.38187E-04   -0.26188E-03  9244   0.769E-02    0.108E-01
RMM:   7    -0.348191216068E+03    0.25230E-04   -0.11061E-03  9042   0.472E-02    0.655E-02
RMM:   8    -0.348191268220E+03   -0.52152E-04   -0.44476E-04  7562   0.301E-02    0.343E-02
RMM:   9    -0.348191295303E+03   -0.27083E-04   -0.21877E-04  6923   0.233E-02    0.195E-02
RMM:  10    -0.348191313729E+03   -0.18426E-04   -0.98010E-05  6248   0.165E-02    0.118E-02
RMM:  11    -0.348191321222E+03   -0.74932E-05   -0.42846E-05  5033   0.129E-02
  10 F= -.34819132E+03 E0= -.34819089E+03  d E =-.348333E-01
       N       E                     dE             d eps       ncg     rms          rms(c)
DAV:   1    -0.348232050355E+03   -0.40737E-01   -0.58715E+00  5864   0.747E+00    0.209E+00
RMM:   2    -0.348216985912E+03    0.15064E-01   -0.43101E-01  6984   0.174E+00    0.719E-01
RMM:   3    -0.348208078696E+03    0.89072E-02   -0.69278E-02  8201   0.566E-01    0.540E-01
RMM:   4    -0.348199507050E+03    0.85716E-02   -0.19876E-02  8369   0.259E-01    0.304E-01
RMM:   5    -0.348198930128E+03    0.57692E-03   -0.58988E-03  8216   0.149E-01    0.237E-01
RMM:   6    -0.348199106557E+03   -0.17643E-03   -0.27787E-03  8960   0.864E-02    0.120E-01
RMM:   7    -0.348199301327E+03   -0.19477E-03   -0.12619E-03  9014   0.628E-02    0.598E-02
RMM:   8    -0.348199375311E+03   -0.73984E-04   -0.54385E-04  7913   0.334E-02    0.514E-02
RMM:   9    -0.348199423109E+03   -0.47798E-04   -0.17738E-04  6356   0.249E-02    0.428E-02
RMM:  10    -0.348199499861E+03   -0.76752E-04   -0.11787E-04  5995   0.189E-02    0.198E-02
RMM:  11    -0.348199532901E+03   -0.33040E-04   -0.88277E-05  5751   0.167E-02    0.842E-03
RMM:  12    -0.348199536651E+03   -0.37496E-05   -0.39497E-05  4926   0.125E-02
  11 F= -.34819954E+03 E0= -.34819907E+03  d E =-.821543E-02
       N       E                     dE             d eps       ncg     rms          rms(c)
DAV:   1    -0.348199581928E+03   -0.49027E-04   -0.93954E-03  6368   0.299E-01    0.816E-02
RMM:   2    -0.348199555505E+03    0.26424E-04   -0.67339E-04  6959   0.689E-02    0.265E-02
RMM:   3    -0.348199544205E+03    0.11300E-04   -0.10045E-04  6445   0.224E-02    0.194E-02
RMM:   4    -0.348199534186E+03    0.10019E-04   -0.27213E-05  3922   0.130E-02    0.123E-02
RMM:   5    -0.348199535590E+03   -0.14043E-05   -0.10307E-05  3196   0.979E-03
  12 F= -.34819954E+03 E0= -.34819907E+03  d E =-.821437E-02
       N       E                     dE             d eps       ncg     rms          rms(c)
DAV:   1    -0.348197185052E+03    0.23491E-02   -0.49529E+00  5600   0.643E+00    0.701E-01
RMM:   2    -0.348210752514E+03   -0.13567E-01   -0.21112E-01  7916   0.125E+00    0.330E-01
RMM:   3    -0.348209686752E+03    0.10658E-02   -0.20976E-02  8111   0.332E-01    0.239E-01
RMM:   4    -0.348209089740E+03    0.59701E-03   -0.53844E-03  9211   0.117E-01    0.154E-01
RMM:   5    -0.348208986823E+03    0.10292E-03   -0.22389E-03  8687   0.771E-02    0.934E-02
RMM:   6    -0.348208910329E+03    0.76494E-04   -0.90016E-04  9008   0.500E-02    0.512E-02
RMM:   7    -0.348208907693E+03    0.26357E-05   -0.32824E-04  7517   0.274E-02    0.301E-02
RMM:   8    -0.348208913477E+03   -0.57841E-05   -0.16606E-04  6504   0.195E-02    0.189E-02
RMM:   9    -0.348208916013E+03   -0.25364E-05   -0.78476E-05  5628   0.156E-02
  13 F= -.34820892E+03 E0= -.34820857E+03  d E =-.938042E-02
       N       E                     dE             d eps       ncg     rms          rms(c)
DAV:   1    -0.348201690681E+03    0.72228E-02   -0.46011E+00  5600   0.619E+00    0.669E-01
RMM:   2    -0.348214328297E+03   -0.12638E-01   -0.19557E-01  7898   0.120E+00    0.314E-01
RMM:   3    -0.348213369570E+03    0.95873E-03   -0.19501E-02  8107   0.318E-01    0.226E-01
RMM:   4    -0.348212850846E+03    0.51872E-03   -0.50516E-03  9201   0.113E-01    0.146E-01
RMM:   5    -0.348212772164E+03    0.78682E-04   -0.21122E-03  8738   0.744E-02    0.893E-02
RMM:   6    -0.348212708068E+03    0.64096E-04   -0.86267E-04  9052   0.483E-02    0.494E-02
RMM:   7    -0.348212707568E+03    0.49974E-06   -0.31133E-04  7434   0.270E-02    0.293E-02
RMM:   8    -0.348212715130E+03   -0.75623E-05   -0.17458E-04  6607   0.199E-02    0.186E-02
RMM:   9    -0.348212717145E+03   -0.20146E-05   -0.74305E-05  5708   0.153E-02
  14 F= -.34821272E+03 E0= -.34821251E+03  d E =-.131816E-01
       N       E                     dE             d eps       ncg     rms          rms(c)
DAV:   1    -0.348212249437E+03    0.46569E-03   -0.25081E-01  5808   0.144E+00    0.156E-01
RMM:   2    -0.348212951203E+03   -0.70177E-03   -0.10686E-02  7902   0.280E-01    0.729E-02
RMM:   3    -0.348212903119E+03    0.48084E-04   -0.11223E-03  8065   0.737E-02    0.516E-02
RMM:   4    -0.348212878827E+03    0.24292E-04   -0.31408E-04  8265   0.269E-02    0.328E-02
RMM:   5    -0.348212873581E+03    0.52459E-05   -0.11531E-04  6123   0.180E-02    0.204E-02
RMM:   6    -0.348212869168E+03    0.44128E-05   -0.56090E-05  4764   0.134E-02
  15 F= -.34821287E+03 E0= -.34821270E+03  d E =-.133336E-01
       N       E                     dE             d eps       ncg     rms          rms(c)
DAV:   1    -0.348213939577E+03   -0.10660E-02   -0.13571E+00  5712   0.336E+00    0.425E-01
RMM:   2    -0.348217498969E+03   -0.35594E-02   -0.57557E-02  7696   0.648E-01    0.188E-01
RMM:   3    -0.348216826446E+03    0.67252E-03   -0.67111E-03  8076   0.188E-01    0.147E-01
RMM:   4    -0.348216445569E+03    0.38088E-03   -0.15602E-03  8499   0.672E-02    0.862E-02
RMM:   5    -0.348216426203E+03    0.19366E-04   -0.64095E-04  8614   0.448E-02    0.548E-02
RMM:   6    -0.348216427603E+03   -0.14005E-05   -0.27303E-04  8116   0.276E-02    0.319E-02
RMM:   7    -0.348216434321E+03   -0.67181E-05   -0.97113E-05  5717   0.166E-02
  16 F= -.34821643E+03 E0= -.34821634E+03  d E =-.356515E-02
       N       E                     dE             d eps       ncg     rms          rms(c)
DAV:   1    -0.348210388591E+03    0.60390E-02   -0.45998E+00  5712   0.619E+00    0.778E-01
RMM:   2    -0.348222462246E+03   -0.12074E-01   -0.19446E-01  7678   0.119E+00    0.345E-01
RMM:   3    -0.348220065718E+03    0.23965E-02   -0.22445E-02  8073   0.346E-01    0.267E-01
RMM:   4    -0.348218825702E+03    0.12400E-02   -0.53068E-03  8589   0.124E-01    0.156E-01
RMM:   5    -0.348218779250E+03    0.46452E-04   -0.21526E-03  8851   0.825E-02    0.101E-01
RMM:   6    -0.348218792092E+03   -0.12842E-04   -0.93702E-04  9145   0.506E-02    0.605E-02
RMM:   7    -0.348218813042E+03   -0.20950E-04   -0.37678E-04  8010   0.302E-02    0.400E-02
RMM:   8    -0.348218836905E+03   -0.23863E-04   -0.14672E-04  6622   0.194E-02    0.235E-02
RMM:   9    -0.348218855762E+03   -0.18857E-04   -0.88442E-05  5742   0.161E-02    0.144E-02
RMM:  10    -0.348218867488E+03   -0.11726E-04   -0.41810E-05  5030   0.134E-02    0.751E-03
RMM:  11    -0.348218871170E+03   -0.36816E-05   -0.16506E-05  3842   0.109E-02
  17 F= -.34821887E+03 E0= -.34821898E+03  d E =-.600200E-02
       N       E                     dE             d eps       ncg     rms          rms(c)
DAV:   1    -0.348224690147E+03   -0.58227E-02   -0.10799E+00  5976   0.316E+00    0.798E-01
RMM:   2    -0.348223573700E+03    0.11164E-02   -0.74725E-02  6921   0.711E-01    0.284E-01
RMM:   3    -0.348222039573E+03    0.15341E-02   -0.10917E-02  8136   0.232E-01    0.211E-01
RMM:   4    -0.348220825747E+03    0.12138E-02   -0.32000E-03  8356   0.101E-01    0.120E-01
RMM:   5    -0.348220697251E+03    0.12850E-03   -0.10164E-03  8273   0.616E-02    0.915E-02
RMM:   6    -0.348220683312E+03    0.13939E-04   -0.45210E-04  7892   0.353E-02    0.485E-02
RMM:   7    -0.348220678120E+03    0.51919E-05   -0.19902E-04  7014   0.264E-02    0.241E-02
RMM:   8    -0.348220678091E+03    0.29017E-07   -0.82805E-05  5559   0.159E-02
  18 F= -.34822068E+03 E0= -.34822092E+03  d E =-.180692E-02
       N       E                     dE             d eps       ncg     rms          rms(c)
DAV:   1    -0.348221818142E+03   -0.11400E-02   -0.33396E-01  6088   0.176E+00    0.434E-01
RMM:   2    -0.348221521913E+03    0.29623E-03   -0.22884E-02  6844   0.395E-01    0.151E-01
RMM:   3    -0.348221048973E+03    0.47294E-03   -0.31689E-03  8092   0.127E-01    0.112E-01
RMM:   4    -0.348220707424E+03    0.34155E-03   -0.96230E-04  8307   0.548E-02    0.654E-02
RMM:   5    -0.348220674731E+03    0.32693E-04   -0.31195E-04  7973   0.339E-02    0.513E-02
RMM:   6    -0.348220671291E+03    0.34399E-05   -0.14687E-04  6981   0.200E-02    0.292E-02
RMM:   7    -0.348220666862E+03    0.44296E-05   -0.64376E-05  5240   0.160E-02
  19 F= -.34822067E+03 E0= -.34822099E+03  d E =-.179569E-02
       N       E                     dE             d eps       ncg     rms          rms(c)
DAV:   1    -0.348220904573E+03   -0.23328E-03   -0.39354E-02  6176   0.604E-01    0.158E-01
RMM:   2    -0.348220846213E+03    0.58360E-04   -0.27538E-03  7100   0.136E-01    0.592E-02
RMM:   3    -0.348220791950E+03    0.54263E-04   -0.42074E-04  8033   0.443E-02    0.438E-02
RMM:   4    -0.348220740935E+03    0.51015E-04   -0.11786E-04  6988   0.203E-02    0.243E-02
RMM:   5    -0.348220734489E+03    0.64459E-05   -0.31122E-05  3746   0.133E-02
  20 F= -.34822073E+03 E0= -.34822103E+03  d E =-.186332E-02
       N       E                     dE             d eps       ncg     rms          rms(c)
DAV:   1    -0.348220742810E+03   -0.18748E-05   -0.56081E-01  5600   0.213E+00    0.153E-01
RMM:   2    -0.348222234230E+03   -0.14914E-02   -0.18645E-02  7001   0.392E-01    0.741E-02
RMM:   3    -0.348222178835E+03    0.55395E-04   -0.19795E-03  8005   0.114E-01    0.596E-02
RMM:   4    -0.348222173535E+03    0.52993E-05   -0.43565E-04  8987   0.295E-02    0.419E-02
RMM:   5    -0.348222173892E+03   -0.35665E-06   -0.14951E-04  7142   0.215E-02    0.238E-02
RMM:   6    -0.348222174408E+03   -0.51608E-06   -0.70911E-05  5991   0.161E-02
  21 F= -.34822217E+03 E0= -.34822257E+03  d E =-.143992E-02
       N       E                     dE             d eps       ncg     rms          rms(c)
DAV:   1    -0.348211052839E+03    0.11121E-01   -0.50443E+00  5600   0.639E+00    0.462E-01
RMM:   2    -0.348224517030E+03   -0.13464E-01   -0.16839E-01  7195   0.118E+00    0.229E-01
RMM:   3    -0.348224157076E+03    0.35995E-03   -0.18781E-02  8065   0.338E-01    0.179E-01
RMM:   4    -0.348224077339E+03    0.79737E-04   -0.39272E-03  9566   0.905E-02    0.123E-01
RMM:   5    -0.348224072960E+03    0.43793E-05   -0.14952E-03  8919   0.647E-02    0.717E-02
RMM:   6    -0.348224048347E+03    0.24613E-04   -0.66941E-04  9183   0.447E-02    0.325E-02
RMM:   7    -0.348224057337E+03   -0.89900E-05   -0.21677E-04  7121   0.224E-02    0.213E-02
RMM:   8    -0.348224064805E+03   -0.74676E-05   -0.10095E-04  5909   0.170E-02    0.144E-02
RMM:   9    -0.348224071932E+03   -0.71270E-05   -0.48041E-05  4983   0.132E-02
  22 F= -.34822407E+03 E0= -.34822481E+03  d E =-.333744E-02
       N       E                     dE             d eps       ncg     rms          rms(c)
DAV:   1    -0.348224572114E+03   -0.50731E-03   -0.28811E-01  5744   0.152E+00    0.132E-01
RMM:   2    -0.348225206088E+03   -0.63397E-03   -0.92845E-03  7716   0.284E-01    0.753E-02
RMM:   3    -0.348225134078E+03    0.72010E-04   -0.11778E-03  8058   0.793E-02    0.565E-02
RMM:   4    -0.348225089561E+03    0.44517E-04   -0.27802E-04  8711   0.269E-02    0.316E-02
RMM:   5    -0.348225089625E+03   -0.64632E-07   -0.12419E-04  6519   0.190E-02    0.170E-02
RMM:   6    -0.348225090402E+03   -0.77666E-06   -0.47455E-05  4475   0.134E-02
  23 F= -.34822509E+03 E0= -.34822586E+03  d E =-.101847E-02
       N       E                     dE             d eps       ncg     rms          rms(c)
DAV:   1    -0.348222913008E+03    0.21766E-02   -0.17552E+00  5600   0.376E+00    0.327E-01
RMM:   2    -0.348226774793E+03   -0.38618E-02   -0.56675E-02  7767   0.699E-01    0.186E-01
RMM:   3    -0.348226335689E+03    0.43910E-03   -0.71810E-03  8065   0.195E-01    0.141E-01
RMM:   4    -0.348226058872E+03    0.27682E-03   -0.17157E-03  9282   0.667E-02    0.789E-02
RMM:   5    -0.348226056102E+03    0.27692E-05   -0.80956E-04  8646   0.481E-02    0.426E-02
RMM:   6    -0.348226055646E+03    0.45636E-06   -0.30666E-04  8135   0.275E-02    0.238E-02
RMM:   7    -0.348226057902E+03   -0.22564E-05   -0.11686E-04  5906   0.168E-02    0.158E-02
RMM:   8    -0.348226064957E+03   -0.70550E-05   -0.69115E-05  5162   0.144E-02
  24 F= -.34822606E+03 E0= -.34822691E+03  d E =-.199303E-02
       N       E                     dE             d eps       ncg     rms          rms(c)
DAV:   1    -0.348230134656E+03   -0.40768E-02   -0.66573E-01  6080   0.253E+00    0.684E-01
RMM:   2    -0.348228764425E+03    0.13702E-02   -0.46041E-02  7325   0.576E-01    0.243E-01
RMM:   3    -0.348227644899E+03    0.11195E-02   -0.83673E-03  8204   0.192E-01    0.188E-01
RMM:   4    -0.348226594525E+03    0.10504E-02   -0.22935E-03  8363   0.898E-02    0.102E-01
RMM:   5    -0.348226489265E+03    0.10526E-03   -0.71705E-04  8259   0.525E-02    0.771E-02
RMM:   6    -0.348226484216E+03    0.50497E-05   -0.31459E-04  7664   0.290E-02    0.443E-02
RMM:   7    -0.348226472053E+03    0.12163E-04   -0.13017E-04  6665   0.214E-02    0.240E-02
RMM:   8    -0.348226469009E+03    0.30441E-05   -0.70824E-05  5079   0.147E-02
  25 F= -.34822647E+03 E0= -.34822735E+03  d E =-.404052E-03
       N       E                     dE             d eps       ncg     rms          rms(c)
DAV:   1    -0.348226599757E+03   -0.12770E-03   -0.15681E-02  6400   0.387E-01    0.112E-01
RMM:   2    -0.348226551425E+03    0.48332E-04   -0.11205E-03  7512   0.885E-02    0.430E-02
RMM:   3    -0.348226526888E+03    0.24537E-04   -0.22842E-04  7176   0.300E-02    0.336E-02
RMM:   4    -0.348226495432E+03    0.31456E-04   -0.60594E-05  6135   0.173E-02    0.180E-02
RMM:   5    -0.348226491047E+03    0.43847E-05   -0.15694E-05  3165   0.114E-02
  26 F= -.34822649E+03 E0= -.34822737E+03  d E =-.426090E-03
       N       E                     dE             d eps       ncg     rms          rms(c)
DAV:   1    -0.348226394138E+03    0.10129E-03   -0.22778E-01  5680   0.139E+00    0.118E-01
RMM:   2    -0.348226982486E+03   -0.58835E-03   -0.84061E-03  7587   0.264E-01    0.634E-02
RMM:   3    -0.348226935987E+03    0.46499E-04   -0.88638E-04  8020   0.725E-02    0.485E-02
RMM:   4    -0.348226906199E+03    0.29788E-04   -0.20327E-04  8047   0.234E-02    0.288E-02
RMM:   5    -0.348226908556E+03   -0.23568E-05   -0.98149E-05  6522   0.164E-02
  27 F= -.34822691E+03 E0= -.34822781E+03  d E =-.417508E-03
       N       E                     dE             d eps       ncg     rms          rms(c)
DAV:   1    -0.348224586355E+03    0.23198E-02   -0.11208E+00  5600   0.309E+00    0.263E-01
RMM:   2    -0.348227497134E+03   -0.29108E-02   -0.41665E-02  7703   0.585E-01    0.142E-01
RMM:   3    -0.348227318742E+03    0.17839E-03   -0.46499E-03  8059   0.160E-01    0.108E-01
RMM:   4    -0.348227178302E+03    0.14044E-03   -0.10849E-03  9420   0.533E-02    0.635E-02
RMM:   5    -0.348227193193E+03   -0.14892E-04   -0.55406E-04  8593   0.386E-02    0.394E-02
RMM:   6    -0.348227180770E+03    0.12424E-04   -0.19591E-04  7561   0.235E-02    0.192E-02
RMM:   7    -0.348227186871E+03   -0.61013E-05   -0.69753E-05  5441   0.142E-02
  28 F= -.34822719E+03 E0= -.34822815E+03  d E =-.695824E-03
       N       E                     dE             d eps       ncg     rms          rms(c)
DAV:   1    -0.348227119617E+03    0.61153E-04   -0.42984E-02  5776   0.604E-01    0.536E-02
RMM:   2    -0.348227231462E+03   -0.11184E-03   -0.15627E-03  7107   0.114E-01    0.261E-02
RMM:   3    -0.348227218900E+03    0.12561E-04   -0.14678E-04  7109   0.332E-02    0.211E-02
RMM:   4    -0.348227210815E+03    0.80856E-05   -0.27372E-05  3826   0.108E-02
  29 F= -.34822721E+03 E0= -.34822816E+03  d E =-.719767E-03
       N       E                     dE             d eps       ncg     rms          rms(c)
DAV:   1    -0.348227688392E+03   -0.46949E-03   -0.46340E-02  5824   0.671E-01    0.178E-01
RMM:   2    -0.348227550737E+03    0.13766E-03   -0.31847E-03  7751   0.150E-01    0.667E-02
RMM:   3    -0.348227475272E+03    0.75465E-04   -0.60098E-04  8169   0.488E-02    0.528E-02
RMM:   4    -0.348227396154E+03    0.79118E-04   -0.16573E-04  7601   0.246E-02    0.288E-02
RMM:   5    -0.348227388363E+03    0.77915E-05   -0.56756E-05  6257   0.137E-02
  30 F= -.34822739E+03 E0= -.34822837E+03  d E =-.177548E-03
       N       E                     dE             d eps       ncg     rms          rms(c)
DAV:   1    -0.348228087657E+03   -0.69150E-03   -0.10347E-01  5696   0.100E+00    0.259E-01
RMM:   2    -0.348227768310E+03    0.31935E-03   -0.70633E-03  7839   0.223E-01    0.976E-02
RMM:   3    -0.348227597516E+03    0.17079E-03   -0.12926E-03  8171   0.702E-02    0.790E-02
RMM:   4    -0.348227430965E+03    0.16655E-03   -0.37376E-04  8043   0.370E-02    0.450E-02
RMM:   5    -0.348227418554E+03    0.12410E-04   -0.14376E-04  7314   0.210E-02    0.332E-02
RMM:   6    -0.348227428994E+03   -0.10440E-04   -0.56588E-05  4950   0.139E-02    0.187E-02
RMM:   7    -0.348227435089E+03   -0.60947E-05   -0.37202E-05  4270   0.126E-02
  31 F= -.34822744E+03 E0= -.34822845E+03  d E =-.224274E-03
       N       E                     dE             d eps       ncg     rms          rms(c)
DAV:   1    -0.348227561249E+03   -0.13225E-03   -0.20277E-02  5824   0.427E-01    0.787E-02
RMM:   2    -0.348227586608E+03   -0.25359E-04   -0.11340E-03  7907   0.891E-02    0.332E-02
RMM:   3    -0.348227577620E+03    0.89877E-05   -0.17034E-04  7145   0.279E-02    0.254E-02
RMM:   4    -0.348227564510E+03    0.13110E-04   -0.52184E-05  5108   0.142E-02    0.146E-02
RMM:   5    -0.348227561848E+03    0.26616E-05   -0.18645E-05  3534   0.921E-03
  32 F= -.34822756E+03 E0= -.34822860E+03  d E =-.126760E-03
       N       E                     dE             d eps       ncg     rms          rms(c)
DAV:   1    -0.348227765517E+03   -0.20101E-03   -0.17090E-01  5616   0.124E+00    0.217E-01
RMM:   2    -0.348227898210E+03   -0.13269E-03   -0.89540E-03  7795   0.252E-01    0.871E-02
RMM:   3    -0.348227796527E+03    0.10168E-03   -0.11640E-03  8087   0.781E-02    0.663E-02
RMM:   4    -0.348227692443E+03    0.10408E-03   -0.34041E-04  7857   0.311E-02    0.381E-02
RMM:   5    -0.348227678156E+03    0.14287E-04   -0.14030E-04  6939   0.197E-02    0.267E-02
RMM:   6    -0.348227671915E+03    0.62403E-05   -0.49965E-05  4546   0.127E-02
  33 F= -.34822767E+03 E0= -.34822876E+03  d E =-.236827E-03
       N       E                     dE             d eps       ncg     rms          rms(c)
DAV:   1    -0.348227808301E+03   -0.13015E-03   -0.67406E-03  5904   0.257E-01    0.716E-02
RMM:   2    -0.348227765610E+03    0.42691E-04   -0.44813E-04  7969   0.559E-02    0.273E-02
RMM:   3    -0.348227749941E+03    0.15669E-04   -0.83337E-05  6488   0.174E-02    0.211E-02
RMM:   4    -0.348227734921E+03    0.15020E-04   -0.22447E-05  3893   0.128E-02    0.132E-02
RMM:   5    -0.348227732051E+03    0.28696E-05   -0.91080E-06  3136   0.968E-03
  34 F= -.34822773E+03 E0= -.34822881E+03  d E =-.601356E-04
       N       E                     dE             d eps       ncg     rms          rms(c)
DAV:   1    -0.348228408832E+03   -0.67391E-03   -0.59977E-02  5704   0.768E-01    0.220E-01
RMM:   2    -0.348228031600E+03    0.37723E-03   -0.42197E-03  8052   0.167E-01    0.860E-02
RMM:   3    -0.348227920016E+03    0.11158E-03   -0.89677E-04  8235   0.521E-02    0.675E-02
RMM:   4    -0.348227784462E+03    0.13555E-03   -0.29498E-04  7985   0.335E-02    0.361E-02
RMM:   5    -0.348227767798E+03    0.16663E-04   -0.11357E-04  6910   0.181E-02    0.263E-02
RMM:   6    -0.348227762793E+03    0.50056E-05   -0.38096E-05  4535   0.116E-02
  35 F= -.34822776E+03 E0= -.34822882E+03  d E =-.908774E-04
